INSANE! Membrane UpperLeaflet>loPI:POPI:DPPI:PYPI:ERGO=180.0:5.0:3.0:2.0:10.0 LowerLeaflet>PSPI:POPI:POPS:YOPS:POPE:YOPE:POPC:YOPC:ERGO=6.0:14.0:21.0:9.0:9.0:21.0:12.0:48.0:60.0
49428
    1loPI    C1    1   0.968  15.339  10.082  0.2811 -0.2409 -0.1511
    1loPI    C2    2   0.961  15.132  10.424 -0.0572 -0.1314 -0.0887
    1loPI    C3    3   1.146  15.486  10.409 -0.1870 -0.0572  0.0300
    1loPI   PO4    4   1.117  15.321   9.793  0.1062 -0.0832  0.0008
    1loPI   GL1    5   1.117  15.616   9.527 -0.0157 -0.4900 -0.0052
    1loPI   GL2    6   1.477  15.629   9.447 -0.0499  0.1608 -0.1229
    1loPI   C1A    7   1.046  15.895   9.205 -0.2200 -0.0087  0.0711
    1loPI   C2A    8   1.021  15.869   8.772 -0.2930 -0.0754  0.0851
    1loPI   C3A    9   1.062  15.937   8.368  0.1652  0.0234 -0.2678
    1loPI   C4A   10   0.934  16.063   7.979 -0.1732  0.2251  0.1631
    1loPI   C5A   11   1.039  16.288   7.680 -0.2321  0.1072  0.0782
    1loPI   C6A   12   1.313  16.517   7.439 -0.0006 -0.1808 -0.1722
    1loPI   C1B   13   1.515  15.793   9.060  0.0104 -0.1075 -0.1537
    1loPI   C2B   14   1.496  15.798   8.649  0.0762  0.0316  0.0886
    1loPI   C3B   15   1.543  15.889   8.278  0.2706 -0.1650  0.0919
    1loPI   C4B   16   1.335  15.788   7.935 -0.2353 -0.4975 -0.2351
    2loPI    C1   17  14.949  10.751   9.403 -0.1037  0.0355  0.1820
    2loPI    C2   18  15.014  10.935   9.752 -0.0386  0.0098  0.1835
    2loPI    C3   19  15.001  11.148   9.414 -0.0995  0.0344  0.2012
    2loPI   PO4   20  15.062  10.511   9.384  0.3319 -0.0914  0.0130
    2loPI   GL1   21  15.024  10.368   8.985 -0.0925  0.1835  0.1340
    2loPI   GL2   22  15.404  10.439   8.944 -0.0302  0.1713 -0.0747
    2loPI   C1A   23  14.862  10.168   8.645  0.2999  0.2832  0.2069
    2loPI   C2A   24  14.900  10.123   8.230 -0.1183  0.2906 -0.1114
    2loPI   C3A   25  14.897  10.042   7.840 -0.3439  0.0023  0.0216
    2loPI   C4A   26  14.984   9.880   7.453 -0.0978 -0.1510  0.3454
    2loPI   C5A   27  15.026   9.613   7.074  0.0139 -0.2292  0.1583
    2loPI   C6A   28  15.275   9.695   6.708  0.0730  0.2584 -0.3459
    2loPI   C1B   29  15.345  10.255   8.517 -0.0669 -0.0957  0.1841
    2loPI   C2B   30  15.359  10.094   8.056 -0.1894  0.0233  0.2609
    2loPI   C3B   31  15.572  10.023   7.810 -0.1637 -0.1924 -0.1466
    2loPI   C4B   32  15.885  10.029   7.465 -0.1098  0.0517 -0.0141
    3loPI    C1   33   3.296  10.331  10.132 -0.2175  0.0856 -0.1166
    3loPI    C2   34   3.290  10.620  10.409  0.1446 -0.0449  0.0335
    3loPI    C3   35   2.999  10.346  10.400 -0.0658  0.1745  0.0490
    3loPI   PO4   36   3.353  10.475   9.856  0.2088  0.0887  0.1358
    3loPI   GL1   37   3.258  10.259   9.417  0.0315 -0.0668 -0.1600
    3loPI   GL2   38   3.067  10.357   9.062  0.1187 -0.1351  0.0381
    3loPI   C1A   39   3.499  10.038   9.131  0.2341 -0.1206  0.3045
    3loPI   C2A   40   3.709   9.899   8.846  0.0413 -0.0162  0.2601
    3loPI   C3A   41   3.851  10.005   8.558  0.2410  0.0818 -0.2610
    3loPI   C4A   42   3.695   9.974   8.200 -0.0002  0.1869 -0.0571
    3loPI   C5A   43   3.579  10.031   7.762  0.2661 -0.1203 -0.1111
    3loPI   C6A   44   3.445  10.247   7.471  0.3256 -0.0657 -0.2452
    3loPI   C1B   45   2.848  10.522   8.678  0.1623 -0.4760 -0.0295
    3loPI   C2B   46   2.833  10.572   8.218 -0.1708 -0.1945 -0.1740
    3loPI   C3B   47   2.873  10.512   7.730  0.1985  0.0971  0.2208
    3loPI   C4B   48   2.757  10.384   7.312  0.2450 -0.3156  0.5984
    4loPI    C1   49  12.462   0.191   9.320 -0.0692 -0.0332 -0.0728
    4loPI    C2   50  12.573  -0.193   9.341  0.0382  0.0037  0.0568
    4loPI    C3   51  12.841   0.096   9.407 -0.0363  0.1021 -0.0663
    4loPI   PO4   52  12.391   0.226   9.047 -0.1638 -0.1905 -0.2307
    4loPI   GL1   53  12.420   0.324   8.635  0.2239 -0.0023  0.0766
    4loPI   GL2   54  12.118   0.372   8.570  0.1210 -0.2802  0.2657
    4loPI   C1A   55  12.431   0.317   8.167  0.2324  0.1883 -0.0987
    4loPI   C2A   56  12.526   0.097   7.785  0.0051  0.3132 -0.0492
    4loPI   C3A   57  12.689   0.069   7.367  0.1941  0.0399 -0.0693
    4loPI   C4A   58  12.891   0.370   7.183 -0.0591  0.0410  0.0548
    4loPI   C5A   59  13.229   0.581   7.022 -0.2842 -0.1293  0.1030
    4loPI   C6A   60  13.369   1.006   6.940  0.1101  0.3186  0.0814
    4loPI   C1B   61  12.016   0.575   8.186 -0.0922  0.0253  0.3047
    4loPI   C2B   62  12.245   0.583   7.756 -0.2635  0.3501  0.0401
    4loPI   C3B   63  12.195   0.289   7.455 -0.1516  0.1306  0.2978
    4loPI   C4B   64  12.238   0.001   7.070  0.0640  0.1739  0.0018
    5loPI    C1   65   3.202  13.622  10.047  0.1062  0.1648  0.0783
    5loPI    C2   66   3.268  14.000   9.934 -0.1694  0.1799 -0.0399
    5loPI    C3   67   3.278  13.902  10.322  0.3171  0.2217 -0.0355
    5loPI   PO4   68   3.250  13.560   9.679 -0.1797 -0.3927 -0.3464
    5loPI   GL1   69   3.282  13.591   9.189  0.1035  0.0924  0.0500
    5loPI   GL2   70   3.527  13.691   9.341  0.0539  0.1934 -0.0574
    5loPI   C1A   71   3.208  13.745   8.797  0.0008 -0.3434  0.0730
    5loPI   C2A   72   3.116  14.055   8.445  0.2256  0.0862  0.1979
    5loPI   C3A   73   2.972  14.204   8.028 -0.2456 -0.0101  0.1569
    5loPI   C4A   74   2.729  13.893   7.657 -0.0153  0.0857 -0.2666
    5loPI   C5A   75   2.445  13.876   7.437  0.2528  0.1487 -0.1565
    5loPI   C6A   76   2.146  13.732   7.187 -0.1514  0.0668  0.3240
    5loPI   C1B   77   3.664  13.848   8.915  0.1348 -0.1009 -0.2154
    5loPI   C2B   78   3.594  13.962   8.489 -0.0522  0.0777  0.0954
    5loPI   C3B   79   3.530  13.879   8.070 -0.0344  0.1635 -0.1779
    5loPI   C4B   80   3.597  13.675   7.722  0.0802 -0.3982 -0.0279
    6loPI    C1   81  15.192  14.624   9.201 -0.1729 -0.0158  0.1081
    6loPI    C2   82  15.255  15.017   9.249  0.0411 -0.0142 -0.1635
    6loPI    C3   83  15.519  14.753   9.392 -0.0682 -0.0579 -0.0408
    6loPI   PO4   84  15.122  14.512   8.932 -0.3057  0.2502  0.3036
    6loPI   GL1   85  14.976  14.467   8.606 -0.1520  0.0348  0.2258
    6loPI   GL2   86  15.007  14.748   8.464 -0.0202  0.2303 -0.0940
    6loPI   C1A   87  14.863  14.395   8.133  0.2756 -0.0863 -0.0230
    6loPI   C2A   88  14.587  14.643   7.895  0.1982 -0.2307 -0.1092
    6loPI   C3A   89  14.539  14.761   7.475  0.0919 -0.1408  0.0453
    6loPI   C4A   90  14.422  14.888   6.993 -0.1029 -0.2119  0.2951
    6loPI   C5A   91  14.616  15.198   6.717  0.3777  0.0281  0.2556
    6loPI   C6A   92  14.793  15.381   6.329 -0.3445 -0.0102 -0.0903
    6loPI   C1B   93  14.738  15.036   8.190 -0.1132  0.1628 -0.2619
    6loPI   C2B   94  14.528  15.251   7.898 -0.2017 -0.4155  0.3244
    6loPI   C3B   95  14.530  15.270   7.467  0.1466  0.1432  0.2467
    6loPI   C4B   96  14.247  15.335   7.214 -0.1062 -0.3287 -0.3447
    7loPI    C1   97  11.286   8.306   9.929 -0.2025 -0.0303 -0.2563
    7loPI    C2   98  11.057   8.207  10.241 -0.1029  0.1363 -0.1287
    7loPI    C3   99  11.284   8.536  10.256  0.1558 -0.0343 -0.2476
    7loPI   PO4  100  11.552   8.223   9.827  0.2752  0.0238 -0.2128
    7loPI   GL1  101  11.595   8.313   9.481 -0.1351  0.0812 -0.0701
    7loPI   GL2  102  11.710   8.579   9.533 -0.0108 -0.1433 -0.1467
    7loPI   C1A  103  11.440   8.463   9.110  0.0774 -0.3484  0.3475
    7loPI   C2A  104  11.279   8.466   8.611 -0.0822  0.1301 -0.0669
    7loPI   C3A  105  11.083   8.443   8.276 -0.2653 -0.1295  0.3463
    7loPI   C4A  106  11.182   8.555   7.782 -0.1046  0.4493 -0.2672
    7loPI   C5A  107  10.991   8.603   7.393 -0.1403 -0.0325  0.3295
    7loPI   C6A  108  10.601   8.559   7.231 -0.1804  0.0827 -0.1491
    7loPI   C1B  109  11.882   8.405   9.113 -0.0657 -0.2757 -0.0840
    7loPI   C2B  110  11.987   8.547   8.710  0.0622 -0.4524  0.3628
    7loPI   C3B  111  12.085   8.912   8.529  0.3439 -0.1626  0.3304
    7loPI   C4B  112  11.994   8.920   8.087 -0.0850  0.2744  0.0419
    8loPI    C1  113   5.611  18.399   9.942  0.0303  0.1617 -0.0695
    8loPI    C2  114   5.536  18.583  10.289  0.1132  0.0528  0.0072
    8loPI    C3  115   5.897  18.613  10.121  0.1744 -0.1626  0.0971
    8loPI   PO4  116   5.467  18.477   9.699  0.0877  0.2506 -0.0449
    8loPI   GL1  117   5.418  18.513   9.265 -0.1140 -0.0725  0.0750
    8loPI   GL2  118   5.592  18.190   9.313  0.0855  0.4494  0.0171
    8loPI   C1A  119   5.363  18.812   8.870  0.0454  0.2256 -0.1400
    8loPI   C2A  120   5.296  18.829   8.438  0.2023 -0.0586 -0.0897
    8loPI   C3A  121   5.360  19.143   8.123 -0.2010 -0.0410  0.2400
    8loPI   C4A  122   5.446  19.453   7.712 -0.2915  0.0276  0.1500
    8loPI   C5A  123   5.392  19.734   7.303  0.0516 -0.1159 -0.2099
    8loPI   C6A  124   5.527  20.065   6.965  0.2527  0.2957 -0.0434
    8loPI   C1B  125   5.443  18.051   8.861 -0.3317  0.0927 -0.2628
    8loPI   C2B  126   5.449  17.889   8.381 -0.1106  0.2354  0.3010
    8loPI   C3B  127   5.590  17.799   8.012 -0.0048  0.0652  0.0366
    8loPI   C4B  128   5.533  17.911   7.464 -0.1865  0.1066 -0.0289
    9loPI    C1  129  10.794  12.302   9.712  0.0758 -0.1059 -0.1954
    9loPI    C2  130  10.937  12.614   9.918  0.1399 -0.0426 -0.3345
    9loPI    C3  131  10.787  12.298  10.112 -0.0715  0.1419 -0.1937
    9loPI   PO4  132  11.005  12.313   9.521  0.0743  0.5335 -0.0422
    9loPI   GL1  133  11.031  12.387   9.214 -0.0941  0.0462 -0.1572
    9loPI   GL2  134  10.854  12.129   9.020 -0.0352 -0.2475  0.0667
    9loPI   C1A  135  11.160  12.583   8.806  0.2064  0.0577  0.1983
    9loPI   C2A  136  11.347  12.557   8.381 -0.2190  0.2702 -0.4560
    9loPI   C3A  137  11.215  12.646   7.978 -0.2777 -0.1920 -0.1058
    9loPI   C4A  138  11.055  12.700   7.535 -0.0693 -0.1264 -0.0666
    9loPI   C5A  139  10.730  12.932   7.325  0.0565  0.1242  0.0663
    9loPI   C6A  140  10.526  13.251   7.502 -0.0191  0.1371  0.1970
    9loPI   C1B  141  11.060  12.032   8.595  0.0065 -0.0139 -0.0858
    9loPI   C2B  142  11.079  12.048   8.186  0.1353  0.3156 -0.0490
    9loPI   C3B  143  11.079  12.222   7.719 -0.0795 -0.0511 -0.3760
    9loPI   C4B  144  11.289  12.125   7.294 -0.1642 -0.0192 -0.2871
   10loPI    C1  145  18.870  12.696   9.658  0.2620  0.0188 -0.1740
   10loPI    C2  146  18.629  12.889   9.913  0.1667  0.1104 -0.3320
   10loPI    C3  147  18.949  12.692  10.051 -0.1195 -0.2007 -0.0944
   10loPI   PO4  148  19.026  12.853   9.447  0.1255  0.0530 -0.0120
   10loPI   GL1  149  19.103  13.167   9.126 -0.3260  0.0301  0.0612
   10loPI   GL2  150  18.823  13.188   8.999 -0.2968  0.2755 -0.0670
   10loPI   C1A  151  19.277  13.135   8.720  0.2735  0.1509  0.2845
   10loPI   C2A  152  19.325  13.222   8.223  0.0916  0.1910  0.0484
   10loPI   C3A  153  19.431  13.283   7.841  0.0115  0.1124 -0.3156
   10loPI   C4A  154  19.558  13.390   7.419  0.0090  0.0825 -0.2549
   10loPI   C5A  155  19.344  13.861   7.180 -0.0013 -0.1298 -0.0441
   10loPI   C6A  156  19.017  14.122   7.353  0.2661  0.1947  0.1907
   10loPI   C1B  157  18.460  13.339   8.679 -0.2857  0.2033  0.1173
   10loPI   C2B  158  18.272  13.455   8.244 -0.1420 -0.0855 -0.0748
   10loPI   C3B  159  18.130  13.554   7.810  0.1992 -0.2432  0.0613
   10loPI   C4B  160  18.025  13.870   7.534 -0.1269  0.0499  0.1821
   11loPI    C1  161   1.557  19.370  10.671 -0.0477  0.0686  0.0969
   11loPI    C2  162   1.318  19.051  10.706 -0.1566  0.0770 -0.4711
   11loPI    C3  163   1.238  19.384  10.912 -0.0573 -0.2424  0.1071
   11loPI   PO4  164   1.566  19.418  10.411 -0.0846 -0.1847 -0.0392
   11loPI   GL1  165   1.607  19.354   9.865  0.3045  0.1137  0.0980
   11loPI   GL2  166   1.770  19.142   9.730 -0.1534  0.0300 -0.0380
   11loPI   C1A  167   1.333  19.576   9.573  0.2315 -0.1726 -0.0444
   11loPI   C2A  168   1.239  19.751   9.199 -0.2064 -0.3180  0.2577
   11loPI   C3A  169   1.378  19.691   8.885  0.3537  0.2060  0.0135
   11loPI   C4A  170   1.095  19.861   8.550  0.0014 -0.0570  0.0558
   11loPI   C5A  171   0.945  19.857   8.105  0.3746  0.1863 -0.1793
   11loPI   C6A  172   0.869  20.070   7.811  0.1852 -0.3982  0.1343
   11loPI   C1B  173   1.670  19.271   9.367 -0.1098 -0.0314  0.0763
   11loPI   C2B  174   1.760  19.593   9.189  0.3074  0.2123  0.0359
   11loPI   C3B  175   2.039  19.773   9.011  0.1901 -0.0247  0.2868
   11loPI   C4B  176   1.686  19.887   8.559  0.0570 -0.4108 -0.1187
   12loPI    C1  177  17.388   6.987  10.353  0.0930 -0.1104  0.2149
   12loPI    C2  178  17.557   7.269  10.580  0.0364  0.0594  0.0495
   12loPI    C3  179  17.181   7.315  10.453 -0.0163 -0.1514  0.1253
   12loPI   PO4  180  17.572   7.071  10.112  0.4425  0.0611  0.1961
   12loPI   GL1  181  17.440   7.001   9.716  0.3171 -0.3594 -0.1141
   12loPI   GL2  182  17.671   6.961   9.500  0.0292 -0.1397 -0.1963
   12loPI   C1A  183  17.094   6.745   9.540 -0.3678  0.0397 -0.2561
   12loPI   C2A  184  16.923   6.500   9.226 -0.0934  0.1335  0.4767
   12loPI   C3A  185  17.023   6.427   8.742  0.3524 -0.1420  0.0056
   12loPI   C4A  186  16.791   6.409   8.328  0.0341  0.3174  0.0620
   12loPI   C5A  187  16.548   6.216   7.933 -0.1637 -0.0214 -0.1719
   12loPI   C6A  188  16.385   6.016   7.567 -0.0959 -0.0219  0.4027
   12loPI   C1B  189  17.802   6.934   9.152 -0.0876  0.1901 -0.3078
   12loPI   C2B  190  17.704   6.829   8.723 -0.1128 -0.0864 -0.2120
   12loPI   C3B  191  17.714   6.657   8.241  0.2045 -0.2528 -0.0607
   12loPI   C4B  192  17.553   6.578   7.879  0.0976  0.0482  0.2835
   13loPI    C1  193   6.707  12.789   9.189  0.1817  0.0974 -0.0752
   13loPI    C2  194   6.692  12.521   9.486  0.0259  0.2025  0.0133
   13loPI    C3  195   6.847  12.419   9.131  0.0541  0.0244  0.0759
   13loPI   PO4  196   6.855  13.050   9.245 -0.3746  0.1677 -0.0392
   13loPI   GL1  197   7.071  13.219   8.989  0.0554  0.2912  0.0246
   13loPI   GL2  198   7.297  13.266   8.849 -0.2582 -0.2579 -0.4114
   13loPI   C1A  199   7.135  13.751   8.863 -0.0748 -0.0077  0.1471
   13loPI   C2A  200   6.996  13.879   8.384  0.4026  0.1038  0.0674
   13loPI   C3A  201   7.093  13.994   7.921 -0.1624 -0.0924 -0.0103
   13loPI   C4A  202   7.164  13.762   7.509  0.2018  0.4009  0.2037
   13loPI   C5A  203   7.012  13.806   7.044  0.3890  0.2795 -0.0460
   13loPI   C6A  204   6.607  13.862   7.013  0.0034  0.3748 -0.0824
   13loPI   C1B  205   6.880  13.379   8.577  0.1900  0.0560  0.0749
   13loPI   C2B  206   6.529  13.157   8.435  0.0017 -0.0665  0.3904
   13loPI   C3B  207   6.295  12.764   8.621  0.0515  0.3172 -0.2958
   13loPI   C4B  208   5.901  12.818   8.729  0.2683 -0.4022 -0.0535
   14loPI    C1  209  12.964  16.794   9.851 -0.3098  0.1768  0.0284
   14loPI    C2  210  13.201  17.093   9.970 -0.2155  0.0549  0.1490
   14loPI    C3  211  13.008  16.870  10.241 -0.1405 -0.1100  0.0684
   14loPI   PO4  212  12.805  16.899   9.650 -0.0016 -0.3423  0.2367
   14loPI   GL1  213  12.789  16.946   9.184 -0.0687 -0.2393 -0.0609
   14loPI   GL2  214  13.053  17.159   9.005  0.0315 -0.0451 -0.0286
   14loPI   C1A  215  12.865  16.768   8.780 -0.0979 -0.1609  0.1753
   14loPI   C2A  216  12.942  16.754   8.395  0.0130 -0.1434  0.1615
   14loPI   C3A  217  12.904  16.809   7.969  0.0215  0.0700 -0.1430
   14loPI   C4A  218  13.041  16.909   7.547 -0.2031 -0.2903 -0.2141
   14loPI   C5A  219  13.188  16.996   7.109 -0.0391 -0.1460  0.1253
   14loPI   C6A  220  13.365  17.189   6.851  0.1655  0.0970 -0.0400
   14loPI   C1B  221  13.130  17.171   8.527  0.1800 -0.1964  0.2767
   14loPI   C2B  222  13.046  17.373   8.138 -0.2215 -0.0232  0.1241
   14loPI   C3B  223  12.993  17.387   7.674 -0.1182 -0.1041 -0.1088
   14loPI   C4B  224  13.156  17.490   7.329  0.0326 -0.0121  0.0871
   15loPI    C1  225   7.777  15.916   9.826 -0.1852 -0.2137  0.0375
   15loPI    C2  226   7.912  15.573   9.981  0.3154 -0.0501 -0.0195
   15loPI    C3  227   8.061  15.922  10.107  0.1132  0.1273 -0.2621
   15loPI   PO4  228   7.779  15.817   9.565 -0.0067  0.1172 -0.0175
   15loPI   GL1  229   7.833  16.022   9.179 -0.3110 -0.0233 -0.1072
   15loPI   GL2  230   7.570  16.331   9.058 -0.1191  0.0207 -0.0329
   15loPI   C1A  231   7.841  16.094   8.682 -0.4572 -0.0216  0.2557
   15loPI   C2A  232   7.593  16.300   8.272  0.0956 -0.1206  0.1787
   15loPI   C3A  233   7.650  16.246   7.911 -0.2982  0.3046  0.0989
   15loPI   C4A  234   8.063  16.340   7.675  0.2514 -0.1325 -0.0434
   15loPI   C5A  235   8.075  16.356   7.173 -0.3211 -0.1291 -0.0681
   15loPI   C6A  236   7.925  16.457   6.810  0.1464 -0.1522 -0.1844
   15loPI   C1B  237   7.703  16.633   8.755 -0.4191  0.2684  0.1683
   15loPI   C2B  238   7.699  16.836   8.357 -0.1724  0.0840  0.0336
   15loPI   C3B  239   7.669  16.803   7.955  0.0615 -0.0179  0.3227
   15loPI   C4B  240   7.323  16.635   7.799 -0.1360 -0.1322 -0.0030
   16loPI    C1  241   4.146  13.192   9.490 -0.1813 -0.1320  0.0216
   16loPI    C2  242   4.120  13.257   9.884 -0.0882 -0.2214  0.0428
   16loPI    C3  243   4.457  13.110   9.727  0.0571  0.2804 -0.1365
   16loPI   PO4  244   4.113  13.442   9.368  0.1754 -0.3346 -0.0456
   16loPI   GL1  245   4.040  13.439   8.966  0.1557  0.2402  0.1643
   16loPI   GL2  246   4.347  13.686   8.993  0.2330 -0.2646 -0.0451
   16loPI   C1A  247   3.948  13.569   8.578  0.1786 -0.2379 -0.0883
   16loPI   C2A  248   3.925  13.517   8.070 -0.1550 -0.3358  0.1734
   16loPI   C3A  249   4.198  13.571   7.793 -0.0366  0.3780  0.3195
   16loPI   C4A  250   4.439  13.612   7.456  0.1927  0.2245 -0.0523
   16loPI   C5A  251   4.373  13.435   6.922 -0.0775 -0.1399 -0.1372
   16loPI   C6A  252   4.529  13.200   6.541  0.1543 -0.2481 -0.3005
   16loPI   C1B  253   4.342  13.982   8.772  0.0513 -0.3036  0.3526
   16loPI   C2B  254   4.382  14.386   8.431  0.1004 -0.0425 -0.0205
   16loPI   C3B  255   4.184  14.479   8.012  0.1111  0.1299  0.1722
   16loPI   C4B  256   3.883  14.690   7.971  0.1222  0.2070  0.2805
   17loPI    C1  257   2.520   5.370  10.292  0.2487  0.1281 -0.1849
   17loPI    C2  258   2.821   5.482  10.531  0.0522 -0.0200  0.1394
   17loPI    C3  259   2.601   5.161  10.623 -0.1210  0.0065 -0.1667
   17loPI   PO4  260   2.419   5.604  10.233 -0.1797 -0.1124  0.0301
   17loPI   GL1  261   2.367   5.737   9.804 -0.2218  0.1825 -0.1690
   17loPI   GL2  262   2.625   5.996   9.851  0.0839 -0.1465  0.0554
   17loPI   C1A  263   2.356   5.528   9.427 -0.0137 -0.2053 -0.0235
   17loPI   C2A  264   2.218   5.429   8.946  0.1449  0.0637 -0.0743
   17loPI   C3A  265   1.985   5.532   8.555  0.1941  0.1194 -0.0053
   17loPI   C4A  266   1.699   5.513   8.126  0.1098 -0.1993 -0.1954
   17loPI   C5A  267   1.301   5.451   7.840  0.2870  0.2159  0.3914
   17loPI   C6A  268   0.993   5.316   7.973  0.0622  0.2297 -0.2271
   17loPI   C1B  269   2.383   6.081   9.428 -0.2271  0.3353  0.1009
   17loPI   C2B  270   2.157   5.955   9.108 -0.3823 -0.0966  0.2452
   17loPI   C3B  271   2.312   5.856   8.687  0.2131 -0.0059 -0.0789
   17loPI   C4B  272   2.604   5.631   8.422 -0.0537 -0.1901  0.2344
   18loPI    C1  273  14.230   7.407   9.484 -0.2910  0.0967  0.0735
   18loPI    C2  274  14.301   7.098   9.727 -0.2187  0.0071 -0.0599
   18loPI    C3  275  13.977   7.326   9.782 -0.3291 -0.1564 -0.0251
   18loPI   PO4  276  14.267   7.277   9.232 -0.4573  0.2256  0.0540
   18loPI   GL1  277  14.286   6.887   8.979  0.0541  0.1945 -0.3244
   18loPI   GL2  278  14.584   7.122   8.812  0.4334 -0.0520  0.0917
   18loPI   C1A  279  14.169   6.893   8.599 -0.1267  0.2899  0.2320
   18loPI   C2A  280  14.021   6.952   8.188 -0.1021 -0.3858 -0.1522
   18loPI   C3A  281  14.028   6.936   7.739 -0.1877 -0.1767 -0.4925
   18loPI   C4A  282  13.718   6.959   7.407  0.1756 -0.0350 -0.0311
   18loPI   C5A  283  13.371   6.764   7.162  0.0793  0.0553  0.3166
   18loPI   C6A  284  13.355   6.456   6.820 -0.3147  0.2242 -0.0544
   18loPI   C1B  285  14.676   7.065   8.349  0.0822 -0.2454  0.0713
   18loPI   C2B  286  14.670   7.045   7.962  0.2371 -0.0520  0.0437
   18loPI   C3B  287  14.871   6.864   7.496 -0.0671  0.2531 -0.2314
   18loPI   C4B  288  15.281   6.751   7.372 -0.0399  0.0726  0.4678
   19loPI    C1  289   0.316   1.906  10.385  0.0605 -0.2930 -0.2381
   19loPI    C2  290   0.394   2.150  10.692 -0.2925 -0.0388 -0.3440
   19loPI    C3  291   0.385   1.754  10.749  0.0189 -0.0167 -0.1125
   19loPI   PO4  292   0.115   2.042  10.242  0.3877 -0.3286 -0.1200
   19loPI   GL1  293  -0.018   2.071   9.845 -0.2114 -0.0706 -0.4283
   19loPI   GL2  294  -0.141   2.374   9.936  0.0901  0.1374  0.2706
   19loPI   C1A  295   0.314   2.079   9.547  0.3557  0.0868  0.3485
   19loPI   C2A  296   0.519   1.942   9.126 -0.0500 -0.1959  0.3983
   19loPI   C3A  297   0.470   2.066   8.672 -0.2684 -0.1189  0.1328
   19loPI   C4A  298   0.331   2.321   8.249 -0.1237  0.1200  0.1131
   19loPI   C5A  299   0.516   2.824   8.103 -0.2437  0.0152  0.1253
   19loPI   C6A  300   0.730   3.142   7.952 -0.0700 -0.2011  0.0133
   19loPI   C1B  301  -0.097   2.422   9.453  0.1666 -0.1891  0.0219
   19loPI   C2B  302   0.067   2.167   9.088  0.3501  0.0067  0.0741
   19loPI   C3B  303  -0.042   2.120   8.750  0.0753  0.4172  0.0654
   19loPI   C4B  304  -0.039   1.762   8.656  0.1342 -0.2472  0.1028
   20loPI    C1  305  16.514   0.812   9.754 -0.0484  0.2714  0.0056
   20loPI    C2  306  16.614   0.663  10.111 -0.2057  0.0029 -0.0600
   20loPI    C3  307  16.276   0.872  10.070 -0.1534  0.0919 -0.0381
   20loPI   PO4  308  16.769   0.842   9.699  0.1210  0.1573 -0.0385
   20loPI   GL1  309  17.034   0.753   9.359  0.1449 -0.1979 -0.0015
   20loPI   GL2  310  17.196   1.036   9.383 -0.0122  0.1945 -0.0470
   20loPI   C1A  311  17.138   0.765   8.846 -0.0989  0.0197 -0.1374
   20loPI   C2A  312  17.086   0.698   8.372  0.1044 -0.0809 -0.1605
   20loPI   C3A  313  16.734   0.789   8.077  0.2418 -0.0702 -0.1121
   20loPI   C4A  314  16.871   0.808   7.609  0.2111 -0.1246 -0.2639
   20loPI   C5A  315  16.763   0.812   7.150 -0.1501  0.0200 -0.1918
   20loPI   C6A  316  16.484   0.655   6.963  0.0723  0.3756  0.1588
   20loPI   C1B  317  17.304   1.242   9.006 -0.1918 -0.1084 -0.2613
   20loPI   C2B  318  17.475   1.170   8.604  0.0205 -0.0269 -0.0372
   20loPI   C3B  319  17.427   1.056   8.147  0.1932  0.2820 -0.0962
   20loPI   C4B  320  17.310   0.750   7.861  0.0236  0.1716 -0.2127
   21loPI    C1  321  11.547  17.325   9.486 -0.1661 -0.0560  0.2002
   21loPI    C2  322  11.216  17.392   9.700 -0.0803  0.2466  0.2413
   21loPI    C3  323  11.432  17.061   9.764 -0.4899 -0.0630  0.0634
   21loPI   PO4  324  11.573  17.215   9.152  0.0850  0.0035  0.1645
   21loPI   GL1  325  11.851  17.302   8.773  0.1429 -0.1514  0.2212
   21loPI   GL2  326  11.808  17.639   8.763 -0.0684 -0.1322  0.0677
   21loPI   C1A  327  11.626  16.919   8.521 -0.0896 -0.3044  0.1999
   21loPI   C2A  328  11.598  16.899   8.039 -0.0379 -0.2664  0.4410
   21loPI   C3A  329  11.484  16.864   7.621  0.0424  0.0835  0.0809
   21loPI   C4A  330  11.367  16.737   7.179 -0.1315  0.3016 -0.0586
   21loPI   C5A  331  11.453  16.577   6.680  0.1041  0.2498 -0.2593
   21loPI   C6A  332  11.292  16.528   6.208 -0.1681  0.2895  0.5667
   21loPI   C1B  333  11.795  17.518   8.347 -0.3602 -0.1421 -0.1686
   21loPI   C2B  334  11.745  17.328   7.962  0.2098  0.1411  0.0080
   21loPI   C3B  335  11.614  17.377   7.500 -0.1145  0.0707  0.1985
   21loPI   C4B  336  11.676  17.467   7.054  0.1891 -0.0172 -0.0161
   22loPI    C1  337  12.094   6.580   9.535  0.0491  0.0295  0.0656
   22loPI    C2  338  11.886   6.248   9.617 -0.0240  0.0265 -0.1280
   22loPI    C3  339  11.802   6.589   9.809 -0.0600 -0.0273 -0.0480
   22loPI   PO4  340  12.303   6.565   9.519 -0.0244  0.1064 -0.2344
   22loPI   GL1  341  12.481   6.488   9.146 -0.0077 -0.1519 -0.3324
   22loPI   GL2  342  12.735   6.658   9.070 -0.1556 -0.5337 -0.3914
   22loPI   C1A  343  12.292   6.554   8.827  0.3435  0.1425 -0.1733
   22loPI   C2A  344  12.125   6.591   8.417  0.1417  0.0266 -0.1835
   22loPI   C3A  345  12.240   6.744   8.116  0.3609  0.1147 -0.1322
   22loPI   C4A  346  12.259   6.725   7.611  0.2000 -0.2223  0.0175
   22loPI   C5A  347  11.974   6.849   7.461  0.1470 -0.0744 -0.1699
   22loPI   C6A  348  11.840   6.538   7.162  0.0139  0.0224 -0.1010
   22loPI   C1B  349  12.881   6.855   8.658 -0.2130  0.3508 -0.2614
   22loPI   C2B  350  13.068   7.000   8.306 -0.1447  0.0282  0.1693
   22loPI   C3B  351  12.945   7.193   7.916 -0.2126  0.4255  0.4650
   22loPI   C4B  352  12.795   7.465   7.600 -0.0641 -0.1344  0.0425
   23loPI    C1  353   6.794   7.316  10.228  0.0238 -0.0976  0.0560
   23loPI    C2  354   6.577   7.362  10.561  0.0978 -0.0375  0.0964
   23loPI    C3  355   6.742   7.008  10.477 -0.0565 -0.0972  0.0401
   23loPI   PO4  356   6.708   7.450  10.039  0.0652 -0.0511  0.2241
   23loPI   GL1  357   6.436   7.375   9.705 -0.0542  0.1464 -0.0151
   23loPI   GL2  358   6.640   7.099   9.515  0.1745  0.0272  0.1810
   23loPI   C1A  359   6.160   7.354   9.378  0.0984 -0.0863 -0.1346
   23loPI   C2A  360   6.204   7.459   8.968  0.2017  0.1160 -0.1777
   23loPI   C3A  361   6.546   7.725   8.832  0.3848  0.2695 -0.2217
   23loPI   C4A  362   6.454   8.093   8.522 -0.0005 -0.2625 -0.0763
   23loPI   C5A  363   6.110   8.086   8.252  0.2057 -0.0017  0.2218
   23loPI   C6A  364   5.915   8.094   7.878  0.1725  0.2506 -0.0248
   23loPI   C1B  365   6.598   7.188   9.078 -0.1825 -0.1115 -0.2170
   23loPI   C2B  366   6.513   7.070   8.722  0.0590  0.0111  0.3378
   23loPI   C3B  367   6.437   6.825   8.330  0.1072 -0.0081  0.0431
   23loPI   C4B  368   6.394   6.413   8.083 -0.0465  0.2108  0.0951
   24loPI    C1  369   6.665   3.062  10.131  0.0439  0.1782 -0.0873
   24loPI    C2  370   6.996   3.270  10.217  0.1660  0.0349 -0.2032
   24loPI    C3  371   6.908   2.940  10.424 -0.0349  0.2065 -0.0100
   24loPI   PO4  372   6.608   3.062   9.845 -0.0695  0.1368 -0.0034
   24loPI   GL1  373   6.876   3.036   9.474  0.2758  0.1449 -0.3609
   24loPI   GL2  374   7.055   2.726   9.343  0.0076 -0.2004  0.0887
   24loPI   C1A  375   6.918   3.437   9.184  0.1080 -0.1262  0.0655
   24loPI   C2A  376   6.933   3.539   8.724 -0.1339  0.0809 -0.1375
   24loPI   C3A  377   6.944   3.748   8.359 -0.3186  0.1129  0.2715
   24loPI   C4A  378   6.964   4.062   8.012  0.1670 -0.3244  0.3638
   24loPI   C5A  379   6.796   3.915   7.625 -0.1627  0.0927  0.1610
   24loPI   C6A  380   6.632   3.475   7.326  0.1025  0.2071 -0.0525
   24loPI   C1B  381   7.109   2.978   8.944 -0.4189  0.1183  0.0428
   24loPI   C2B  382   7.275   2.997   8.540 -0.3761 -0.2737 -0.0359
   24loPI   C3B  383   7.351   3.085   8.139 -0.0812 -0.1505 -0.0081
   24loPI   C4B  384   7.184   3.184   7.820  0.1917 -0.0198  0.0943
   25loPI    C1  385  11.968   2.056   9.473 -0.1272 -0.1469 -0.1793
   25loPI    C2  386  11.717   1.938   9.760 -0.2528  0.0548 -0.2050
   25loPI    C3  387  12.085   2.061   9.855 -0.1772 -0.1980 -0.1631
   25loPI   PO4  388  11.887   1.974   9.261  0.0691  0.1995 -0.0136
   25loPI   GL1  389  11.653   2.092   8.929 -0.0915  0.1460  0.0829
   25loPI   GL2  390  11.890   2.215   8.810  0.0951 -0.0312  0.3391
   25loPI   C1A  391  11.366   2.301   8.687  0.3864  0.0730 -0.2076
   25loPI   C2A  392  11.358   2.469   8.313  0.0462 -0.1055 -0.1268
   25loPI   C3A  393  11.323   2.267   7.849  0.0684 -0.1420 -0.1618
   25loPI   C4A  394  11.139   1.906   7.682  0.1039 -0.4889  0.0805
   25loPI   C5A  395  10.748   1.884   7.617 -0.0720  0.0732  0.1023
   25loPI   C6A  396  10.503   1.934   7.903 -0.0503  0.1678  0.0987
   25loPI   C1B  397  11.892   2.393   8.393  0.0720  0.1169 -0.1942
   25loPI   C2B  398  11.874   2.299   7.836  0.1461 -0.0228 -0.1225
   25loPI   C3B  399  11.953   2.423   7.471 -0.1878  0.1265  0.1167
   25loPI   C4B  400  12.228   2.284   7.082  0.5403 -0.1403 -0.2412
   26loPI    C1  401  14.406  11.571   9.298  0.1873  0.0161  0.1422
   26loPI    C2  402  14.576  11.845   9.535  0.2611 -0.0229  0.1349
   26loPI    C3  403  14.366  11.960   9.215  0.1996  0.0284  0.1933
   26loPI   PO4  404  14.556  11.417   9.258 -0.1768 -0.0932 -0.0643
   26loPI   GL1  405  14.801  11.135   8.969  0.1409  0.0118 -0.0065
   26loPI   GL2  406  15.158  10.951   8.948  0.1677 -0.0624 -0.2128
   26loPI   C1A  407  14.759  11.164   8.565  0.0500 -0.1137  0.0287
   26loPI   C2A  408  14.882  11.077   8.201  0.1945 -0.1028  0.0733
   26loPI   C3A  409  14.997  11.227   7.742  0.1426 -0.1664 -0.1106
   26loPI   C4A  410  15.125  11.177   7.327 -0.2700 -0.3117 -0.1706
   26loPI   C5A  411  14.765  11.307   6.996 -0.0239 -0.4995  0.0467
   26loPI   C6A  412  14.444  11.287   6.593  0.1490  0.2210 -0.0440
   26loPI   C1B  413  15.072  10.663   8.564 -0.0499 -0.1676  0.1911
   26loPI   C2B  414  15.171  10.573   8.111  0.4396  0.0075 -0.0699
   26loPI   C3B  415  15.223  10.456   7.690  0.0497  0.0211 -0.0253
   26loPI   C4B  416  15.472  10.349   7.322  0.2759 -0.1247 -0.2675
   27loPI    C1  417   0.203  11.695   9.497 -0.1647  0.0675 -0.0802
   27loPI    C2  418  -0.055  11.971   9.627 -0.0144  0.1881 -0.0359
   27loPI    C3  419   0.337  12.016   9.694 -0.0027 -0.1183  0.1171
   27loPI   PO4  420   0.099  11.594   9.260  0.1122 -0.2758  0.2480
   27loPI   GL1  421  -0.100  11.502   8.874  0.2691  0.0578 -0.1098
   27loPI   GL2  422   0.172  11.672   8.725 -0.2161  0.0007  0.3424
   27loPI   C1A  423  -0.315  11.722   8.648  0.1595  0.3544  0.1965
   27loPI   C2A  424  -0.313  11.919   8.243 -0.0091  0.5324 -0.0845
   27loPI   C3A  425  -0.357  11.906   7.819 -0.1293 -0.0675  0.0871
   27loPI   C4A  426  -0.298  11.948   7.389  0.1545 -0.0230  0.4440
   27loPI   C5A  427  -0.035  11.863   7.020  0.1207  0.0953  0.1069
   27loPI   C6A  428   0.138  11.586   6.811  0.5007  0.4366  0.0267
   27loPI   C1B  429  -0.026  11.493   8.256 -0.2174 -0.2981  0.1647
   27loPI   C2B  430  -0.185  11.423   7.876 -0.0203 -0.0676 -0.0483
   27loPI   C3B  431  -0.272  11.087   7.637 -0.0903  0.2797 -0.0898
   27loPI   C4B  432  -0.421  10.648   7.562 -0.4254  0.0078  0.1091
   28loPI    C1  433   8.665   6.568   9.951  0.0475  0.2390 -0.1913
   28loPI    C2  434   8.794   6.220  10.101 -0.4486  0.1591  0.0714
   28loPI    C3  435   9.014   6.415   9.829 -0.0698 -0.2563  0.0691
   28loPI   PO4  436   8.396   6.602   9.873  0.0755 -0.1234  0.2032
   28loPI   GL1  437   8.315   7.012   9.536  0.3251  0.1558  0.1103
   28loPI   GL2  438   8.218   6.704   9.387 -0.0959  0.2658 -0.0204
   28loPI   C1A  439   8.256   7.214   9.120  0.0279 -0.5535  0.0425
   28loPI   C2A  440   7.975   7.229   8.678 -0.1007  0.0721  0.0046
   28loPI   C3A  441   7.783   7.088   8.242  0.3398  0.4635  0.0257
   28loPI   C4A  442   7.820   6.856   7.907  0.0385 -0.0882  0.0059
   28loPI   C5A  443   7.717   6.706   7.583 -0.0677 -0.2118 -0.0687
   28loPI   C6A  444   7.419   6.744   7.193  0.0934  0.1072  0.3903
   28loPI   C1B  445   8.304   6.721   8.871 -0.3491  0.0808 -0.1913
   28loPI   C2B  446   8.265   6.861   8.468 -0.0423  0.0655 -0.0305
   28loPI   C3B  447   8.296   6.641   8.073  0.0032 -0.0049  0.1856
   28loPI   C4B  448   8.141   6.472   7.651  0.3778  0.0099  0.1864
   29loPI    C1  449  10.238  15.456   9.959 -0.0238 -0.0800 -0.0651
   29loPI    C2  450   9.956  15.724  10.049 -0.0079 -0.1174  0.0989
   29loPI    C3  451   9.944  15.359  10.211  0.1734 -0.0962  0.1626
   29loPI   PO4  452  10.244  15.254   9.741  0.4098  0.0826 -0.5046
   29loPI   GL1  453  10.185  15.110   9.323  0.0457 -0.2145  0.2649
   29loPI   GL2  454  10.099  14.740   9.330 -0.1744  0.2343  0.0455
   29loPI   C1A  455  10.300  15.222   8.880  0.1110 -0.0260  0.1678
   29loPI   C2A  456  10.350  15.383   8.505  0.1416  0.2549 -0.2487
   29loPI   C3A  457  10.119  15.495   8.253  0.1280 -0.3593 -0.0303
   29loPI   C4A  458  10.025  15.239   7.867 -0.1109 -0.2683 -0.0212
   29loPI   C5A  459   9.990  15.150   7.450 -0.1164  0.0678 -0.0473
   29loPI   C6A  460  10.025  15.451   7.100  0.0525 -0.0934  0.2420
   29loPI   C1B  461  10.028  14.810   8.824  0.1252 -0.1005  0.1208
   29loPI   C2B  462  10.200  14.929   8.435  0.0058 -0.0194  0.1005
   29loPI   C3B  463  10.291  14.716   8.033 -0.2909  0.4005 -0.3125
   29loPI   C4B  464  10.016  14.609   7.620  0.2433  0.1163 -0.0365
   30loPI    C1  465   7.476  11.344   9.523  0.2635 -0.3422 -0.2158
   30loPI    C2  466   7.783  11.381   9.778  0.3764 -0.3410 -0.3505
   30loPI    C3  467   7.507  11.097   9.836 -0.0044  0.1157  0.1866
   30loPI   PO4  468   7.585  11.290   9.238 -0.0084  0.1820  0.1384
   30loPI   GL1  469   7.339  11.204   8.959  0.2351  0.1784  0.0533
   30loPI   GL2  470   7.035  11.343   8.952  0.0314  0.1984 -0.1594
   30loPI   C1A  471   7.501  11.115   8.563  0.3022 -0.0288  0.1052
   30loPI   C2A  472   7.563  11.180   8.066  0.0577 -0.1830 -0.0079
   30loPI   C3A  473   7.372  11.385   7.765 -0.1295  0.1022 -0.3053
   30loPI   C4A  474   7.169  11.208   7.398  0.2826  0.2422 -0.0471
   30loPI   C5A  475   7.172  10.985   7.022  0.1553 -0.0235 -0.0958
   30loPI   C6A  476   7.196  11.045   6.525  0.0859  0.0427 -0.1503
   30loPI   C1B  477   6.970  11.153   8.456 -0.1916 -0.2590 -0.0993
   30loPI   C2B  478   7.011  11.105   8.001  0.0243 -0.1756 -0.3986
   30loPI   C3B  479   6.856  10.807   7.630 -0.4806  0.0056  0.1810
   30loPI   C4B  480   6.909  10.569   7.227  0.1184 -0.0854 -0.1359
   31loPI    C1  481   8.623  13.593   9.777 -0.2119 -0.0023  0.3674
   31loPI    C2  482   8.946  13.791   9.906  0.0532 -0.1630 -0.0324
   31loPI    C3  483   8.727  13.577  10.163  0.2017  0.0328  0.2621
   31loPI   PO4  484   8.740  13.540   9.475  0.2876 -0.2181  0.0051
   31loPI   GL1  485   8.738  13.870   9.266 -0.0440  0.0634 -0.0731
   31loPI   GL2  486   8.640  13.638   8.980  0.0380 -0.0115 -0.0180
   31loPI   C1A  487   8.925  14.037   8.915 -0.1729 -0.0376 -0.0688
   31loPI   C2A  488   8.945  14.115   8.453 -0.2085 -0.1488 -0.0314
   31loPI   C3A  489   9.001  14.164   7.964 -0.0768  0.1119  0.1555
   31loPI   C4A  490   8.963  14.284   7.487 -0.3714  0.2547 -0.2867
   31loPI   C5A  491   9.039  14.494   7.042 -0.0646 -0.0524 -0.0445
   31loPI   C6A  492   9.034  14.953   7.111 -0.0725 -0.0754  0.0618
   31loPI   C1B  493   8.853  13.631   8.552  0.1131 -0.1734 -0.0013
   31loPI   C2B  494   8.767  13.724   8.113 -0.1289 -0.1723  0.1217
   31loPI   C3B  495   8.769  13.715   7.769 -0.2816 -0.1321  0.2474
   31loPI   C4B  496   9.057  13.691   7.320 -0.1512  0.1787 -0.2867
   32loPI    C1  497   2.668  18.239  10.139 -0.0074  0.2391  0.2728
   32loPI    C2  498   3.067  18.210  10.147  0.0042  0.3108  0.0289
   32loPI    C3  499   2.846  17.995  10.402  0.1799 -0.1028 -0.1584
   32loPI   PO4  500   2.622  18.214   9.875 -0.0911 -0.0206 -0.2759
   32loPI   GL1  501   2.684  18.297   9.441  0.1690  0.1194  0.3970
   32loPI   GL2  502   2.320  18.309   9.398 -0.0259  0.0005 -0.0355
   32loPI   C1A  503   2.642  17.974   9.152 -0.2598  0.0456 -0.1924
   32loPI   C2A  504   2.367  17.803   8.737 -0.1894 -0.0133  0.1913
   32loPI   C3A  505   2.126  17.726   8.406 -0.1932  0.0831 -0.0006
   32loPI   C4A  506   1.729  17.844   8.123  0.0657  0.1687  0.1205
   32loPI   C5A  507   1.297  17.681   7.846  0.0557  0.2210  0.0619
   32loPI   C6A  508   1.042  17.330   7.689 -0.4224 -0.2208 -0.2019
   32loPI   C1B  509   2.131  18.586   9.148 -0.1069 -0.3584  0.1178
   32loPI   C2B  510   2.241  18.587   8.694 -0.0941 -0.1174  0.0084
   32loPI   C3B  511   2.546  18.226   8.605  0.3412 -0.1617 -0.0373
   32loPI   C4B  512   2.867  17.956   8.678  0.0565  0.2036 -0.2293
   33loPI    C1  513  12.949   1.159   9.155  0.0559 -0.4678 -0.0941
   33loPI    C2  514  12.791   0.944   9.453 -0.0098  0.1920  0.3686
   33loPI    C3  515  13.166   1.080   9.482  0.1295 -0.0847 -0.0458
   33loPI   PO4  516  12.893   0.982   8.954  0.0819 -0.2222 -0.1135
   33loPI   GL1  517  12.714   1.170   8.671 -0.0995 -0.1463 -0.3909
   33loPI   GL2  518  12.412   1.276   8.660 -0.0512 -0.2311  0.0509
   33loPI   C1A  519  12.921   1.189   8.193 -0.0857  0.5425  0.1644
   33loPI   C2A  520  12.924   1.293   7.883  0.2306 -0.3141 -0.3334
   33loPI   C3A  521  12.847   1.262   7.510  0.1502  0.0742 -0.2684
   33loPI   C4A  522  12.466   1.330   7.255 -0.1943 -0.0075  0.4094
   33loPI   C5A  523  12.044   1.149   7.186  0.0836  0.4680  0.0923
   33loPI   C6A  524  11.668   1.089   6.914 -0.0978 -0.0808  0.0267
   33loPI   C1B  525  12.440   1.275   8.190  0.1709 -0.2885  0.0356
   33loPI   C2B  526  12.474   1.445   7.785 -0.1583 -0.1738 -0.2462
   33loPI   C3B  527  12.723   1.748   7.469  0.3836  0.1573 -0.0471
   33loPI   C4B  528  12.749   2.082   7.287  0.2018  0.1013 -0.3171
   34loPI    C1  529   2.316  12.728   9.709  0.1958  0.0298  0.2085
   34loPI    C2  530   1.932  12.743   9.822  0.1262 -0.1052 -0.0029
   34loPI    C3  531   2.163  13.069   9.852 -0.0604  0.0345 -0.0673
   34loPI   PO4  532   2.224  12.553   9.500  0.2661  0.4056 -0.2980
   34loPI   GL1  533   1.997  12.361   9.173  0.0682  0.0528 -0.0167
   34loPI   GL2  534   2.136  12.218   8.945  0.1273 -0.2928 -0.0940
   34loPI   C1A  535   1.760  12.599   8.824  0.1391 -0.1548  0.1988
   34loPI   C2A  536   1.689  12.804   8.406  0.0643  0.3097  0.1401
   34loPI   C3A  537   1.764  13.015   8.055 -0.0747 -0.0097 -0.0945
   34loPI   C4A  538   1.762  12.888   7.586 -0.3353 -0.0233 -0.1575
   34loPI   C5A  539   1.878  12.802   7.229  0.0170 -0.0291  0.1895
   34loPI   C6A  540   2.229  12.570   6.900 -0.1462 -0.1659 -0.0093
   34loPI   C1B  541   2.161  12.380   8.450  0.0406  0.4349 -0.1160
   34loPI   C2B  542   1.947  12.447   8.073  0.0153  0.3671 -0.0721
   34loPI   C3B  543   1.604  12.542   7.866 -0.1084  0.1212  0.0830
   34loPI   C4B  544   1.417  12.348   7.644 -0.1654  0.2708 -0.0901
   35loPI    C1  545  16.448   8.759   9.660 -0.0772 -0.0084 -0.0140
   35loPI    C2  546  16.595   8.657  10.017  0.0353 -0.0522 -0.0725
   35loPI    C3  547  16.343   8.965   9.986  0.2132  0.1041  0.0108
   35loPI   PO4  548  16.614   8.483   9.538 -0.1081 -0.0606 -0.0464
   35loPI   GL1  549  16.994   8.278   9.289 -0.1898  0.2578  0.0066
   35loPI   GL2  550  17.084   8.648   9.322  0.0336  0.0373  0.0008
   35loPI   C1A  551  17.029   8.327   8.919 -0.0029  0.4488 -0.1154
   35loPI   C2A  552  17.194   8.117   8.583  0.1172  0.1027  0.1109
   35loPI   C3A  553  17.082   7.914   8.103 -0.0844  0.2374 -0.1231
   35loPI   C4A  554  17.024   7.990   7.625  0.2645  0.3094 -0.3416
   35loPI   C5A  555  17.044   7.785   7.321 -0.4334 -0.0219  0.0284
   35loPI   C6A  556  16.929   7.752   6.851 -0.1874  0.1093  0.1101
   35loPI   C1B  557  17.372   8.738   8.904  0.1296 -0.2863  0.1455
   35loPI   C2B  558  17.594   8.739   8.586  0.2970  0.3268 -0.1535
   35loPI   C3B  559  17.574   8.617   8.004  0.3285 -0.1251 -0.1966
   35loPI   C4B  560  17.212   8.450   7.777 -0.1003  0.0605 -0.1862
   36loPI    C1  561  12.807   9.426   9.948 -0.0878  0.1096  0.1802
   36loPI    C2  562  12.831   9.030   9.997 -0.1483  0.0962  0.1043
   36loPI    C3  563  13.114   9.269  10.150  0.0018  0.0080 -0.0330
   36loPI   PO4  564  12.628   9.365   9.743  0.2404  0.0976 -0.2014
   36loPI   GL1  565  12.811   9.324   9.303  0.2081 -0.0490  0.0503
   36loPI   GL2  566  13.031   9.553   9.354  0.1671  0.0463 -0.2661
   36loPI   C1A  567  12.665   9.247   8.927 -0.0344 -0.3727 -0.3642
   36loPI   C2A  568  12.386   9.302   8.502 -0.0349 -0.1445 -0.1689
   36loPI   C3A  569  12.352   9.708   8.258  0.2037  0.2642  0.1445
   36loPI   C4A  570  12.440   9.695   7.772  0.2045 -0.1657  0.1533
   36loPI   C5A  571  12.425   9.344   7.440  0.0700 -0.0641  0.0592
   36loPI   C6A  572  12.438   8.998   7.235  0.3108 -0.1186 -0.0085
   36loPI   C1B  573  12.950   9.821   8.934  0.1848 -0.2505 -0.0504
   36loPI   C2B  574  12.880   9.552   8.669  0.0626 -0.0318  0.1301
   36loPI   C3B  575  12.829   9.388   8.268  0.1405  0.1701  0.0830
   36loPI   C4B  576  12.845   9.465   7.806 -0.3197  0.2128  0.2583
   37loPI    C1  577   3.684  19.016  10.013 -0.0200  0.2281 -0.0402
   37loPI    C2  578   3.496  18.858  10.329 -0.0152 -0.0517 -0.1744
   37loPI    C3  579   3.889  18.928  10.346 -0.0375  0.0524 -0.0747
   37loPI   PO4  580   3.636  18.911   9.832  0.2083  0.0322 -0.1780
   37loPI   GL1  581   3.475  19.120   9.530 -0.0784 -0.1099 -0.0045
   37loPI   GL2  582   3.240  19.329   9.594 -0.3233 -0.0642  0.0232
   37loPI   C1A  583   3.573  19.138   9.050  0.0882  0.1568 -0.2830
   37loPI   C2A  584   3.679  19.056   8.673 -0.0275  0.1114 -0.1618
   37loPI   C3A  585   3.868  18.995   8.284  0.2069  0.0528  0.0147
   37loPI   C4A  586   3.983  18.824   7.885 -0.0845  0.0966 -0.4741
   37loPI   C5A  587   4.015  18.774   7.520  0.1593  0.0762 -0.2138
   37loPI   C6A  588   3.770  18.934   7.126  0.2146  0.0930  0.0346
   37loPI   C1B  589   3.144  19.383   9.141  0.2023  0.1405 -0.2694
   37loPI   C2B  590   3.149  19.301   8.793 -0.1350  0.0600  0.2996
   37loPI   C3B  591   3.183  19.287   8.446 -0.2833 -0.0523  0.2195
   37loPI   C4B  592   2.792  19.158   8.240 -0.1432 -0.1268  0.1583
   38loPI    C1  593   5.187  11.639   9.836 -0.1601  0.0026  0.0240
   38loPI    C2  594   5.515  11.831   9.961 -0.1021 -0.1803  0.1576
   38loPI    C3  595   5.231  11.730  10.224 -0.2232 -0.1055  0.0568
   38loPI   PO4  596   5.137  11.697   9.575  0.1403  0.1176 -0.3136
   38loPI   GL1  597   5.239  11.601   9.188  0.1814  0.0556  0.1422
   38loPI   GL2  598   4.877  11.461   9.221  0.3964 -0.2302 -0.0100
   38loPI   C1A  599   5.163  11.208   8.839  0.0732  0.2096  0.0788
   38loPI   C2A  600   5.382  11.065   8.576 -0.1128 -0.2063 -0.0507
   38loPI   C3A  601   5.586  11.274   8.253  0.3158 -0.2474  0.1158
   38loPI   C4A  602   5.557  11.294   7.808  0.0526 -0.0284  0.1341
   38loPI   C5A  603   5.517  11.176   7.423 -0.2767  0.1160 -0.0219
   38loPI   C6A  604   5.313  11.136   7.083 -0.3057 -0.0764  0.3314
   38loPI   C1B  605   4.922  11.663   8.816  0.2260  0.0732 -0.0994
   38loPI   C2B  606   4.809  11.805   8.299  0.1810  0.0329  0.1366
   38loPI   C3B  607   4.632  11.854   7.938  0.0744 -0.1302 -0.2051
   38loPI   C4B  608   4.285  11.855   7.640 -0.0916  0.1276 -0.1451
   39loPI    C1  609   0.161  15.527  10.220  0.0113  0.0315  0.0536
   39loPI    C2  610  -0.236  15.536  10.271 -0.0407  0.1961 -0.3426
   39loPI    C3  611  -0.060  15.207  10.125  0.0249 -0.0238  0.2042
   39loPI   PO4  612   0.145  15.764  10.099  0.3810 -0.0659 -0.3217
   39loPI   GL1  613   0.295  16.012   9.704  0.2465 -0.1691  0.1711
   39loPI   GL2  614   0.099  15.848   9.451 -0.3631 -0.0890 -0.0362
   39loPI   C1A  615   0.444  16.178   9.303 -0.0432  0.1851  0.2290
   39loPI   C2A  616   0.543  15.975   8.925 -0.1392 -0.4145  0.0495
   39loPI   C3A  617   0.221  15.906   8.657  0.0519  0.1561  0.1452
   39loPI   C4A  618   0.175  16.182   8.359 -0.1740 -0.0959  0.0162
   39loPI   C5A  619   0.035  16.382   7.942 -0.2719 -0.0142  0.2393
   39loPI   C6A  620  -0.282  16.486   7.706  0.0208  0.3619 -0.1277
   39loPI   C1B  621  -0.019  16.113   9.116  0.1530 -0.1419 -0.2719
   39loPI   C2B  622  -0.131  16.314   8.770  0.0200  0.1189  0.0025
   39loPI   C3B  623  -0.250  16.492   8.334 -0.0097  0.0967  0.4022
   39loPI   C4B  624  -0.121  16.746   8.256 -0.0535 -0.3265 -0.0731
   40loPI    C1  625   8.604  18.613   9.581  0.0510  0.2919  0.1239
   40loPI    C2  626   8.248  18.653   9.760  0.0243 -0.0052  0.1429
   40loPI    C3  627   8.572  18.567   9.978  0.0809  0.1140  0.1067
   40loPI   PO4  628   8.594  18.876   9.437  0.3817  0.0708 -0.0557
   40loPI   GL1  629   8.699  18.880   9.000 -0.1624  0.0051 -0.0942
   40loPI   GL2  630   8.621  19.032   8.836 -0.0391  0.1204 -0.1209
   40loPI   C1A  631   8.734  18.694   8.511 -0.4718 -0.2832  0.2482
   40loPI   C2A  632   8.827  18.765   8.136  0.1083  0.0281  0.0100
   40loPI   C3A  633   9.188  18.698   7.980  0.1798 -0.2482 -0.3259
   40loPI   C4A  634   9.421  18.952   7.683  0.2646 -0.0246 -0.1271
   40loPI   C5A  635   9.556  19.027   7.305 -0.0411 -0.0244 -0.3305
   40loPI   C6A  636   9.732  19.439   7.156  0.1138 -0.0471  0.1884
   40loPI   C1B  637   8.378  18.983   8.581  0.2045 -0.1187  0.2626
   40loPI   C2B  638   8.367  18.945   8.191  0.0488  0.0671  0.6547
   40loPI   C3B  639   8.341  19.210   7.843 -0.4622 -0.1819  0.2085
   40loPI   C4B  640   8.625  19.506   7.699  0.2854  0.0767 -0.1680
   41loPI    C1  641   2.775  12.183   9.656  0.1268 -0.1365 -0.2775
   41loPI    C2  642   3.131  12.174   9.838  0.0060 -0.1943 -0.0404
   41loPI    C3  643   2.812  12.011  10.015 -0.1599 -0.0538 -0.2064
   41loPI   PO4  644   2.768  12.468   9.535  0.0453 -0.3313 -0.0806
   41loPI   GL1  645   2.630  12.657   9.126  0.1202 -0.1984 -0.0936
   41loPI   GL2  646   2.399  12.704   9.069  0.2444 -0.2616  0.1007
   41loPI   C1A  647   2.659  12.851   8.679 -0.0476  0.2631 -0.1263
   41loPI   C2A  648   2.762  13.008   8.288  0.2345  0.0165  0.1805
   41loPI   C3A  649   2.991  12.888   7.809  0.2036 -0.0209  0.1260
   41loPI   C4A  650   3.200  12.802   7.435  0.0645 -0.0689 -0.1134
   41loPI   C5A  651   3.319  12.736   6.999  0.0879 -0.1926 -0.2309
   41loPI   C6A  652   3.258  13.006   6.667 -0.2659  0.1268  0.0269
   41loPI   C1B  653   2.148  12.954   8.785  0.0354 -0.0762 -0.0122
   41loPI   C2B  654   2.174  12.877   8.335 -0.1046  0.2252 -0.0346
   41loPI   C3B  655   2.400  12.915   7.986  0.0357 -0.0902  0.1619
   41loPI   C4B  656   2.174  13.138   7.580 -0.2533  0.1583 -0.3908
   42loPI    C1  657   8.398   1.796   9.962 -0.0309  0.0402  0.2450
   42loPI    C2  658   8.058   1.586   9.949  0.0975 -0.1608  0.0764
   42loPI    C3  659   8.098   1.885  10.211 -0.3240  0.0669 -0.1084
   42loPI   PO4  660   8.451   1.689   9.645 -0.3543 -0.1107  0.2125
   42loPI   GL1  661   8.441   1.862   9.279  0.0725 -0.0371  0.1325
   42loPI   GL2  662   8.595   1.897   9.096  0.0487  0.0983 -0.0927
   42loPI   C1A  663   8.196   2.003   8.802  0.0049  0.2179  0.0087
   42loPI   C2A  664   8.054   2.030   8.374 -0.1355 -0.2116  0.1617
   42loPI   C3A  665   8.242   2.316   7.973 -0.1568 -0.3074 -0.0889
   42loPI   C4A  666   8.304   2.352   7.467 -0.1143 -0.2731  0.1027
   42loPI   C5A  667   8.298   2.568   7.130  0.2301 -0.1331 -0.0660
   42loPI   C6A  668   8.697   2.227   6.981  0.0482 -0.2026  0.0897
   42loPI   C1B  669   8.721   1.848   8.661  0.2002 -0.2054 -0.1806
   42loPI   C2B  670   8.572   1.985   8.349 -0.2086  0.0326 -0.0837
   42loPI   C3B  671   8.551   1.912   7.899  0.1961 -0.1610  0.2578
   42loPI   C4B  672   8.617   1.938   7.434  0.0196  0.4209 -0.2452
   43loPI    C1  673  18.979   1.582  10.394 -0.0410 -0.3842  0.0919
   43loPI    C2  674  18.658   1.801  10.298  0.2053  0.0012  0.1258
   43loPI    C3  675  18.684   1.632  10.660  0.0806  0.0420  0.1546
   43loPI   PO4  676  19.125   1.655  10.198  0.0802  0.1595 -0.0225
   43loPI   GL1  677  19.035   1.640   9.803  0.0036  0.2836  0.2478
   43loPI   GL2  678  18.940   1.991   9.859 -0.0211  0.1189 -0.3551
   43loPI   C1A  679  18.839   1.558   9.372 -0.1654 -0.2421 -0.0171
   43loPI   C2A  680  18.586   1.683   9.126 -0.2892 -0.0373 -0.1914
   43loPI   C3A  681  18.543   2.064   8.899 -0.1560 -0.1561  0.1914
   43loPI   C4A  682  18.492   2.271   8.585 -0.4703 -0.0223  0.1538
   43loPI   C5A  683  18.571   2.417   8.257  0.1948  0.0945  0.0715
   43loPI   C6A  684  18.454   2.810   8.165 -0.1495  0.2874 -0.1638
   43loPI   C1B  685  19.169   1.952   9.452  0.2107 -0.5092  0.3526
   43loPI   C2B  686  19.060   1.945   9.032  0.1744  0.1185  0.2119
   43loPI   C3B  687  18.882   1.668   8.718 -0.1768 -0.0549  0.5085
   43loPI   C4B  688  18.945   1.897   8.353  0.3630  0.0046 -0.1057
   44loPI    C1  689  16.164   5.979   9.864 -0.1796  0.1802  0.1355
   44loPI    C2  690  16.467   5.766  10.015 -0.2376 -0.0519 -0.0703
   44loPI    C3  691  16.120   5.787  10.212 -0.2114 -0.0970 -0.0189
   44loPI   PO4  692  16.125   5.897   9.612 -0.1209  0.5622  0.0353
   44loPI   GL1  693  16.061   5.745   9.302  0.0228  0.0294  0.2334
   44loPI   GL2  694  16.122   5.406   9.359 -0.1507  0.3865 -0.3429
   44loPI   C1A  695  16.304   5.613   8.865 -0.0931 -0.2378  0.2877
   44loPI   C2A  696  16.414   5.420   8.460 -0.1478  0.1673  0.0407
   44loPI   C3A  697  16.603   5.174   8.110  0.0764  0.2196  0.1075
   44loPI   C4A  698  17.083   5.124   7.838  0.0998  0.1698  0.0133
   44loPI   C5A  699  17.423   5.271   7.840  0.1995 -0.2208  0.1857
   44loPI   C6A  700  17.769   5.067   7.592  0.3641 -0.4787  0.1615
   44loPI   C1B  701  15.872   5.447   8.944 -0.1319  0.2337 -0.2374
   44loPI   C2B  702  15.894   5.359   8.474  0.1693  0.0754  0.4254
   44loPI   C3B  703  16.059   5.245   8.091 -0.1204 -0.3339 -0.1341
   44loPI   C4B  704  15.998   5.049   7.708  0.1250 -0.0086 -0.1234
   45loPI    C1  705  12.001   5.327  10.072  0.1829 -0.0531  0.0601
   45loPI    C2  706  12.346   5.449  10.235  0.0439  0.1887  0.1788
   45loPI    C3  707  12.076   5.256  10.458  0.0196  0.1731  0.1362
   45loPI   PO4  708  12.104   5.211   9.800 -0.3441 -0.2136 -0.0050
   45loPI   GL1  709  12.221   5.316   9.428  0.0250  0.0128 -0.3519
   45loPI   GL2  710  12.564   5.388   9.414 -0.2300  0.0496  0.2343
   45loPI   C1A  711  12.458   5.084   9.007  0.0006  0.0469 -0.4362
   45loPI   C2A  712  12.801   5.192   8.740 -0.1110 -0.1200  0.1231
   45loPI   C3A  713  12.913   5.620   8.699 -0.2473  0.0193  0.0109
   45loPI   C4A  714  12.829   6.051   8.336  0.0107  0.2378 -0.1609
   45loPI   C5A  715  12.686   6.207   7.990  0.3330 -0.1580  0.0517
   45loPI   C6A  716  12.675   6.154   7.503  0.0255  0.0956  0.0167
   45loPI   C1B  717  12.980   5.265   9.185 -0.1166 -0.1651  0.1039
   45loPI   C2B  718  13.271   5.279   8.767 -0.2749  0.0952  0.2503
   45loPI   C3B  719  13.116   5.283   8.309 -0.0883  0.3942  0.0153
   45loPI   C4B  720  12.974   5.632   7.981  0.1513 -0.1134  0.0626
   46loPI    C1  721  17.980  10.385   9.571  0.0591 -0.1998 -0.0532
   46loPI    C2  722  18.307  10.225   9.735 -0.0116  0.0497  0.3453
   46loPI    C3  723  18.037  10.408   9.966 -0.4532 -0.1809  0.0265
   46loPI   PO4  724  18.026  10.197   9.283 -0.2821  0.1993  0.3868
   46loPI   GL1  725  18.066  10.011   8.953 -0.0341 -0.0723  0.2109
   46loPI   GL2  726  18.410  10.174   8.959 -0.1012 -0.1928 -0.2633
   46loPI   C1A  727  18.111  10.427   8.660  0.0740 -0.1360  0.4393
   46loPI   C2A  728  18.013  10.802   8.407 -0.0559  0.0929  0.2161
   46loPI   C3A  729  17.820  10.801   7.935 -0.0238 -0.1652 -0.0881
   46loPI   C4A  730  18.036  10.576   7.624 -0.4192  0.1060 -0.4707
   46loPI   C5A  731  18.130  10.371   7.289  0.0804 -0.0576 -0.0904
   46loPI   C6A  732  17.979  10.332   6.807 -0.2403  0.3208 -0.0648
   46loPI   C1B  733  18.509   9.988   8.619 -0.0178  0.0662 -0.4581
   46loPI   C2B  734  18.533   9.975   8.151 -0.0019  0.2195  0.1178
   46loPI   C3B  735  18.832   9.666   7.934  0.1049 -0.0742 -0.2981
   46loPI   C4B  736  19.267   9.316   8.015  0.1158 -0.1643  0.1734
   47loPI    C1  737  16.130  18.155   9.233 -0.0034 -0.1855  0.1682
   47loPI    C2  738  15.747  18.244   9.157  0.0921 -0.0668 -0.1932
   47loPI    C3  739  15.840  18.006   9.464 -0.2576  0.0474  0.0063
   47loPI   PO4  740  16.242  18.214   9.058  0.0583  0.0550 -0.2315
   47loPI   GL1  741  16.027  18.565   8.845  0.1690 -0.2765 -0.0996
   47loPI   GL2  742  16.371  18.631   8.875  0.0596  0.5571  0.3830
   47loPI   C1A  743  15.765  18.451   8.645 -0.1832  0.0664  0.0423
   47loPI   C2A  744  15.435  18.444   8.266  0.1938  0.0089 -0.0585
   47loPI   C3A  745  15.376  18.482   7.772  0.0389 -0.0660 -0.2708
   47loPI   C4A  746  15.439  18.320   7.449  0.1690 -0.0417 -0.0883
   47loPI   C5A  747  15.618  18.486   6.964 -0.0085 -0.3529  0.2312
   47loPI   C6A  748  15.837  18.296   6.740  0.0903  0.1945 -0.2872
   47loPI   C1B  749  16.331  18.642   8.394 -0.0701  0.0492  0.0343
   47loPI   C2B  750  16.328  18.881   8.003  0.2789 -0.0348  0.0999
   47loPI   C3B  751  16.620  18.740   7.672 -0.1050  0.2986 -0.1804
   47loPI   C4B  752  16.512  18.621   7.257 -0.0277 -0.1020  0.4405
   48loPI    C1  753  15.732   2.863  10.016 -0.2812  0.2397  0.0791
   48loPI    C2  754  15.826   3.051  10.356 -0.3568  0.2689  0.0841
   48loPI    C3  755  15.714   2.667  10.364 -0.3183  0.2576  0.0873
   48loPI   PO4  756  15.914   2.862   9.752  0.3995 -0.0410 -0.2057
   48loPI   GL1  757  15.692   2.859   9.287 -0.3154  0.1720 -0.1334
   48loPI   GL2  758  15.637   2.657   9.197  0.0606 -0.0968  0.2426
   48loPI   C1A  759  15.933   3.227   8.967  0.1594  0.2820  0.0991
   48loPI   C2A  760  16.139   3.173   8.571 -0.1729  0.0752  0.1923
   48loPI   C3A  761  16.319   3.286   8.112 -0.2704 -0.2275  0.2739
   48loPI   C4A  762  16.394   3.214   7.649 -0.1607  0.0191 -0.1209
   48loPI   C5A  763  16.188   3.457   7.338 -0.1806 -0.2163 -0.1600
   48loPI   C6A  764  15.993   3.705   7.052  0.0790 -0.1406 -0.0522
   48loPI   C1B  765  15.441   2.740   8.773  0.2784  0.0293  0.2111
   48loPI   C2B  766  15.341   2.333   8.470  0.1555  0.1562  0.0273
   48loPI   C3B  767  15.387   2.574   8.067 -0.2999  0.2310 -0.1612
   48loPI   C4B  768  15.456   2.563   7.687  0.0624 -0.3488  0.1268
   49loPI    C1  769   4.000   7.796  10.230 -0.0055  0.1770 -0.0747
   49loPI    C2  770   3.712   7.522  10.269  0.2301 -0.0415  0.1670
   49loPI    C3  771   3.753   7.809  10.544  0.1842  0.0475  0.0817
   49loPI   PO4  772   3.998   7.782   9.949 -0.1820  0.3816  0.2471
   49loPI   GL1  773   4.289   7.535   9.595 -0.2338  0.1670  0.0181
   49loPI   GL2  774   4.387   7.166   9.580 -0.0023  0.1401  0.1498
   49loPI   C1A  775   4.070   7.613   9.263 -0.3281 -0.1066  0.0667
   49loPI   C2A  776   3.902   7.373   8.966  0.1381 -0.3240  0.1736
   49loPI   C3A  777   3.813   7.241   8.473  0.0092  0.2084 -0.3598
   49loPI   C4A  778   3.607   7.190   8.047 -0.3223  0.0851 -0.1282
   49loPI   C5A  779   3.565   7.026   7.669 -0.0642 -0.1486 -0.0572
   49loPI   C6A  780   3.953   6.709   7.680 -0.0169 -0.2411  0.0034
   49loPI   C1B  781   4.132   7.020   9.259 -0.0330  0.1790 -0.2266
   49loPI   C2B  782   3.916   6.870   8.880 -0.2429  0.3221 -0.0483
   49loPI   C3B  783   3.939   6.737   8.424 -0.0767 -0.2175 -0.1213
   49loPI   C4B  784   4.142   6.873   8.115  0.1593 -0.1828  0.1297
   50loPI    C1  785  13.384  12.239   9.487  0.1606  0.2664 -0.1467
   50loPI    C2  786  13.253  12.248   9.864 -0.2631  0.1024 -0.2839
   50loPI    C3  787  13.645  12.269   9.788 -0.1591 -0.0716  0.1734
   50loPI   PO4  788  13.322  12.046   9.380 -0.3317 -0.1023 -0.1063
   50loPI   GL1  789  13.483  12.007   8.880  0.0199  0.1379  0.2358
   50loPI   GL2  790  13.502  12.189   8.592  0.0114  0.0235  0.2879
   50loPI   C1A  791  13.224  11.730   8.503 -0.0745 -0.0648 -0.1595
   50loPI   C2A  792  13.436  11.532   8.146 -0.1968  0.2570  0.4316
   50loPI   C3A  793  13.548  11.353   7.767  0.1020 -0.1659  0.1457
   50loPI   C4A  794  13.470  11.423   7.255 -0.0570  0.1480 -0.4055
   50loPI   C5A  795  13.126  11.193   6.966  0.0295 -0.2248 -0.1698
   50loPI   C6A  796  12.960  11.335   6.547 -0.1794 -0.4017  0.1311
   50loPI   C1B  797  13.680  11.932   8.306  0.2096  0.0817 -0.4677
   50loPI   C2B  798  13.870  11.841   7.892  0.1167 -0.3278 -0.0978
   50loPI   C3B  799  13.804  11.786   7.375  0.0792  0.0166 -0.1158
   50loPI   C4B  800  13.507  11.939   7.108  0.1677 -0.1504 -0.1460
   51loPI    C1  801   2.441   7.836  10.108  0.0488 -0.0341  0.0220
   51loPI    C2  802   2.122   8.077  10.114  0.0253 -0.0653  0.0260
   51loPI    C3  803   2.081   7.693  10.009  0.0599 -0.0716  0.0356
   51loPI   PO4  804   2.626   8.072   9.919 -0.0627 -0.1322 -0.3275
   51loPI   GL1  805   2.773   8.118   9.567 -0.1360 -0.1126  0.0533
   51loPI   GL2  806   2.704   8.338   9.355  0.1359  0.0342  0.3288
   51loPI   C1A  807   2.777   7.882   9.189 -0.1842 -0.0470  0.0432
   51loPI   C2A  808   2.738   7.902   8.706  0.4686  0.0455 -0.1198
   51loPI   C3A  809   2.413   7.961   8.481  0.0350  0.0328 -0.0727
   51loPI   C4A  810   2.395   8.111   7.998 -0.0760  0.1748  0.2487
   51loPI   C5A  811   2.618   8.207   7.616 -0.1399 -0.0001 -0.3983
   51loPI   C6A  812   2.499   8.411   7.359 -0.2193 -0.2364 -0.3310
   51loPI   C1B  813   2.834   8.346   8.948 -0.0175  0.0668 -0.0947
   51loPI   C2B  814   2.900   8.326   8.542 -0.1086  0.2550 -0.0780
   51loPI   C3B  815   2.844   8.042   8.231 -0.3441 -0.1299 -0.0101
   51loPI   C4B  816   2.849   7.879   7.846  0.0754  0.1183 -0.2619
   52loPI    C1  817  14.079   2.604  10.031  0.0494 -0.2020 -0.1255
   52loPI    C2  818  13.843   2.688  10.343 -0.1337  0.2281 -0.3705
   52loPI    C3  819  13.758   2.378  10.105 -0.0998  0.0128 -0.1067
   52loPI   PO4  820  14.140   2.859   9.900  0.1922 -0.3662 -0.0852
   52loPI   GL1  821  14.180   2.888   9.377 -0.1586  0.1068 -0.0877
   52loPI   GL2  822  13.874   2.894   9.260 -0.0454 -0.2012  0.1554
   52loPI   C1A  823  14.234   3.301   9.141 -0.1848  0.0874 -0.0627
   52loPI   C2A  824  14.509   3.300   8.815 -0.3927  0.0814 -0.1342
   52loPI   C3A  825  14.755   3.300   8.429  0.0832  0.2448 -0.0652
   52loPI   C4A  826  14.884   3.192   7.973  0.1623 -0.0472 -0.1687
   52loPI   C5A  827  14.905   3.258   7.531 -0.0937 -0.0790 -0.1693
   52loPI   C6A  828  15.127   3.437   7.203  0.1136  0.1291  0.2740
   52loPI   C1B  829  13.792   2.664   8.858 -0.2582 -0.5094  0.0576
   52loPI   C2B  830  14.022   2.360   8.568 -0.4003 -0.0874 -0.0455
   52loPI   C3B  831  14.312   2.322   8.286  0.2627 -0.1914 -0.0530
   52loPI   C4B  832  14.543   2.408   7.822  0.1107  0.1754 -0.1959
   53loPI    C1  833   2.442   7.474  10.592  0.0578 -0.0626  0.1296
   53loPI    C2  834   2.098   7.352  10.757 -0.1745  0.1769 -0.1646
   53loPI    C3  835   2.329   7.617  10.948 -0.0594 -0.1192  0.1159
   53loPI   PO4  836   2.325   7.299  10.317 -0.0783  0.0870  0.3042
   53loPI   GL1  837   2.486   7.364   9.907 -0.0325 -0.1002 -0.1604
   53loPI   GL2  838   2.780   7.262   9.743  0.2977  0.0178 -0.0427
   53loPI   C1A  839   2.349   7.182   9.508 -0.1160  0.3083 -0.2944
   53loPI   C2A  840   2.543   6.947   9.099 -0.0260  0.1690  0.0163
   53loPI   C3A  841   2.557   6.815   8.753  0.5149  0.1831  0.0593
   53loPI   C4A  842   2.831   7.016   8.387  0.0380  0.1094  0.0613
   53loPI   C5A  843   2.738   7.143   8.050 -0.0716 -0.2855  0.0691
   53loPI   C6A  844   2.450   6.964   7.812 -0.0062  0.1019  0.1857
   53loPI   C1B  845   2.882   7.203   9.276  0.0289 -0.2043 -0.0520
   53loPI   C2B  846   3.007   6.850   8.908  0.0838  0.0956  0.1768
   53loPI   C3B  847   2.954   6.494   9.074 -0.0017 -0.0638 -0.0322
   53loPI   C4B  848   2.866   6.232   9.464 -0.1287  0.1761  0.1164
   54loPI    C1  849  12.179   5.890  10.018 -0.0782 -0.0368  0.1154
   54loPI    C2  850  11.872   6.114  10.142 -0.1572 -0.0324 -0.0833
   54loPI    C3  851  12.215   6.288  10.034 -0.2141 -0.0071 -0.2253
   54loPI   PO4  852  12.085   5.772   9.804 -0.2906  0.0984  0.0127
   54loPI   GL1  853  11.943   5.783   9.348  0.2415  0.2211 -0.1295
   54loPI   GL2  854  11.664   5.810   9.271  0.0826 -0.1728  0.0731
   54loPI   C1A  855  12.103   5.693   9.005 -0.2112 -0.1158  0.0436
   54loPI   C2A  856  12.416   5.539   8.734 -0.3020  0.3041 -0.4217
   54loPI   C3A  857  12.477   5.669   8.357 -0.3663 -0.2449  0.6974
   54loPI   C4A  858  12.424   5.827   7.924 -0.0930 -0.0276  0.0648
   54loPI   C5A  859  11.961   5.848   7.797  0.1340 -0.0206  0.1422
   54loPI   C6A  860  11.681   6.204   7.652 -0.0761  0.1982  0.1263
   54loPI   C1B  861  11.644   5.792   8.838  0.1195 -0.2221 -0.0700
   54loPI   C2B  862  11.940   5.692   8.460 -0.2678  0.0641  0.0462
   54loPI   C3B  863  11.984   5.503   8.126 -0.0518  0.0351 -0.3067
   54loPI   C4B  864  11.814   5.272   7.761 -0.0813  0.1212 -0.0823
   55loPI    C1  865  10.311   4.935   9.531  0.0602 -0.1020 -0.1387
   55loPI    C2  866  10.476   4.791   9.196  0.0534 -0.1025 -0.1417
   55loPI    C3  867  10.645   4.717   9.551  0.0497 -0.1185 -0.1434
   55loPI   PO4  868  10.322   5.206   9.558  0.1751  0.0127 -0.1513
   55loPI   GL1  869  10.398   5.492   9.343 -0.0248  0.1124  0.1042
   55loPI   GL2  870  10.784   5.276   9.354  0.0515 -0.0522 -0.2871
   55loPI   C1A  871  10.354   5.480   8.867 -0.2159 -0.1324  0.0667
   55loPI   C2A  872  10.331   5.400   8.440  0.3296  0.2296  0.2420
   55loPI   C3A  873  10.421   5.410   8.018  0.4290  0.1128 -0.1504
   55loPI   C4A  874  10.498   5.392   7.749  0.2447  0.3592  0.2403
   55loPI   C5A  875  10.350   5.479   7.339 -0.1453  0.2455  0.2343
   55loPI   C6A  876  10.102   5.824   7.224 -0.0631 -0.2039 -0.0823
   55loPI   C1B  877  10.772   5.555   9.063  0.3022 -0.1591  0.0114
   55loPI   C2B  878  10.818   5.624   8.676 -0.1107  0.0255 -0.2264
   55loPI   C3B  879  10.759   5.241   8.439  0.0752 -0.0945  0.0108
   55loPI   C4B  880  10.674   4.880   8.216 -0.1281  0.2324  0.5000
   56loPI    C1  881  15.809  18.651   9.795  0.0443 -0.0210  0.1077
   56loPI    C2  882  16.163  18.835   9.772  0.1303 -0.1594  0.2979
   56loPI    C3  883  15.856  19.015   9.955  0.0678  0.0083  0.0346
   56loPI   PO4  884  15.678  18.588   9.542  0.2248  0.0108 -0.2684
   56loPI   GL1  885  15.742  18.873   9.207 -0.0157 -0.1032 -0.0661
   56loPI   GL2  886  15.558  18.807   8.907 -0.1035 -0.2668  0.2636
   56loPI   C1A  887  15.627  19.270   8.834  0.1059 -0.1366  0.1525
   56loPI   C2A  888  15.700  19.465   8.466 -0.0793  0.0775  0.1029
   56loPI   C3A  889  15.793  19.260   8.012 -0.0325 -0.2219 -0.2988
   56loPI   C4A  890  16.016  19.170   7.618  0.2232  0.2393 -0.1181
   56loPI   C5A  891  16.326  19.080   7.319 -0.4275 -0.2559  0.1061
   56loPI   C6A  892  16.488  19.336   6.965 -0.2662  0.0245  0.1064
   56loPI   C1B  893  15.281  18.735   8.630  0.3039  0.0313 -0.3444
   56loPI   C2B  894  14.994  18.567   8.394  0.4415 -0.2452  0.0379
   56loPI   C3B  895  14.892  18.689   7.946 -0.1064 -0.0498  0.2260
   56loPI   C4B  896  14.916  18.570   7.540  0.0274 -0.0892  0.0505
   57loPI    C1  897  10.144  16.587   9.484  0.1893  0.2530 -0.2071
   57loPI    C2  898  10.097  16.918   9.702  0.3840 -0.0043  0.2393
   57loPI    C3  899  10.259  16.592   9.867 -0.1134 -0.4345 -0.0920
   57loPI   PO4  900   9.923  16.548   9.272  0.1624  0.1127 -0.0798
   57loPI   GL1  901   9.665  16.687   8.938  0.0395  0.0382 -0.2516
   57loPI   GL2  902   9.925  16.802   8.742 -0.3877 -0.0263 -0.1851
   57loPI   C1A  903   9.489  16.762   8.573  0.3542  0.0450  0.1166
   57loPI   C2A  904   9.487  16.842   8.240 -0.3544  0.2776 -0.1335
   57loPI   C3A  905   9.413  16.806   7.777  0.1353  0.2010  0.1164
   57loPI   C4A  906   9.470  16.800   7.319  0.1575 -0.1596  0.2212
   57loPI   C5A  907   9.685  16.764   6.914  0.3082 -0.1162  0.0114
   57loPI   C6A  908   9.876  16.495   6.647  0.0548 -0.1072  0.2471
   57loPI   C1B  909  10.039  16.800   8.318 -0.2891  0.2281  0.0694
   57loPI   C2B  910  10.101  16.857   7.935  0.0242 -0.0857 -0.1042
   57loPI   C3B  911   9.879  16.690   7.594  0.1480 -0.0835  0.3882
   57loPI   C4B  912   9.873  16.357   7.206 -0.0970 -0.0133  0.0036
   58loPI    C1  913   4.475   7.014  10.289 -0.1139 -0.0109  0.0063
   58loPI    C2  914   4.268   6.940  10.624  0.1245  0.0534  0.1708
   58loPI    C3  915   4.653   7.043  10.646  0.1810 -0.0810 -0.1328
   58loPI   PO4  916   4.409   6.760  10.155 -0.0251 -0.2497 -0.1108
   58loPI   GL1  917   4.385   6.499   9.789  0.1462 -0.0580  0.0114
   58loPI   GL2  918   4.572   6.291   9.670  0.1351 -0.0062  0.2761
   58loPI   C1A  919   4.521   6.709   9.371 -0.3016  0.3675 -0.2167
   58loPI   C2A  920   4.404   6.704   8.942 -0.1367 -0.1037 -0.5655
   58loPI   C3A  921   4.457   6.642   8.482  0.2442  0.0343 -0.2608
   58loPI   C4A  922   4.671   6.979   8.220 -0.1549  0.0483  0.0553
   58loPI   C5A  923   4.852   7.105   7.775 -0.2163 -0.0849  0.0900
   58loPI   C6A  924   4.824   7.283   7.393 -0.0593  0.0225  0.0347
   58loPI   C1B  925   4.515   6.139   9.287  0.0365 -0.4462 -0.2043
   58loPI   C2B  926   4.562   6.193   8.907  0.1873  0.0362 -0.1596
   58loPI   C3B  927   4.484   6.196   8.366  0.0208 -0.1089 -0.0478
   58loPI   C4B  928   4.221   6.331   8.012 -0.1663 -0.2682 -0.0575
   59loPI    C1  929   3.748  17.909  10.096 -0.0893 -0.1878 -0.0721
   59loPI    C2  930   4.115  18.065  10.060 -0.0637 -0.2273  0.0161
   59loPI    C3  931   4.068  17.695  10.204 -0.1424 -0.1993  0.0636
   59loPI   PO4  932   3.661  18.062   9.833  0.0093  0.0347  0.0015
   59loPI   GL1  933   3.629  18.168   9.537  0.2759 -0.2037  0.0364
   59loPI   GL2  934   3.578  18.478   9.559  0.0089  0.3506 -0.0143
   59loPI   C1A  935   3.838  18.278   9.167  0.0879 -0.2995 -0.3796
   59loPI   C2A  936   4.042  18.128   8.834  0.2666 -0.0178 -0.1676
   59loPI   C3A  937   4.011  18.128   8.353  0.1267 -0.1783 -0.0202
   59loPI   C4A  938   4.095  18.055   7.927 -0.2635 -0.1094 -0.0661
   59loPI   C5A  939   4.034  17.904   7.619 -0.0044  0.0726 -0.1216
   59loPI   C6A  940   4.022  17.604   7.343 -0.1072  0.0877 -0.2234
   59loPI   C1B  941   3.536  18.613   9.145 -0.3721  0.5385 -0.1345
   59loPI   C2B  942   3.678  18.497   8.631  0.0816 -0.0025  0.2190
   59loPI   C3B  943   3.498  18.273   8.344 -0.1178  0.1053  0.3039
   59loPI   C4B  944   3.059  18.275   8.316 -0.3652  0.4060 -0.0651
   60loPI    C1  945   7.417  14.541   9.540  0.0249 -0.3494 -0.1034
   60loPI    C2  946   7.276  14.685   9.885  0.0367 -0.0457 -0.2220
   60loPI    C3  947   7.449  14.325   9.874 -0.1181 -0.1312  0.0541
   60loPI   PO4  948   7.596  14.700   9.473  0.0105 -0.0032 -0.0453
   60loPI   GL1  949   7.425  15.135   9.232 -0.2070  0.1335 -0.1277
   60loPI   GL2  950   7.273  14.913   9.002  0.1936 -0.0830  0.0141
   60loPI   C1A  951   7.563  15.245   8.707  0.0552  0.0700 -0.0793
   60loPI   C2A  952   7.626  15.299   8.261 -0.2400 -0.0814  0.1296
   60loPI   C3A  953   7.845  15.349   7.864  0.2929  0.0716  0.0154
   60loPI   C4A  954   8.284  15.427   7.736  0.0366  0.1662  0.0604
   60loPI   C5A  955   8.680  15.151   7.756 -0.0954 -0.0346 -0.0503
   60loPI   C6A  956   9.116  15.237   7.664 -0.1249  0.0162 -0.5220
   60loPI   C1B  957   7.227  14.878   8.540 -0.3667 -0.1093  0.1212
   60loPI   C2B  958   7.144  14.794   8.070  0.2241  0.1710 -0.4484
   60loPI   C3B  959   7.061  14.564   7.702 -0.2184  0.2454  0.2848
   60loPI   C4B  960   6.809  14.186   7.529 -0.2980  0.2278  0.2716
   61loPI    C1  961  18.381  12.195   9.563 -0.0402 -0.1053 -0.0521
   61loPI    C2  962  18.077  12.222   9.821  0.1134 -0.4605  0.1739
   61loPI    C3  963  18.431  12.389   9.909 -0.0265  0.0119 -0.1190
   61loPI   PO4  964  18.280  12.095   9.343  0.0269  0.4530 -0.1652
   61loPI   GL1  965  18.425  12.113   8.903 -0.1896 -0.1815  0.0670
   61loPI   GL2  966  18.283  12.392   8.933 -0.0506  0.0646  0.0447
   61loPI   C1A  967  18.694  12.345   8.576  0.0920  0.1431  0.0939
   61loPI   C2A  968  18.894  12.401   8.190  0.3949  0.3861  0.0044
   61loPI   C3A  969  18.930  12.331   7.623  0.1673 -0.1030  0.0945
   61loPI   C4A  970  19.260  12.462   7.406  0.1960 -0.2897  0.0518
   61loPI   C5A  971  19.307  12.451   6.945  0.1183 -0.0777  0.5354
   61loPI   C6A  972  19.396  12.178   6.644  0.2186  0.0268  0.0662
   61loPI   C1B  973  18.226  12.535   8.503  0.3308  0.3783 -0.3071
   61loPI   C2B  974  18.354  12.556   8.089 -0.0245  0.0659 -0.2245
   61loPI   C3B  975  18.398  12.638   7.590  0.0578 -0.1953 -0.1709
   61loPI   C4B  976  18.068  12.798   7.369  0.0102  0.0550  0.1998
   62loPI    C1  977  12.629  12.431   9.120 -0.3340  0.3932 -0.1593
   62loPI    C2  978  12.865  12.615   9.385 -0.1959 -0.0960  0.0703
   62loPI    C3  979  12.468  12.650   9.414 -0.1708  0.2627  0.0301
   62loPI   PO4  980  12.637  12.163   9.074 -0.0028  0.0910  0.2461
   62loPI   GL1  981  12.613  12.086   8.651  0.3012 -0.0235  0.1396
   62loPI   GL2  982  12.974  12.146   8.631 -0.0291 -0.0396 -0.0441
   62loPI   C1A  983  12.606  12.061   8.242  0.3820 -0.1220 -0.4282
   62loPI   C2A  984  12.705  11.974   7.810 -0.3908  0.0215  0.0482
   62loPI   C3A  985  12.805  11.864   7.480  0.0927  0.4094 -0.1038
   62loPI   C4A  986  13.043  11.688   7.116  0.0452 -0.0985 -0.1525
   62loPI   C5A  987  13.405  11.580   6.745  0.0649  0.0059 -0.3409
   62loPI   C6A  988  13.633  11.883   6.581 -0.0912 -0.4292 -0.0640
   62loPI   C1B  989  13.184  12.128   8.225  0.0389  0.3436 -0.0669
   62loPI   C2B  990  13.098  12.288   7.752 -0.2931  0.3107  0.2126
   62loPI   C3B  991  12.966  12.406   7.375 -0.1153  0.1245  0.1977
   62loPI   C4B  992  12.781  12.107   7.050  0.0269  0.1267  0.0668
   63loPI    C1  993   2.232   9.944   9.631  0.1731  0.1117 -0.2261
   63loPI    C2  994   2.200   9.549   9.575 -0.1001  0.0951  0.0232
   63loPI    C3  995   2.499   9.696   9.796 -0.1449  0.0057  0.1443
   63loPI   PO4  996   2.252  10.037   9.397 -0.1050 -0.0529  0.2130
   63loPI   GL1  997   2.040  10.119   9.026 -0.1696 -0.1790  0.0752
   63loPI   GL2  998   2.100   9.724   9.031  0.2069 -0.3544 -0.1553
   63loPI   C1A  999   2.256   9.954   8.630 -0.3488  0.3006  0.1498
   63loPI   C2A 1000   2.315   9.824   8.222 -0.0889  0.1326  0.1379
   63loPI   C3A 1001   2.179   9.794   7.783 -0.0184  0.2218 -0.3542
   63loPI   C4A 1002   2.339   9.659   7.464  0.1801  0.0737 -0.0916
   63loPI   C5A 1003   2.341   9.357   7.233 -0.2519  0.2257  0.2080
   63loPI   C6A 1004   2.516   8.935   7.097 -0.0818 -0.1270 -0.1656
   63loPI   C1B 1005   1.890   9.336   8.889 -0.0482  0.0199 -0.3669
   63loPI   C2B 1006   1.746   9.102   8.545 -0.1328 -0.2633 -0.1056
   63loPI   C3B 1007   1.630   9.085   8.207 -0.2402 -0.0939  0.3749
   63loPI   C4B 1008   1.335   9.208   7.986 -0.4060  0.1287  0.4338
   64loPI    C1 1009  18.056  15.027   9.842 -0.1440 -0.0924 -0.0489
   64loPI    C2 1010  18.093  15.416   9.926 -0.1089 -0.0878 -0.0849
   64loPI    C3 1011  18.125  15.144  10.218  0.0206 -0.0728 -0.0845
   64loPI   PO4 1012  18.303  15.049   9.593  0.2925  0.0470 -0.3643
   64loPI   GL1 1013  18.523  14.996   9.207 -0.3187 -0.1700  0.1084
   64loPI   GL2 1014  18.332  15.296   9.004  0.2842  0.0866  0.0013
   64loPI   C1A 1015  18.410  14.864   8.813 -0.1479 -0.2977 -0.3483
   64loPI   C2A 1016  18.178  14.817   8.393  0.0882 -0.2085  0.4205
   64loPI   C3A 1017  18.219  14.808   7.895  0.0486  0.0331  0.1028
   64loPI   C4A 1018  18.169  14.899   7.502 -0.2262  0.2236 -0.1446
   64loPI   C5A 1019  18.441  14.937   7.038  0.0325  0.1760 -0.1482
   64loPI   C6A 1020  18.711  14.758   6.676  0.1625  0.1529 -0.1742
   64loPI   C1B 1021  18.733  15.360   8.833  0.2609  0.0190 -0.1266
   64loPI   C2B 1022  18.852  15.122   8.433  0.0474 -0.1225  0.1713
   64loPI   C3B 1023  18.672  14.856   8.177  0.0367  0.4518 -0.0644
   64loPI   C4B 1024  18.658  14.709   7.709  0.1499  0.2011 -0.2746
   65loPI    C1 1025   4.577  14.753   9.674  0.1368  0.4528 -0.0302
   65loPI    C2 1026   4.272  14.897   9.889 -0.0377  0.0410  0.0068
   65loPI    C3 1027   4.605  14.772  10.073 -0.0004  0.1282 -0.0014
   65loPI   PO4 1028   4.579  14.951   9.473 -0.0516 -0.1432 -0.0045
   65loPI   GL1 1029   4.709  15.281   9.223 -0.3230 -0.1249 -0.3477
   65loPI   GL2 1030   4.692  15.700   9.181  0.3295 -0.1158  0.0172
   65loPI   C1A 1031   4.522  15.086   8.812 -0.1575  0.2128 -0.0518
   65loPI   C2A 1032   4.608  14.956   8.449  0.0540  0.0292 -0.1891
   65loPI   C3A 1033   4.566  14.787   8.034  0.2044 -0.4256  0.1260
   65loPI   C4A 1034   4.295  14.911   7.708 -0.3593  0.0468  0.1112
   65loPI   C5A 1035   4.413  14.884   7.307 -0.1209 -0.0424 -0.1388
   65loPI   C6A 1036   4.358  14.848   6.832  0.1201  0.2389 -0.1860
   65loPI   C1B 1037   4.888  15.535   8.785  0.2605 -0.1849 -0.0244
   65loPI   C2B 1038   4.867  15.380   8.473 -0.1556 -0.0827  0.0170
   65loPI   C3B 1039   4.639  15.297   8.075  0.2290  0.0179  0.1740
   65loPI   C4B 1040   4.881  15.397   7.709  0.1482 -0.1506 -0.0367
   66loPI    C1 1041  16.717  12.809   9.627 -0.2314  0.1447 -0.0175
   66loPI    C2 1042  17.009  12.881   9.890 -0.0593 -0.0867 -0.1411
   66loPI    C3 1043  16.630  12.966   9.984  0.0178 -0.0222  0.1197
   66loPI   PO4 1044  16.872  12.728   9.430  0.3131 -0.2233 -0.1082
   66loPI   GL1 1045  16.879  12.778   9.046 -0.2572 -0.0755 -0.3771
   66loPI   GL2 1046  16.799  12.510   8.842  0.0333  0.0297  0.0137
   66loPI   C1A 1047  16.930  12.936   8.608 -0.1647  0.1382 -0.1716
   66loPI   C2A 1048  16.988  12.822   8.211  0.0623  0.2409  0.0716
   66loPI   C3A 1049  17.041  12.746   7.806 -0.3603 -0.1928 -0.0183
   66loPI   C4A 1050  17.305  12.860   7.459 -0.2040 -0.3039 -0.1169
   66loPI   C5A 1051  17.480  12.707   7.048  0.1613 -0.0653 -0.3840
   66loPI   C6A 1052  17.940  12.592   6.930 -0.0252 -0.4680  0.0879
   66loPI   C1B 1053  17.107  12.304   8.501  0.2608  0.3124  0.1405
   66loPI   C2B 1054  17.401  12.307   8.147 -0.2559  0.2429  0.0957
   66loPI   C3B 1055  17.261  12.359   7.574  0.1540 -0.3111 -0.0425
   66loPI   C4B 1056  17.297  12.048   7.349  0.2937 -0.1179  0.1933
   67loPI    C1 1057   0.945  17.278  10.359  0.1003  0.0837 -0.1478
   67loPI    C2 1058   0.586  17.303  10.533  0.1587 -0.1705  0.0151
   67loPI    C3 1059   0.913  17.419  10.732  0.1655  0.0945 -0.1460
   67loPI   PO4 1060   0.915  17.368  10.080  0.0587 -0.0732 -0.1899
   67loPI   GL1 1061   0.942  17.250   9.673  0.3053  0.0711  0.0499
   67loPI   GL2 1062   0.703  17.037   9.701  0.1422  0.1038  0.1738
   67loPI   C1A 1063   1.131  17.595   9.311 -0.0068 -0.1983  0.1257
   67loPI   C2A 1064   1.033  17.878   9.019  0.1428  0.0514  0.0426
   67loPI   C3A 1065   0.937  17.986   8.644 -0.4919  0.1299  0.0214
   67loPI   C4A 1066   0.706  18.046   8.340 -0.0370  0.3053  0.0049
   67loPI   C5A 1067   0.450  17.957   7.965  0.2337  0.0628 -0.0281
   67loPI   C6A 1068   0.299  17.609   7.828 -0.0989  0.0253 -0.0856
   67loPI   C1B 1069   0.608  16.954   9.268  0.1469  0.0028  0.0010
   67loPI   C2B 1070   0.690  16.816   8.910 -0.0005 -0.1196  0.0379
   67loPI   C3B 1071   0.875  16.782   8.562  0.0018 -0.2060  0.5274
   67loPI   C4B 1072   1.082  17.134   8.372  0.2663 -0.0386 -0.0780
   68loPI    C1 1073   6.436  18.066   9.847 -0.2666  0.1933 -0.0345
   68loPI    C2 1074   6.588  18.173  10.201  0.0166 -0.0079 -0.0917
   68loPI    C3 1075   6.409  17.817  10.159  0.0348 -0.0088 -0.1646
   68loPI   PO4 1076   6.546  18.040   9.651  0.5096 -0.3567 -0.0485
   68loPI   GL1 1077   6.340  17.777   9.276  0.2035  0.0266  0.1782
   68loPI   GL2 1078   6.368  17.465   9.184  0.1848  0.1698  0.0247
   68loPI   C1A 1079   6.662  17.804   8.952 -0.0369  0.0838  0.0255
   68loPI   C2A 1080   6.739  17.801   8.471 -0.3488 -0.0258 -0.1434
   68loPI   C3A 1081   6.729  17.980   7.961 -0.4364 -0.1686 -0.0225
   68loPI   C4A 1082   6.723  17.775   7.461 -0.0419 -0.1726 -0.0121
   68loPI   C5A 1083   6.644  17.455   7.124 -0.2176  0.2205  0.1165
   68loPI   C6A 1084   6.565  17.355   6.657  0.3105 -0.2662 -0.1121
   68loPI   C1B 1085   6.269  17.539   8.761 -0.2229 -0.0007  0.2631
   68loPI   C2B 1086   6.449  17.424   8.333 -0.1211  0.0580  0.2651
   68loPI   C3B 1087   6.405  17.617   7.946 -0.1555  0.1991 -0.0410
   68loPI   C4B 1088   6.209  17.499   7.574  0.0043  0.0511  0.3399
   69loPI    C1 1089  10.082   4.368   9.712 -0.3109  0.0930 -0.1384
   69loPI    C2 1090   9.719   4.206   9.670 -0.2344 -0.0810 -0.1382
   69loPI    C3 1091   9.914   4.171  10.018 -0.2794  0.1426 -0.0888
   69loPI   PO4 1092  10.074   4.475   9.351 -0.1219  0.1118 -0.1004
   69loPI   GL1 1093  10.278   4.394   8.968  0.0410  0.1200 -0.1025
   69loPI   GL2 1094  10.037   4.680   8.853  0.2540 -0.2265 -0.0894
   69loPI   C1A 1095  10.506   4.407   8.588 -0.0642 -0.1950  0.3702
   69loPI   C2A 1096  10.564   4.368   8.115  0.1045 -0.0587  0.0852
   69loPI   C3A 1097  10.667   4.773   7.721 -0.1678  0.1070 -0.1035
   69loPI   C4A 1098  10.837   5.174   7.441  0.1402 -0.0708 -0.3516
   69loPI   C5A 1099  11.012   5.647   7.424  0.1426 -0.1023 -0.0486
   69loPI   C6A 1100  10.755   5.955   7.671 -0.0629  0.0536 -0.0821
   69loPI   C1B 1101   9.643   4.807   8.523  0.1198  0.0782  0.3412
   69loPI   C2B 1102   9.495   4.791   8.040  0.2121  0.0224  0.3159
   69loPI   C3B 1103   9.179   4.656   7.653 -0.1590  0.0270  0.0519
   69loPI   C4B 1104   9.103   4.493   7.215  0.0234 -0.2109  0.3147
   70loPI    C1 1105  15.126  15.744   8.865  0.0952 -0.0185 -0.0566
   70loPI    C2 1106  14.920  15.897   9.172  0.0207  0.0894 -0.1595
   70loPI    C3 1107  15.097  15.540   9.209  0.0892  0.1425  0.0394
   70loPI   PO4 1108  14.990  15.848   8.625  0.0759  0.1557 -0.0311
   70loPI   GL1 1109  15.198  15.631   8.350  0.0616 -0.3131  0.1767
   70loPI   GL2 1110  15.231  15.286   8.454  0.2444 -0.1210 -0.0899
   70loPI   C1A 1111  15.047  15.428   7.938  0.1536  0.2230 -0.1372
   70loPI   C2A 1112  14.902  15.030   7.684  0.2963  0.2120 -0.0679
   70loPI   C3A 1113  14.962  14.924   7.272  0.0643  0.0713  0.0802
   70loPI   C4A 1114  15.271  14.887   7.032 -0.2936  0.1184  0.0741
   70loPI   C5A 1115  15.583  14.532   7.064  0.1683  0.0731 -0.0613
   70loPI   C6A 1116  15.918  14.365   7.015 -0.2875 -0.1338 -0.1617
   70loPI   C1B 1117  15.234  14.929   8.046  0.1625  0.0781 -0.1314
   70loPI   C2B 1118  15.395  14.777   7.630 -0.0080 -0.0910 -0.0441
   70loPI   C3B 1119  15.722  14.950   7.412  0.0898  0.1085 -0.2243
   70loPI   C4B 1120  15.777  15.228   7.054  0.1683  0.0991  0.1748
   71loPI    C1 1121  13.523  13.377   9.206 -0.0416 -0.1098  0.1899
   71loPI    C2 1122  13.675  13.030   9.080 -0.0600 -0.0492 -0.0020
   71loPI    C3 1123  13.807  13.194   9.420  0.2343 -0.0466 -0.1141
   71loPI   PO4 1124  13.546  13.500   8.998  0.0723  0.2900 -0.0176
   71loPI   GL1 1125  13.427  13.230   8.701  0.0426  0.1814  0.3347
   71loPI   GL2 1126  13.094  13.075   8.626  0.1345 -0.1134 -0.1208
   71loPI   C1A 1127  13.336  13.569   8.397 -0.0122  0.0255 -0.0708
   71loPI   C2A 1128  13.479  13.900   8.173 -0.2100 -0.2312  0.0027
   71loPI   C3A 1129  13.555  14.320   7.970  0.3106  0.2995  0.0800
   71loPI   C4A 1130  13.510  14.466   7.583 -0.2160  0.1056  0.0372
   71loPI   C5A 1131  13.335  14.541   7.265  0.3421 -0.0508 -0.0038
   71loPI   C6A 1132  13.005  14.534   7.005  0.0852  0.1145 -0.3196
   71loPI   C1B 1133  13.543  13.016   8.300  0.0036  0.0984  0.2215
   71loPI   C2B 1134  13.676  13.021   7.918 -0.2619 -0.0863  0.0842
   71loPI   C3B 1135  13.914  12.979   7.519  0.1128 -0.0667 -0.2800
   71loPI   C4B 1136  14.171  12.938   7.211 -0.5072  0.0224  0.1660
   72loPI    C1 1137  19.392   0.654  10.445 -0.0067  0.0429  0.0506
   72loPI    C2 1138  19.538   0.906  10.719 -0.0185  0.1212 -0.0145
   72loPI    C3 1139  19.543   0.511  10.787  0.0804  0.1331  0.0505
   72loPI   PO4 1140  19.463   0.672  10.208 -0.0274  0.2089 -0.0445
   72loPI   GL1 1141  19.677   0.763   9.758 -0.0682 -0.3485 -0.1033
   72loPI   GL2 1142  19.771   0.546   9.791 -0.3233 -0.1559 -0.1639
   72loPI   C1A 1143  19.464   0.812   9.359 -0.0649  0.0119 -0.0276
   72loPI   C2A 1144  19.574   1.047   9.041  0.1305 -0.0066  0.0649
   72loPI   C3A 1145  19.721   0.976   8.597 -0.1787 -0.3452  0.0820
   72loPI   C4A 1146  19.687   1.134   8.223  0.1012  0.0914  0.1008
   72loPI   C5A 1147  19.724   1.464   7.937  0.4088 -0.1732 -0.0537
   72loPI   C6A 1148  20.156   1.551   7.644 -0.5533 -0.1495 -0.1953
   72loPI   C1B 1149  19.434   0.375   9.603  0.3314  0.3004 -0.0646
   72loPI   C2B 1150  19.254   0.242   9.164  0.0426 -0.2534  0.2580
   72loPI   C3B 1151  19.332   0.193   8.680 -0.1273  0.0983  0.0617
   72loPI   C4B 1152  19.117   0.183   8.376  0.1199  0.0739 -0.0001
   73loPI    C1 1153   6.103   2.698   9.825 -0.1288 -0.0258  0.0692
   73loPI    C2 1154   6.333   2.619  10.143  0.0278  0.2911  0.0389
   73loPI    C3 1155   5.974   2.789  10.192 -0.0073  0.2124  0.0552
   73loPI   PO4 1156   6.308   2.750   9.650 -0.0870  0.0618 -0.4146
   73loPI   GL1 1157   6.361   3.027   9.418  0.0173 -0.2022  0.1201
   73loPI   GL2 1158   6.424   2.681   9.201  0.2216 -0.1920 -0.0092
   73loPI   C1A 1159   6.102   3.132   9.090  0.0746 -0.0046  0.1354
   73loPI   C2A 1160   5.813   3.246   8.748  0.1048 -0.1482  0.1990
   73loPI   C3A 1161   5.586   3.241   8.322  0.2127 -0.2716  0.4697
   73loPI   C4A 1162   5.330   3.276   7.997  0.0041 -0.1203  0.1492
   73loPI   C5A 1163   5.022   3.087   7.713 -0.2798  0.3784 -0.1373
   73loPI   C6A 1164   4.686   2.934   7.601 -0.2979  0.0378 -0.0767
   73loPI   C1B 1165   6.571   3.024   8.985 -0.2845  0.2314  0.0159
   73loPI   C2B 1166   6.384   3.402   8.717 -0.1182  0.0404  0.1513
   73loPI   C3B 1167   6.465   3.707   8.433 -0.5669 -0.1626 -0.1774
   73loPI   C4B 1168   6.535   3.769   8.014 -0.3356 -0.2163  0.3500
   74loPI    C1 1169  18.802  10.131   9.863 -0.1407  0.0401  0.1008
   74loPI    C2 1170  18.935   9.962  10.201 -0.1198 -0.1206  0.0131
   74loPI    C3 1171  19.041  10.337  10.109  0.1979 -0.2129 -0.0091
   74loPI   PO4 1172  18.852  10.000   9.524  0.0174  0.2409  0.2830
   74loPI   GL1 1173  18.895  10.068   9.104 -0.1543 -0.0739  0.2321
   74loPI   GL2 1174  18.868  10.437   8.931 -0.0165  0.1642  0.0375
   74loPI   C1A 1175  19.000   9.691   8.786  0.1353  0.2564 -0.1895
   74loPI   C2A 1176  18.874   9.457   8.415  0.2287 -0.1110 -0.3471
   74loPI   C3A 1177  18.444   9.448   8.204  0.0157  0.1227  0.2655
   74loPI   C4A 1178  18.106   9.788   8.160 -0.0086  0.1771  0.1944
   74loPI   C5A 1179  17.938  10.011   7.749  0.1843 -0.0610 -0.2178
   74loPI   C6A 1180  17.872   9.576   7.507 -0.2866 -0.0250  0.2562
   74loPI   C1B 1181  18.926  10.167   8.585  0.0603  0.0472 -0.1681
   74loPI   C2B 1182  19.182  10.128   8.200 -0.3823 -0.1451 -0.1516
   74loPI   C3B 1183  19.265   9.849   7.873 -0.2030 -0.3596  0.0170
   74loPI   C4B 1184  19.322   9.822   7.430 -0.2299 -0.2130  0.0176
   75loPI    C1 1185   0.419  15.057  10.084  0.2603  0.0372 -0.1565
   75loPI    C2 1186   0.454  14.726  10.306 -0.0382  0.0625 -0.0673
   75loPI    C3 1187   0.299  15.059  10.465 -0.0361  0.1508 -0.2474
   75loPI   PO4 1188   0.620  15.041   9.940  0.2948 -0.1241  0.2248
   75loPI   GL1 1189   0.654  15.183   9.491 -0.2052 -0.1336 -0.3777
   75loPI   GL2 1190   0.849  15.260   9.302 -0.0674  0.0812  0.2441
   75loPI   C1A 1191   0.267  15.308   9.267 -0.1760  0.2362 -0.1117
   75loPI   C2A 1192   0.056  15.520   8.951  0.3115 -0.0177  0.2921
   75loPI   C3A 1193  -0.072  15.520   8.559  0.2832 -0.0394 -0.1557
   75loPI   C4A 1194  -0.064  15.597   8.174  0.2501 -0.1490 -0.0464
   75loPI   C5A 1195  -0.088  15.454   7.595 -0.2234  0.2133  0.0492
   75loPI   C6A 1196   0.413  15.458   7.471  0.1567 -0.0034 -0.0816
   75loPI   C1B 1197   0.600  15.419   8.881 -0.0947  0.1263  0.1978
   75loPI   C2B 1198   0.664  15.633   8.520  0.0107 -0.0486  0.0427
   75loPI   C3B 1199   0.403  15.661   8.240  0.0577  0.2667 -0.2034
   75loPI   C4B 1200   0.475  15.823   7.862 -0.0846  0.1189 -0.0562
   76loPI    C1 1201   2.746  12.966   9.785  0.3019 -0.0568  0.0836
   76loPI    C2 1202   2.831  13.352   9.847  0.1331 -0.0646  0.3807
   76loPI    C3 1203   3.081  13.068   9.978  0.2158 -0.0593  0.2361
   76loPI   PO4 1204   2.725  12.961   9.507 -0.3367  0.2098 -0.1435
   76loPI   GL1 1205   2.763  13.169   9.187  0.0850 -0.0726 -0.2063
   76loPI   GL2 1206   2.513  13.266   9.104 -0.1272  0.0349  0.1032
   76loPI   C1A 1207   3.021  13.271   8.709  0.1366 -0.0717 -0.0183
   76loPI   C2A 1208   3.028  13.439   8.359 -0.1194  0.0499  0.0065
   76loPI   C3A 1209   3.017  13.713   8.054 -0.0785 -0.1965  0.0517
   76loPI   C4A 1210   3.186  13.937   7.698  0.1644 -0.1101 -0.0909
   76loPI   C5A 1211   3.436  14.065   7.327 -0.2401 -0.0041 -0.1816
   76loPI   C6A 1212   3.411  13.989   6.891 -0.3129 -0.0645  0.0159
   76loPI   C1B 1213   2.493  13.310   8.619 -0.0960  0.1842  0.0247
   76loPI   C2B 1214   2.469  13.376   8.215  0.4724  0.0075  0.0600
   76loPI   C3B 1215   2.505  13.435   7.721 -0.2339 -0.4319  0.2435
   76loPI   C4B 1216   2.634  13.163   7.508 -0.1452  0.2322  0.1290
   77loPI    C1 1217  15.450  12.748   9.288 -0.1970 -0.0656  0.0461
   77loPI    C2 1218  15.450  13.072   9.522  0.0029 -0.1141  0.1145
   77loPI    C3 1219  15.178  12.785   9.579 -0.1003 -0.0137  0.1307
   77loPI   PO4 1220  15.467  12.816   9.029  0.5371  0.1807 -0.1530
   77loPI   GL1 1221  15.519  12.712   8.615  0.3475 -0.1923  0.1768
   77loPI   GL2 1222  15.203  12.573   8.624 -0.1186  0.0105 -0.2544
   77loPI   C1A 1223  15.539  12.569   8.157 -0.0937  0.0970  0.3657
   77loPI   C2A 1224  15.867  12.580   7.913  0.0131 -0.0871 -0.0976
   77loPI   C3A 1225  16.059  12.260   7.692 -0.2595  0.2024 -0.0741
   77loPI   C4A 1226  16.086  12.010   7.275 -0.3720 -0.1263 -0.4205
   77loPI   C5A 1227  16.311  11.623   7.102 -0.0051  0.3916 -0.0184
   77loPI   C6A 1228  16.668  11.538   7.156  0.1217 -0.1615 -0.0984
   77loPI   C1B 1229  15.079  12.673   8.155 -0.0021 -0.1761  0.0043
   77loPI   C2B 1230  14.970  12.628   7.700 -0.0178  0.1022 -0.1620
   77loPI   C3B 1231  14.822  12.751   7.317  0.0148 -0.1577  0.1843
   77loPI   C4B 1232  14.734  12.657   6.933 -0.0351  0.3054  0.3265
   78loPI    C1 1233  13.486  17.688   9.611 -0.0030  0.1318  0.0690
   78loPI    C2 1234  13.166  17.927   9.637  0.0303  0.1752  0.0815
   78loPI    C3 1235  13.207  17.618   9.888 -0.0402  0.1231  0.0295
   78loPI   PO4 1236  13.555  17.721   9.282  0.0877 -0.2626 -0.0236
   78loPI   GL1 1237  13.820  17.528   9.009  0.1909 -0.1531 -0.2451
   78loPI   GL2 1238  13.631  17.305   8.965  0.2369  0.3636  0.2676
   78loPI   C1A 1239  13.759  17.778   8.635  0.0932 -0.2567 -0.3446
   78loPI   C2A 1240  13.648  18.004   8.262 -0.0933 -0.2072  0.2176
   78loPI   C3A 1241  13.586  18.307   7.977 -0.0689  0.3265 -0.1588
   78loPI   C4A 1242  13.472  18.679   7.981  0.0686 -0.1023 -0.1960
   78loPI   C5A 1243  13.759  19.009   8.102  0.3593 -0.2272 -0.1651
   78loPI   C6A 1244  13.765  19.180   8.509 -0.1343 -0.0068  0.1686
   78loPI   C1B 1245  13.683  17.338   8.541  0.1289  0.3115  0.0716
   78loPI   C2B 1246  13.589  17.229   8.076 -0.1575 -0.2164  0.1160
   78loPI   C3B 1247  13.532  17.285   7.627 -0.4766 -0.1607 -0.1926
   78loPI   C4B 1248  13.657  17.315   7.225 -0.0801  0.0745  0.1670
   79loPI    C1 1249   7.925  18.087   9.923 -0.1053  0.0759  0.0039
   79loPI    C2 1250   8.169  18.306  10.152 -0.0724  0.0815 -0.0363
   79loPI    C3 1251   7.915  18.047  10.321  0.0907 -0.0592 -0.0037
   79loPI   PO4 1252   7.922  18.197   9.723  0.0551  0.2066 -0.0846
   79loPI   GL1 1253   8.166  18.378   9.354  0.2042  0.0780 -0.2272
   79loPI   GL2 1254   8.284  18.645   9.154 -0.3903  0.2246  0.0701
   79loPI   C1A 1255   8.087  18.174   9.071  0.0714  0.1935  0.2475
   79loPI   C2A 1256   8.122  18.157   8.638  0.2799  0.1064 -0.0894
   79loPI   C3A 1257   7.995  18.086   8.276 -0.0695  0.1377  0.1780
   79loPI   C4A 1258   7.839  17.834   8.224  0.0145  0.2985  0.3093
   79loPI   C5A 1259   8.007  17.432   7.979  0.2871 -0.0959 -0.1782
   79loPI   C6A 1260   8.145  17.300   7.675  0.1795  0.0962  0.0423
   79loPI   C1B 1261   7.953  18.613   8.895  0.0494  0.1686 -0.1134
   79loPI   C2B 1262   7.784  18.552   8.338  0.1255  0.2493 -0.1242
   79loPI   C3B 1263   8.028  18.582   7.997 -0.0241  0.2797  0.1650
   79loPI   C4B 1264   8.132  18.616   7.611 -0.2233 -0.2679 -0.1002
   80loPI    C1 1265   1.234   7.808  10.658  0.0396 -0.2299 -0.1075
   80loPI    C2 1266   1.603   7.675  10.737  0.0501 -0.1304  0.0127
   80loPI    C3 1267   1.495   8.044  10.848  0.0620  0.0122 -0.4297
   80loPI   PO4 1268   1.197   7.742  10.371 -0.0017 -0.0650 -0.3129
   80loPI   GL1 1269   1.236   7.909   9.904 -0.4419 -0.2330  0.1776
   80loPI   GL2 1270   1.132   7.926   9.587 -0.0115  0.0525  0.2762
   80loPI   C1A 1271   1.409   7.478   9.491 -0.2136 -0.0228  0.0703
   80loPI   C2A 1272   1.386   7.214   9.157 -0.2284 -0.0084 -0.2482
   80loPI   C3A 1273   1.349   7.132   8.733 -0.1567  0.4604  0.0243
   80loPI   C4A 1274   1.226   6.866   8.447  0.0787  0.3268  0.0583
   80loPI   C5A 1275   1.275   6.683   7.995  0.1220  0.0676 -0.1753
   80loPI   C6A 1276   0.915   6.308   7.881 -0.1322 -0.0242 -0.2952
   80loPI   C1B 1277   0.965   7.798   9.217  0.2403 -0.1598 -0.0034
   80loPI   C2B 1278   1.285   7.621   8.821 -0.0685  0.2090 -0.1975
   80loPI   C3B 1279   1.436   7.622   8.319 -0.1363  0.2170  0.2999
   80loPI   C4B 1280   1.666   7.482   8.044 -0.0497  0.0036 -0.7244
   81loPI    C1 1281  13.436  13.935   9.365 -0.1442  0.1446 -0.1950
   81loPI    C2 1282  13.805  13.897   9.215 -0.0538 -0.1926  0.0997
   81loPI    C3 1283  13.628  14.255   9.221  0.3164 -0.0038  0.0660
   81loPI   PO4 1284  13.199  13.814   9.170 -0.2976  0.0492  0.0574
   81loPI   GL1 1285  12.992  13.932   8.818 -0.1384 -0.0378 -0.0439
   81loPI   GL2 1286  12.664  13.908   8.834  0.1263 -0.0153  0.0119
   81loPI   C1A 1287  12.943  13.947   8.454  0.0075  0.0336 -0.1357
   81loPI   C2A 1288  12.963  13.841   8.062 -0.4130 -0.0059 -0.2924
   81loPI   C3A 1289  12.852  13.651   7.683 -0.1554 -0.1802  0.0538
   81loPI   C4A 1290  12.773  13.167   7.564 -0.1501 -0.1689 -0.0344
   81loPI   C5A 1291  12.713  12.905   7.285  0.2065  0.0609 -0.2366
   81loPI   C6A 1292  12.553  12.546   7.013 -0.1082 -0.1424 -0.0141
   81loPI   C1B 1293  12.419  13.870   8.433  0.1507  0.0824 -0.1072
   81loPI   C2B 1294  12.452  13.863   7.998 -0.2286  0.0683  0.0478
   81loPI   C3B 1295  12.366  13.882   7.540  0.1575  0.3593 -0.1126
   81loPI   C4B 1296  12.277  13.885   7.038 -0.1087  0.2849 -0.2310
   82loPI    C1 1297   8.375  10.035   9.881 -0.1474 -0.1542  0.1223
   82loPI    C2 1298   8.372  10.361  10.113 -0.0313  0.0229 -0.1202
   82loPI    C3 1299   8.719  10.186  10.017 -0.0699  0.0129 -0.2441
   82loPI   PO4 1300   8.227  10.140   9.638 -0.1461  0.0750 -0.0026
   82loPI   GL1 1301   8.163   9.934   9.230  0.0347 -0.1512  0.0544
   82loPI   GL2 1302   8.066  10.155   9.102  0.2551 -0.1103  0.1533
   82loPI   C1A 1303   8.249   9.697   8.858 -0.0434 -0.2772 -0.2118
   82loPI   C2A 1304   8.449   9.674   8.415  0.2229  0.1246 -0.2362
   82loPI   C3A 1305   8.709   9.646   8.060 -0.2928  0.0359  0.3515
   82loPI   C4A 1306   8.631   9.658   7.654 -0.0068 -0.0927  0.0167
   82loPI   C5A 1307   8.349   9.763   7.361 -0.2075  0.0461  0.1051
   82loPI   C6A 1308   8.464   9.940   6.928 -0.4626  0.1595  0.0181
   82loPI   C1B 1309   7.865  10.336   8.740  0.1323  0.0959  0.4604
   82loPI   C2B 1310   7.756  10.363   8.234  0.0846  0.0959 -0.3131
   82loPI   C3B 1311   7.821  10.229   7.843 -0.1099  0.2527  0.1028
   82loPI   C4B 1312   7.803   9.958   7.391  0.1121 -0.3162  0.1494
   83loPI    C1 1313  13.968  15.538   9.373 -0.0900 -0.0941 -0.1267
   83loPI    C2 1314  14.342  15.678   9.389 -0.1360  0.0253 -0.0808
   83loPI    C3 1315  14.269  15.292   9.467 -0.0023 -0.0369 -0.2554
   83loPI   PO4 1316  13.799  15.650   9.138  0.5130 -0.1838  0.0847
   83loPI   GL1 1317  13.522  15.363   8.859 -0.0793 -0.0800 -0.0491
   83loPI   GL2 1318  13.695  15.099   8.695  0.1823  0.0020 -0.1280
   83loPI   C1A 1319  13.492  15.560   8.451 -0.2376 -0.0955 -0.1100
   83loPI   C2A 1320  13.409  15.668   8.053  0.0863 -0.1757  0.1792
   83loPI   C3A 1321  13.393  15.847   7.680  0.2814  0.0107  0.0296
   83loPI   C4A 1322  13.400  15.849   7.239 -0.0109  0.1350  0.0725
   83loPI   C5A 1323  13.399  15.826   6.754 -0.0414 -0.1532  0.0524
   83loPI   C6A 1324  13.299  15.817   6.387  0.2044 -0.1648  0.2028
   83loPI   C1B 1325  13.661  15.199   8.225 -0.4398 -0.1695 -0.2308
   83loPI   C2B 1326  13.604  15.336   7.753  0.0718  0.2068  0.4147
   83loPI   C3B 1327  13.709  15.415   7.309 -0.2300 -0.0794  0.4730
   83loPI   C4B 1328  13.561  15.384   6.930  0.0496 -0.1620 -0.1071
   84loPI    C1 1329  18.856  16.192  10.023 -0.1708 -0.1359 -0.1952
   84loPI    C2 1330  18.821  16.252  10.417  0.0205  0.3682 -0.2466
   84loPI    C3 1331  18.896  15.885  10.275 -0.4117  0.1129  0.1557
   84loPI   PO4 1332  19.034  16.399   9.970  0.1171 -0.1786  0.0507
   84loPI   GL1 1333  19.019  16.599   9.487 -0.3335 -0.0690 -0.0146
   84loPI   GL2 1334  18.914  16.296   9.520  0.0221  0.0580  0.1337
   84loPI   C1A 1335  19.127  16.768   9.018  0.1055  0.1381  0.0088
   84loPI   C2A 1336  19.388  16.937   8.757 -0.1361 -0.0760  0.1968
   84loPI   C3A 1337  19.427  17.178   8.420 -0.0870  0.3643 -0.0655
   84loPI   C4A 1338  19.590  17.253   8.151 -0.0402 -0.1030 -0.2626
   84loPI   C5A 1339  19.492  17.166   7.797  0.3147 -0.1712 -0.1271
   84loPI   C6A 1340  19.547  16.787   7.519 -0.3409 -0.1863 -0.1344
   84loPI   C1B 1341  18.900  16.280   9.034 -0.0199  0.3720  0.0830
   84loPI   C2B 1342  18.814  16.368   8.592  0.2993 -0.0574 -0.1365
   84loPI   C3B 1343  18.735  16.094   8.253  0.2234  0.0830 -0.3903
   84loPI   C4B 1344  18.692  16.173   7.875 -0.0486  0.0685  0.0785
   85loPI    C1 1345   3.833  16.499  10.081 -0.2033 -0.1843  0.0614
   85loPI    C2 1346   3.734  16.226   9.806 -0.2747 -0.1294  0.0323
   85loPI    C3 1347   3.928  16.114  10.137 -0.0642 -0.1749 -0.1046
   85loPI   PO4 1348   3.974  16.654   9.958 -0.2589  0.0892  0.1615
   85loPI   GL1 1349   4.133  16.762   9.598  0.0473 -0.2159 -0.0799
   85loPI   GL2 1350   4.304  17.028   9.569 -0.1414 -0.1107  0.1575
   85loPI   C1A 1351   4.028  16.922   9.140 -0.1451 -0.1762  0.1613
   85loPI   C2A 1352   4.314  16.932   8.810  0.0414  0.2414  0.2610
   85loPI   C3A 1353   4.493  16.776   8.402  0.0062 -0.2168 -0.0437
   85loPI   C4A 1354   4.437  16.605   7.968 -0.0340  0.1865 -0.0123
   85loPI   C5A 1355   4.600  16.407   7.561  0.2154  0.1397  0.0803
   85loPI   C6A 1356   4.425  16.169   7.241  0.3745 -0.0834 -0.0914
   85loPI   C1B 1357   4.262  17.349   9.390 -0.0646 -0.0621 -0.0459
   85loPI   C2B 1358   4.023  17.542   9.062 -0.2358  0.1397 -0.0817
   85loPI   C3B 1359   3.926  17.206   8.757  0.1413  0.1681  0.2189
   85loPI   C4B 1360   3.892  16.848   8.566  0.1326 -0.2211  0.5722
   86loPI    C1 1361  13.035   5.616   9.562  0.0308 -0.1740  0.2093
   86loPI    C2 1362  13.085   5.763   9.930  0.0528  0.1997  0.0608
   86loPI    C3 1363  13.380   5.557   9.755  0.0934  0.1406  0.1975
   86loPI   PO4 1364  12.850   5.829   9.500 -0.3666 -0.0633 -0.1482
   86loPI   GL1 1365  12.747   5.966   9.116 -0.1143  0.2265 -0.0101
   86loPI   GL2 1366  13.096   5.876   9.058 -0.2952 -0.0800  0.0548
   86loPI   C1A 1367  12.413   6.029   8.877 -0.2418 -0.1480 -0.4121
   86loPI   C2A 1368  12.284   6.071   8.596  0.2674  0.1590 -0.0412
   86loPI   C3A 1369  12.161   6.133   8.264 -0.0372 -0.1703  0.1936
   86loPI   C4A 1370  12.188   6.330   7.894  0.1524  0.1132  0.0457
   86loPI   C5A 1371  12.153   6.255   7.480 -0.1567  0.0653  0.3264
   86loPI   C6A 1372  11.920   5.997   7.190 -0.0049 -0.0492  0.0343
   86loPI   C1B 1373  13.190   6.033   8.631 -0.1143 -0.0362 -0.2879
   86loPI   C2B 1374  13.311   5.994   8.188  0.0810 -0.0654 -0.1132
   86loPI   C3B 1375  13.255   6.063   7.788 -0.2214 -0.1072  0.1281
   86loPI   C4B 1376  13.141   6.138   7.374 -0.0085  0.0183  0.0690
   87loPI    C1 1377   8.424   0.763   9.609  0.0420 -0.0157 -0.0686
   87loPI    C2 1378   8.566   0.483   9.361  0.0311 -0.1626  0.0890
   87loPI    C3 1379   8.206   0.437   9.530 -0.0273  0.0104  0.0132
   87loPI   PO4 1380   8.414   0.931   9.482  0.3914 -0.0934  0.5049
   87loPI   GL1 1381   8.145   1.081   9.057 -0.0491 -0.2043 -0.0735
   87loPI   GL2 1382   8.236   1.482   8.963 -0.0523 -0.0105  0.2858
   87loPI   C1A 1383   7.914   0.990   8.725 -0.1871 -0.1338  0.1605
   87loPI   C2A 1384   8.003   1.093   8.307  0.2849  0.0468 -0.0436
   87loPI   C3A 1385   8.161   1.039   7.908 -0.0348 -0.6341  0.1754
   87loPI   C4A 1386   8.197   0.972   7.417  0.0764  0.2242 -0.2341
   87loPI   C5A 1387   8.278   0.843   7.032 -0.0130  0.3128  0.2289
   87loPI   C6A 1388   8.318   0.808   6.617  0.0200  0.1476 -0.0416
   87loPI   C1B 1389   8.343   1.549   8.489 -0.3227 -0.3258 -0.0007
   87loPI   C2B 1390   8.562   1.396   8.110  0.1353 -0.2062 -0.1285
   87loPI   C3B 1391   8.709   1.390   7.693  0.3288 -0.1769  0.2782
   87loPI   C4B 1392   8.860   1.524   7.269 -0.0203  0.4029  0.0746
   88loPI    C1 1393   8.045   7.327  10.007 -0.0463  0.0990  0.0562
   88loPI    C2 1394   7.842   7.053  10.217 -0.0433  0.1755  0.1597
   88loPI    C3 1395   8.234   7.007  10.157 -0.0770  0.0637  0.0199
   88loPI   PO4 1396   7.963   7.369   9.843 -0.0996 -0.2152 -0.0821
   88loPI   GL1 1397   7.771   7.499   9.438 -0.3655  0.0195  0.0466
   88loPI   GL2 1398   7.848   7.100   9.412 -0.3916  0.0349 -0.0804
   88loPI   C1A 1399   7.634   7.462   8.979 -0.1303  0.1417  0.1986
   88loPI   C2A 1400   7.463   7.129   8.631 -0.1587 -0.1865  0.2842
   88loPI   C3A 1401   7.376   6.788   8.238  0.3688 -0.1526  0.3474
   88loPI   C4A 1402   7.290   6.530   7.951 -0.0747  0.0653 -0.2776
   88loPI   C5A 1403   6.905   6.304   7.766 -0.0185 -0.2686 -0.0471
   88loPI   C6A 1404   6.564   6.294   7.634 -0.0896 -0.3981  0.0656
   88loPI   C1B 1405   7.872   6.853   9.100 -0.1382 -0.3406 -0.0181
   88loPI   C2B 1406   7.832   6.664   8.640 -0.1616 -0.2296  0.0936
   88loPI   C3B 1407   7.801   6.468   8.334 -0.2619  0.1031 -0.2577
   88loPI   C4B 1408   7.671   6.182   8.035  0.0625 -0.0912  0.1551
   89loPI    C1 1409  17.285  17.781   9.825  0.0209 -0.2293 -0.3810
   89loPI    C2 1410  17.586  17.588  10.005 -0.1068 -0.0373  0.0504
   89loPI    C3 1411  17.235  17.405   9.952 -0.0714 -0.0914  0.0016
   89loPI   PO4 1412  17.393  17.929   9.592 -0.0073 -0.1196  0.2921
   89loPI   GL1 1413  17.647  17.799   9.277 -0.3640 -0.0235 -0.0187
   89loPI   GL2 1414  17.748  18.031   9.133  0.1595 -0.0831  0.1722
   89loPI   C1A 1415  17.484  17.719   8.773  0.3772  0.3296 -0.2789
   89loPI   C2A 1416  17.601  17.617   8.429  0.3261 -0.2516  0.0999
   89loPI   C3A 1417  17.618  17.564   8.081  0.0071  0.0552 -0.1775
   89loPI   C4A 1418  17.705  17.712   7.682 -0.1363  0.3014  0.1139
   89loPI   C5A 1419  17.479  17.790   7.333 -0.2140  0.0714 -0.3656
   89loPI   C6A 1420  17.425  17.782   6.934 -0.3353  0.0465 -0.0669
   89loPI   C1B 1421  17.602  18.364   8.903  0.0052 -0.0200  0.2425
   89loPI   C2B 1422  17.529  18.437   8.452  0.0861  0.3032  0.3590
   89loPI   C3B 1423  17.102  18.376   8.283 -0.0194 -0.1041 -0.3644
   89loPI   C4B 1424  16.755  18.582   8.201 -0.2857  0.0470 -0.1622
   90loPI    C1 1425  16.522  12.421   9.234 -0.0592  0.0626  0.1516
   90loPI    C2 1426  16.290  12.530   8.928 -0.2798 -0.1674  0.2337
   90loPI    C3 1427  16.390  12.798   9.207 -0.0519  0.0517 -0.0513
   90loPI   PO4 1428  16.524  12.200   9.251 -0.2078 -0.0961 -0.0104
   90loPI   GL1 1429  16.664  12.023   8.980 -0.0989  0.4796 -0.3013
   90loPI   GL2 1430  16.964  11.988   8.905  0.2590  0.0008  0.2542
   90loPI   C1A 1431  16.494  12.175   8.634  0.0791 -0.4022 -0.2513
   90loPI   C2A 1432  16.643  12.120   8.243  0.0600 -0.1521 -0.0837
   90loPI   C3A 1433  16.799  12.315   7.842  0.1288 -0.0188  0.0125
   90loPI   C4A 1434  16.677  12.347   7.438  0.1922 -0.0368  0.0032
   90loPI   C5A 1435  16.628  12.062   7.083 -0.3302  0.1883 -0.1947
   90loPI   C6A 1436  16.554  11.902   6.655  0.0439 -0.0858  0.1256
   90loPI   C1B 1437  16.975  11.841   8.592  0.1446  0.0327 -0.1704
   90loPI   C2B 1438  17.075  11.945   8.165  0.2368  0.0551  0.0693
   90loPI   C3B 1439  17.010  11.899   7.705  0.1452 -0.1080 -0.3601
   90loPI   C4B 1440  16.554  11.875   7.558  0.2807 -0.1012  0.2547
   91loPI    C1 1441  11.397   0.220   8.990  0.2043 -0.0684 -0.1270
   91loPI    C2 1442  11.592   0.175   9.337  0.0189 -0.0604 -0.0207
   91loPI    C3 1443  11.255  -0.030   9.267 -0.1071  0.1611 -0.0737
   91loPI   PO4 1444  11.615   0.206   8.849 -0.1477  0.0943 -0.2587
   91loPI   GL1 1445  11.602   0.321   8.364 -0.0443 -0.0839 -0.1597
   91loPI   GL2 1446  11.315   0.357   8.476 -0.1229  0.4933 -0.2134
   91loPI   C1A 1447  11.727   0.296   7.888  0.1020  0.0192 -0.2921
   91loPI   C2A 1448  11.673   0.150   7.478 -0.1808  0.0038 -0.0637
   91loPI   C3A 1449  11.754  -0.042   7.083  0.1929 -0.4195  0.0502
   91loPI   C4A 1450  11.429  -0.182   6.780 -0.0169 -0.1006 -0.1591
   91loPI   C5A 1451  11.270  -0.468   6.544  0.2011  0.0420 -0.1626
   91loPI   C6A 1452  11.318  -0.917   6.265  0.1119  0.0513 -0.0305
   91loPI   C1B 1453  11.127   0.336   8.139  0.0423  0.1512  0.1885
   91loPI   C2B 1454  10.797   0.412   7.769 -0.2532 -0.0115 -0.1284
   91loPI   C3B 1455  10.851   0.298   7.367 -0.0798  0.0769 -0.0444
   91loPI   C4B 1456  10.593   0.475   7.049 -0.0536 -0.2342 -0.0667
   92loPI    C1 1457   9.327   8.113   9.972  0.0389 -0.1768 -0.0498
   92loPI    C2 1458   9.645   8.349  10.028 -0.0475  0.0014 -0.2886
   92loPI    C3 1459   9.621   7.996  10.216  0.2862 -0.0102 -0.2620
   92loPI   PO4 1460   9.273   8.214   9.722 -0.2033 -0.2066  0.0032
   92loPI   GL1 1461   8.952   8.332   9.531  0.0688 -0.1579  0.4511
   92loPI   GL2 1462   9.002   8.762   9.559  0.0783 -0.0218  0.1355
   92loPI   C1A 1463   8.967   8.319   9.139  0.1217  0.3197  0.0958
   92loPI   C2A 1464   8.996   8.334   8.839  0.1667 -0.0220  0.3099
   92loPI   C3A 1465   9.207   8.278   8.401  0.0818 -0.0565 -0.3039
   92loPI   C4A 1466   9.200   8.334   7.981  0.1174 -0.1804 -0.3167
   92loPI   C5A 1467   9.042   8.173   7.620  0.0442  0.0088  0.0259
   92loPI   C6A 1468   8.763   8.157   7.293  0.1381  0.0607  0.1187
   92loPI   C1B 1469   9.215   8.713   9.210 -0.1970  0.0605  0.0442
   92loPI   C2B 1470   9.435   8.819   8.853 -0.1291 -0.4428  0.0617
   92loPI   C3B 1471   9.359   8.800   8.378  0.1686 -0.0610  0.3096
   92loPI   C4B 1472   9.094   8.810   7.996  0.1342 -0.2423 -0.0292
   93loPI    C1 1473   1.287  12.132   9.575 -0.0536 -0.0234 -0.3979
   93loPI    C2 1474   1.682  12.161   9.519  0.0355 -0.1749  0.1040
   93loPI    C3 1475   1.505  11.802   9.510 -0.0864 -0.1110 -0.0827
   93loPI   PO4 1476   1.218  12.303   9.320  0.0726  0.2160  0.2551
   93loPI   GL1 1477   1.192  12.569   8.979  0.1377  0.1264 -0.1298
   93loPI   GL2 1478   1.039  12.269   8.835 -0.1753 -0.1747 -0.1224
   93loPI   C1A 1479   1.268  12.541   8.512 -0.2094  0.0218 -0.0369
   93loPI   C2A 1480   1.227  12.525   8.116  0.0623  0.2523 -0.2671
   93loPI   C3A 1481   0.943  12.320   7.813 -0.1170  0.1359 -0.1226
   93loPI   C4A 1482   0.984  12.218   7.388  0.1063  0.2380 -0.0503
   93loPI   C5A 1483   1.212  12.156   7.195 -0.0345  0.0265 -0.0598
   93loPI   C6A 1484   1.243  12.210   6.764 -0.0513  0.0474  0.1105
   93loPI   C1B 1485   0.968  12.194   8.370  0.2255 -0.1610 -0.3009
   93loPI   C2B 1486   0.720  11.896   8.040 -0.1135  0.1065 -0.2370
   93loPI   C3B 1487   0.606  11.939   7.699 -0.1444 -0.1609  0.0761
   93loPI   C4B 1488   0.783  11.698   7.485 -0.2044  0.1395 -0.0976
   94loPI    C1 1489   7.448   6.653  10.292 -0.2230  0.1219 -0.2320
   94loPI    C2 1490   7.285   7.016  10.327 -0.2255  0.1050 -0.0622
   94loPI    C3 1491   7.284   6.765  10.638 -0.0891  0.0154 -0.1328
   94loPI   PO4 1492   7.384   6.625   9.982 -0.4138 -0.2200  0.1939
   94loPI   GL1 1493   7.306   6.429   9.560 -0.0514  0.0212  0.2190
   94loPI   GL2 1494   7.417   6.834   9.407 -0.1008  0.1298 -0.0346
   94loPI   C1A 1495   7.239   6.515   9.069  0.0038  0.1376 -0.2154
   94loPI   C2A 1496   7.392   6.561   8.770 -0.2496  0.1162  0.2456
   94loPI   C3A 1497   7.241   6.300   8.530  0.0512 -0.0392 -0.2454
   94loPI   C4A 1498   7.267   6.032   8.245  0.1338 -0.1248  0.0090
   94loPI   C5A 1499   7.256   5.855   7.844  0.0890  0.0803 -0.0401
   94loPI   C6A 1500   7.657   5.926   7.484  0.1709  0.4795  0.0946
   94loPI   C1B 1501   7.008   6.784   9.435  0.2193 -0.3888  0.2604
   94loPI   C2B 1502   6.625   6.707   9.149  0.1371  0.0460 -0.3784
   94loPI   C3B 1503   6.332   6.629   8.814 -0.1012  0.0506  0.2381
   94loPI   C4B 1504   6.445   6.320   8.601 -0.2052 -0.1038  0.3132
   95loPI    C1 1505  16.434  14.921   9.350 -0.1079 -0.1199  0.1815
   95loPI    C2 1506  16.190  14.991   9.660  0.1840 -0.0154  0.3917
   95loPI    C3 1507  16.392  14.646   9.638 -0.0628 -0.1487  0.1607
   95loPI   PO4 1508  16.344  15.164   9.198  0.1132 -0.0574  0.1238
   95loPI   GL1 1509  16.183  15.387   8.947  0.0607  0.0598 -0.1466
   95loPI   GL2 1510  16.327  15.530   8.707  0.0534  0.1957  0.4903
   95loPI   C1A 1511  16.079  15.122   8.551  0.3193 -0.0277  0.3979
   95loPI   C2A 1512  16.169  14.949   8.176 -0.1528  0.4126 -0.1999
   95loPI   C3A 1513  16.071  15.015   7.743 -0.2600  0.2342  0.1347
   95loPI   C4A 1514  16.154  14.844   7.163 -0.4473  0.1839 -0.0860
   95loPI   C5A 1515  16.532  14.730   6.891 -0.0239 -0.3119 -0.1216
   95loPI   C6A 1516  17.020  14.633   6.958 -0.0472 -0.0799 -0.0375
   95loPI   C1B 1517  16.235  15.498   8.307  0.3475 -0.3240  0.1702
   95loPI   C2B 1518  16.102  15.478   7.926 -0.3068 -0.1120  0.1310
   95loPI   C3B 1519  15.936  15.470   7.496 -0.0524 -0.0662  0.2082
   95loPI   C4B 1520  16.180  15.512   7.108 -0.1678 -0.2738  0.0567
   96loPI    C1 1521   4.225  18.542  10.150  0.1253 -0.5043  0.1689
   96loPI    C2 1522   4.507  18.502   9.869  0.1025 -0.0949  0.0806
   96loPI    C3 1523   4.595  18.678  10.217 -0.0378  0.0161  0.0608
   96loPI   PO4 1524   3.977  18.505   9.905  0.1089 -0.2063  0.0283
   96loPI   GL1 1525   4.155  18.478   9.493 -0.1844  0.2688 -0.4333
   96loPI   GL2 1526   4.144  18.187   9.603  0.0535 -0.2400  0.2228
   96loPI   C1A 1527   4.513  18.412   9.132  0.1666  0.0047 -0.0975
   96loPI   C2A 1528   4.622  18.322   8.765  0.1694  0.0136 -0.2955
   96loPI   C3A 1529   4.623  18.264   8.333 -0.2481 -0.2628  0.0454
   96loPI   C4A 1530   4.655  18.094   7.780  0.1343  0.2736 -0.1794
   96loPI   C5A 1531   4.483  18.108   7.493  0.2137 -0.4266  0.1986
   96loPI   C6A 1532   4.654  18.435   7.233 -0.1957 -0.0272 -0.1124
   96loPI   C1B 1533   4.266  17.941   9.291  0.1537  0.1553 -0.0881
   96loPI   C2B 1534   4.458  17.859   8.988  0.3256  0.0165  0.2873
   96loPI   C3B 1535   4.430  17.821   8.478 -0.1036 -0.2742  0.1784
   96loPI   C4B 1536   4.488  17.771   8.115 -0.4165  0.1140  0.1804
   97loPI    C1 1537   2.172  17.981   9.789  0.2564  0.0416  0.1291
   97loPI    C2 1538   2.080  18.069  10.168 -0.4177 -0.1750  0.0294
   97loPI    C3 1539   2.180  18.361   9.913  0.0777 -0.0318  0.3725
   97loPI   PO4 1540   2.295  17.713   9.896  0.0344 -0.4265  0.1933
   97loPI   GL1 1541   2.462  17.631   9.552  0.3077 -0.2135 -0.1360
   97loPI   GL2 1542   2.376  17.296   9.533 -0.1152  0.4661  0.2679
   97loPI   C1A 1543   2.094  17.660   9.271 -0.1135 -0.1777  0.1260
   97loPI   C2A 1544   1.902  17.638   8.850 -0.0244 -0.1365  0.1862
   97loPI   C3A 1545   1.808  17.403   8.459  0.2653 -0.2459  0.1081
   97loPI   C4A 1546   1.584  17.284   8.132  0.3157  0.2460  0.0492
   97loPI   C5A 1547   1.581  17.302   7.695  0.0151 -0.3418 -0.1694
   97loPI   C6A 1548   1.702  17.150   7.204 -0.1377  0.1607  0.2110
   97loPI   C1B 1549   2.429  17.362   9.064  0.0036 -0.1480 -0.1096
   97loPI   C2B 1550   2.333  17.256   8.591  0.0384  0.1078  0.4280
   97loPI   C3B 1551   2.290  17.328   8.084  0.3095 -0.4396  0.0743
   97loPI   C4B 1552   2.230  17.728   7.880 -0.2951  0.1518  0.1680
   98loPI    C1 1553  14.168   7.880   9.358 -0.0399  0.0164 -0.1041
   98loPI    C2 1554  14.178   8.270   9.269  0.0709  0.0920  0.2260
   98loPI    C3 1555  14.230   8.150   9.647 -0.0602 -0.2383  0.1423
   98loPI   PO4 1556  14.209   7.771   9.176  0.0317 -0.0389  0.2099
   98loPI   GL1 1557  14.164   7.607   8.831 -0.2424  0.1288 -0.2703
   98loPI   GL2 1558  14.000   7.841   8.726  0.1031 -0.1258 -0.4268
   98loPI   C1A 1559  14.432   7.563   8.466  0.2220  0.4016 -0.1176
   98loPI   C2A 1560  14.725   7.502   8.141  0.1405 -0.1534 -0.2503
   98loPI   C3A 1561  14.810   7.429   7.713  0.1174 -0.1065 -0.2209
   98loPI   C4A 1562  14.722   7.357   7.346  0.1913  0.1920  0.2551
   98loPI   C5A 1563  14.576   7.275   6.925  0.2551  0.1932 -0.0051
   98loPI   C6A 1564  14.153   7.351   6.920  0.1044  0.0840 -0.0562
   98loPI   C1B 1565  13.701   7.864   8.340  0.3811  0.0924  0.1696
   98loPI   C2B 1566  13.695   7.932   7.832  0.2086  0.1305 -0.2159
   98loPI   C3B 1567  13.726   8.273   7.603  0.1570 -0.3604 -0.2146
   98loPI   C4B 1568  14.000   8.631   7.550 -0.0477  0.3190  0.2355
   99loPI    C1 1569  16.573  11.810   9.561  0.0932  0.1995  0.0724
   99loPI    C2 1570  16.913  11.813   9.352  0.0091 -0.2229 -0.0815
   99loPI    C3 1571  16.919  11.720   9.740  0.0610 -0.2971 -0.0997
   99loPI   PO4 1572  16.411  11.640   9.319 -0.0847 -0.1820  0.1397
   99loPI   GL1 1573  16.365  11.272   9.047 -0.2309  0.1052 -0.5999
   99loPI   GL2 1574  16.183  11.465   8.912  0.2567 -0.1967 -0.2772
   99loPI   C1A 1575  16.596  11.045   8.718  0.1839  0.2108  0.2615
   99loPI   C2A 1576  16.615  11.001   8.249  0.0968 -0.1709  0.0477
   99loPI   C3A 1577  16.806  10.959   7.805  0.0249  0.1924 -0.0604
   99loPI   C4A 1578  16.843  10.636   7.494 -0.0173 -0.1949  0.0810
   99loPI   C5A 1579  16.741  10.593   6.978 -0.0444  0.0381 -0.3622
   99loPI   C6A 1580  16.713  10.755   6.615  0.5246 -0.0788  0.2454
   99loPI   C1B 1581  16.514  11.670   8.629  0.1322  0.4071 -0.1731
   99loPI   C2B 1582  16.730  11.420   8.434  0.2914  0.0251  0.3197
   99loPI   C3B 1583  17.013  11.105   8.500 -0.0173  0.0254 -0.1438
   99loPI   C4B 1584  17.041  10.769   8.349 -0.0511 -0.0116 -0.1149
  100loPI    C1 1585   8.547  11.750   9.435 -0.3351  0.1635  0.1916
  100loPI    C2 1586   8.300  11.613   9.719 -0.1807 -0.0838  0.2093
  100loPI    C3 1587   8.623  11.401   9.615 -0.1968  0.0396 -0.1020
  100loPI   PO4 1588   8.437  11.822   9.256 -0.3541 -0.0159  0.4154
  100loPI   GL1 1589   8.504  11.911   8.881 -0.0771  0.0859 -0.2546
  100loPI   GL2 1590   8.830  11.823   8.902 -0.0567  0.0173  0.3688
  100loPI   C1A 1591   8.343  12.122   8.503  0.0366 -0.1721  0.1364
  100loPI   C2A 1592   8.244  12.260   8.166 -0.1839  0.1729  0.4239
  100loPI   C3A 1593   8.178  12.560   7.883 -0.3212  0.1289 -0.3160
  100loPI   C4A 1594   8.276  12.615   7.545  0.1207 -0.1586 -0.1253
  100loPI   C5A 1595   8.472  12.627   7.098  0.2988 -0.0085 -0.0172
  100loPI   C6A 1596   8.250  12.799   6.853 -0.0544  0.0966  0.0652
  100loPI   C1B 1597   8.842  11.889   8.450  0.1266 -0.2287 -0.0865
  100loPI   C2B 1598   9.017  11.739   8.153 -0.2958 -0.0427 -0.1450
  100loPI   C3B 1599   8.987  11.541   7.760  0.1213 -0.0114  0.0062
  100loPI   C4B 1600   8.741  11.593   7.386  0.3339  0.2079  0.1163
  101loPI    C1 1601   6.622  14.191   9.690 -0.1284 -0.0531  0.1801
  101loPI    C2 1602   6.898  14.382   9.472 -0.1681  0.0118  0.1863
  101loPI    C3 1603   6.995  14.231   9.830 -0.0715 -0.1995  0.0724
  101loPI   PO4 1604   6.508  13.999   9.466  0.1288 -0.3817  0.0390
  101loPI   GL1 1605   6.287  13.916   9.100  0.3566 -0.0500 -0.2226
  101loPI   GL2 1606   5.935  13.786   8.919 -0.1780 -0.2122  0.0000
  101loPI   C1A 1607   6.594  13.937   8.764 -0.3891 -0.1599 -0.2710
  101loPI   C2A 1608   6.524  13.740   8.370  0.2176  0.0382 -0.1671
  101loPI   C3A 1609   6.598  13.876   8.044  0.0230  0.2145  0.0111
  101loPI   C4A 1610   6.644  13.736   7.633 -0.1308 -0.0581  0.0734
  101loPI   C5A 1611   6.703  13.507   7.440  0.0044 -0.0943  0.4517
  101loPI   C6A 1612   6.660  13.360   6.976  0.1924  0.3187 -0.2202
  101loPI   C1B 1613   6.113  14.060   8.559  0.1163  0.3031 -0.0849
  101loPI   C2B 1614   6.254  14.158   8.150 -0.0262 -0.0733 -0.3409
  101loPI   C3B 1615   6.323  14.147   7.719  0.1978  0.0710 -0.0921
  101loPI   C4B 1616   6.412  14.317   7.304 -0.0668  0.0725 -0.1017
  102loPI    C1 1617   6.667   0.155   9.710 -0.0649 -0.4146 -0.1555
  102loPI    C2 1618   6.714   0.092  10.102 -0.3563  0.0810 -0.0320
  102loPI    C3 1619   6.459  -0.134   9.893 -0.1585 -0.2221  0.0474
  102loPI   PO4 1620   7.003   0.204   9.657  0.1724  0.0618  0.0930
  102loPI   GL1 1621   7.038   0.242   9.234  0.0743  0.1789  0.1662
  102loPI   GL2 1622   6.681   0.293   9.233 -0.1210  0.2471  0.0764
  102loPI   C1A 1623   7.127   0.209   8.851 -0.0657  0.0417  0.1606
  102loPI   C2A 1624   7.015   0.284   8.357  0.2181 -0.3021 -0.1342
  102loPI   C3A 1625   7.006   0.364   7.997  0.2959 -0.0625  0.2167
  102loPI   C4A 1626   6.911   0.116   7.723 -0.0908  0.0247 -0.1296
  102loPI   C5A 1627   6.803  -0.122   7.349 -0.1872 -0.1145 -0.0492
  102loPI   C6A 1628   6.448   0.074   7.090  0.1370  0.4243 -0.1465
  102loPI   C1B 1629   6.386   0.352   9.008 -0.1317 -0.0195  0.1737
  102loPI   C2B 1630   6.220   0.235   8.583  0.4192  0.4466 -0.0323
  102loPI   C3B 1631   5.928   0.342   8.470 -0.3682  0.1902  0.0339
  102loPI   C4B 1632   5.743  -0.030   8.292  0.3846  0.0960 -0.1240
  103loPI    C1 1633   9.929   7.985   9.812 -0.1421  0.1441  0.0540
  103loPI    C2 1634  10.055   7.734  10.098 -0.3689  0.0821  0.1011
  103loPI    C3 1635  10.132   8.126  10.127 -0.0693  0.0284  0.0595
  103loPI   PO4 1636   9.719   7.875   9.663  0.0689 -0.1185 -0.2701
  103loPI   GL1 1637   9.744   7.977   9.341  0.1024  0.0033  0.2656
  103loPI   GL2 1638   9.482   8.284   9.259 -0.0022  0.2007 -0.0007
  103loPI   C1A 1639  10.040   7.733   9.064 -0.1615  0.1502  0.0026
  103loPI   C2A 1640  10.192   7.775   8.607  0.0091 -0.2432  0.0954
  103loPI   C3A 1641  10.325   7.730   8.168 -0.0513  0.1914  0.4119
  103loPI   C4A 1642  10.468   7.656   7.691  0.1972  0.0526 -0.2101
  103loPI   C5A 1643  10.615   7.384   7.351 -0.1198 -0.1735  0.2087
  103loPI   C6A 1644  10.576   7.040   7.426 -0.2450  0.2852  0.0359
  103loPI   C1B 1645   9.484   8.224   8.845 -0.1072  0.2415 -0.0099
  103loPI   C2B 1646   9.724   8.159   8.477 -0.0403 -0.2554 -0.3170
  103loPI   C3B 1647   9.898   8.019   8.227 -0.1961  0.3742 -0.0151
  103loPI   C4B 1648  10.046   7.907   7.764  0.1069  0.0465  0.4810
  104loPI    C1 1649  14.712  12.990   9.737  0.0372 -0.3022  0.1130
  104loPI    C2 1650  14.795  12.676   9.970  0.0942 -0.1733  0.2684
  104loPI    C3 1651  14.867  13.047  10.101  0.1666 -0.1007  0.0285
  104loPI   PO4 1652  14.627  12.757   9.465 -0.0649 -0.2155  0.2307
  104loPI   GL1 1653  14.542  12.818   8.934  0.2823  0.1054  0.0166
  104loPI   GL2 1654  14.682  12.961   8.667 -0.1859  0.3580 -0.0237
  104loPI   C1A 1655  14.317  12.661   8.610  0.0787 -0.0376 -0.0460
  104loPI   C2A 1656  14.367  12.510   8.294 -0.0399 -0.0171  0.1038
  104loPI   C3A 1657  14.586  12.756   8.024 -0.0112 -0.0342 -0.0299
  104loPI   C4A 1658  14.487  13.011   7.565  0.3092  0.2142 -0.2464
  104loPI   C5A 1659  14.575  13.232   7.260  0.0693  0.0376  0.1601
  104loPI   C6A 1660  14.339  13.398   6.934 -0.0801 -0.1778  0.0940
  104loPI   C1B 1661  14.570  13.262   8.271  0.1033  0.1538  0.1478
  104loPI   C2B 1662  14.583  13.272   7.918  0.2194 -0.3247 -0.2016
  104loPI   C3B 1663  14.704  13.459   7.636  0.1120  0.0694  0.0523
  104loPI   C4B 1664  14.622  13.708   7.195 -0.0122 -0.1342  0.0836
  105loPI    C1 1665   8.902   3.888   9.929 -0.0834 -0.2264 -0.1516
  105loPI    C2 1666   9.116   3.682  10.196  0.1827  0.2378  0.0041
  105loPI    C3 1667   8.948   4.030  10.300 -0.3070  0.0812 -0.2367
  105loPI   PO4 1668   9.123   3.850   9.674  0.0179 -0.2222 -0.1005
  105loPI   GL1 1669   9.068   3.736   9.278 -0.0474 -0.1801  0.0459
  105loPI   GL2 1670   9.248   3.453   9.180  0.1282  0.0609  0.0790
  105loPI   C1A 1671   9.041   3.796   8.873  0.0025 -0.1629 -0.0359
  105loPI   C2A 1672   8.952   3.905   8.408 -0.0680 -0.4220  0.0355
  105loPI   C3A 1673   8.964   3.807   8.003 -0.1067  0.0658 -0.0578
  105loPI   C4A 1674   8.834   3.621   7.660  0.1471 -0.0610 -0.0381
  105loPI   C5A 1675   8.735   3.582   7.263  0.1041  0.4195 -0.0743
  105loPI   C6A 1676   8.288   3.625   7.121 -0.2782 -0.2727 -0.1087
  105loPI   C1B 1677   9.470   3.550   8.864  0.1017  0.5091  0.0411
  105loPI   C2B 1678   9.390   3.582   8.408  0.0342  0.1524  0.7123
  105loPI   C3B 1679   9.398   3.581   8.000 -0.2617 -0.0660  0.0940
  105loPI   C4B 1680   9.365   3.616   7.572  0.0138  0.0560 -0.1285
  106loPI    C1 1681   7.151   4.204   9.775  0.0363  0.1175  0.0332
  106loPI    C2 1682   6.917   4.501   9.645 -0.0475 -0.0052 -0.0985
  106loPI    C3 1683   7.013   4.477  10.032 -0.1478  0.1190 -0.0654
  106loPI   PO4 1684   7.057   3.981   9.634  0.4163 -0.3026 -0.0752
  106loPI   GL1 1685   7.234   3.949   9.086  0.0309 -0.1973  0.2081
  106loPI   GL2 1686   7.150   4.316   9.244  0.0656  0.5240  0.0475
  106loPI   C1A 1687   7.256   4.048   8.746 -0.3223  0.1824 -0.0395
  106loPI   C2A 1688   7.145   4.447   8.551  0.1186  0.0478  0.2438
  106loPI   C3A 1689   6.902   4.593   8.206 -0.0006  0.0924  0.5678
  106loPI   C4A 1690   6.622   4.529   7.977 -0.0260  0.1247  0.1694
  106loPI   C5A 1691   6.366   4.579   7.600  0.1888 -0.2285 -0.2027
  106loPI   C6A 1692   6.166   4.474   7.259 -0.1999  0.0481  0.2102
  106loPI   C1B 1693   7.411   4.534   9.081  0.1558 -0.0406  0.2517
  106loPI   C2B 1694   7.567   4.523   8.840 -0.0109 -0.0755  0.3376
  106loPI   C3B 1695   7.705   4.653   8.492  0.4098  0.3045  0.3021
  106loPI   C4B 1696   7.453   4.874   8.128  0.0205  0.0423 -0.1769
  107loPI    C1 1697  14.972  10.234   9.798 -0.1036  0.2975  0.0385
  107loPI    C2 1698  15.306  10.425   9.907  0.1130 -0.0891  0.0717
  107loPI    C3 1699  15.123  10.180  10.164 -0.1153  0.0064  0.0027
  107loPI   PO4 1700  14.768  10.417   9.768 -0.2098  0.3125 -0.0997
  107loPI   GL1 1701  14.566  10.366   9.443  0.3177 -0.0543  0.0697
  107loPI   GL2 1702  14.483  10.208   9.164 -0.1910  0.1901 -0.0645
  107loPI   C1A 1703  14.603  10.581   8.874 -0.0415  0.1457 -0.2815
  107loPI   C2A 1704  14.624  10.629   8.434 -0.2058 -0.2758  0.4436
  107loPI   C3A 1705  14.688  10.680   7.990 -0.0133  0.3834 -0.2246
  107loPI   C4A 1706  14.815  10.738   7.601  0.0515 -0.1001 -0.0819
  107loPI   C5A 1707  15.040  10.701   7.276 -0.1700 -0.3087  0.0686
  107loPI   C6A 1708  15.425  10.827   7.168  0.2789 -0.1841  0.1631
  107loPI   C1B 1709  14.335  10.227   8.718  0.0284 -0.2879 -0.2697
  107loPI   C2B 1710  14.368  10.256   8.258  0.1351 -0.3895 -0.2235
  107loPI   C3B 1711  14.411  10.274   7.825  0.3762  0.0478 -0.1614
  107loPI   C4B 1712  14.497  10.348   7.470 -0.1692 -0.0002 -0.3307
  108loPI    C1 1713  14.121   6.491   9.631 -0.2656 -0.1435  0.1333
  108loPI    C2 1714  14.279   6.564   9.991 -0.0678  0.1479 -0.0076
  108loPI    C3 1715  13.960   6.325   9.956 -0.1094  0.1440  0.3623
  108loPI   PO4 1716  14.308   6.667   9.488 -0.1895 -0.0643  0.4363
  108loPI   GL1 1717  14.559   6.514   9.168 -0.1921  0.0722  0.2524
  108loPI   GL2 1718  14.366   6.168   9.317  0.0936  0.0559  0.1244
  108loPI   C1A 1719  14.609   6.602   8.715  0.0196  0.1721  0.2159
  108loPI   C2A 1720  14.648   6.602   8.319 -0.1397  0.1771  0.1416
  108loPI   C3A 1721  14.725   6.279   8.037 -0.1823  0.1856  0.0484
  108loPI   C4A 1722  14.709   6.023   7.542 -0.3862  0.1601 -0.0346
  108loPI   C5A 1723  14.926   5.838   7.252 -0.2260  0.0035  0.1736
  108loPI   C6A 1724  15.126   5.780   6.866 -0.0995 -0.0247 -0.1816
  108loPI   C1B 1725  14.525   6.027   8.940 -0.0525 -0.4029 -0.1096
  108loPI   C2B 1726  14.484   6.143   8.505 -0.1719 -0.1437  0.4669
  108loPI   C3B 1727  14.360   5.974   8.086 -0.3772  0.0378 -0.1620
  108loPI   C4B 1728  14.296   5.897   7.742  0.0293  0.0001  0.2116
  109loPI    C1 1729  17.400   6.220   9.940  0.0056 -0.0701  0.0863
  109loPI    C2 1730  17.286   6.320  10.310 -0.2870 -0.1990  0.0333
  109loPI    C3 1731  17.276   6.592  10.017 -0.1912 -0.1353  0.0886
  109loPI   PO4 1732  17.570   6.138   9.919 -0.0271  0.2842 -0.2750
  109loPI   GL1 1733  17.815   6.056   9.614 -0.1554 -0.2622  0.1055
  109loPI   GL2 1734  17.561   5.931   9.401 -0.0519 -0.1152  0.0194
  109loPI   C1A 1735  17.563   6.404   9.288  0.1652  0.1384 -0.1088
  109loPI   C2A 1736  17.353   6.723   9.115  0.1921  0.0267  0.5559
  109loPI   C3A 1737  17.215   6.933   8.605 -0.3031  0.1599 -0.1839
  109loPI   C4A 1738  17.023   6.870   8.300 -0.0283  0.2343  0.0613
  109loPI   C5A 1739  17.109   6.952   7.998 -0.2922 -0.0227  0.2754
  109loPI   C6A 1740  17.003   6.930   7.568 -0.2502  0.1909  0.2458
  109loPI   C1B 1741  17.658   5.961   8.946  0.1090 -0.0447  0.0337
  109loPI   C2B 1742  17.456   6.312   8.790 -0.3103 -0.2883 -0.0655
  109loPI   C3B 1743  17.285   6.455   8.321  0.0223 -0.0412  0.0713
  109loPI   C4B 1744  17.114   6.441   7.892  0.1226  0.0822 -0.0729
  110loPI    C1 1745   9.990   9.967   9.625  0.3125 -0.2328 -0.1534
  110loPI    C2 1746   9.869   9.749   9.938  0.2155 -0.0283 -0.0466
  110loPI    C3 1747  10.087  10.080   9.996 -0.0039  0.1421 -0.1783
  110loPI   PO4 1748  10.023   9.826   9.411  0.0584  0.1308 -0.1996
  110loPI   GL1 1749  10.280   9.912   8.937 -0.1141 -0.1579 -0.1836
  110loPI   GL2 1750  10.596  10.002   8.839 -0.5772  0.1638 -0.0050
  110loPI   C1A 1751  10.400   9.539   8.650  0.2438 -0.5576 -0.0608
  110loPI   C2A 1752  10.238   9.387   8.321 -0.0776 -0.0405 -0.0172
  110loPI   C3A 1753  10.170   9.274   7.888  0.3850 -0.2566  0.1111
  110loPI   C4A 1754  10.251   9.142   7.462 -0.1963  0.2298 -0.0728
  110loPI   C5A 1755  10.554   9.040   7.178  0.1803 -0.0731 -0.3239
  110loPI   C6A 1756  10.713   8.780   6.812 -0.0987  0.0851 -0.0197
  110loPI   C1B 1757  10.309  10.060   8.493 -0.1009 -0.1549 -0.0643
  110loPI   C2B 1758  10.120   9.926   8.228 -0.3584  0.0406  0.0614
  110loPI   C3B 1759  10.085   9.758   7.759 -0.0592 -0.0268 -0.3399
  110loPI   C4B 1760  10.036   9.559   7.381  0.2822 -0.1974 -0.1006
  111loPI    C1 1761  11.889  12.706   9.667  0.0802  0.0743 -0.0509
  111loPI    C2 1762  12.085  13.055   9.654 -0.1340  0.2038  0.1170
  111loPI    C3 1763  12.048  12.859  10.001  0.1987 -0.1140 -0.0191
  111loPI   PO4 1764  11.999  12.641   9.435 -0.1403 -0.0196 -0.1694
  111loPI   GL1 1765  11.992  12.527   9.087  0.2408 -0.1644 -0.1386
  111loPI   GL2 1766  12.212  12.601   8.935  0.2367 -0.1751  0.2780
  111loPI   C1A 1767  11.799  12.429   8.609 -0.1092  0.2647 -0.2176
  111loPI   C2A 1768  11.855  12.435   8.252  0.0433  0.1221  0.2252
  111loPI   C3A 1769  11.675  12.607   8.012 -0.2906 -0.3840 -0.1786
  111loPI   C4A 1770  11.560  12.875   7.591  0.4331  0.0234  0.0027
  111loPI   C5A 1771  11.276  13.075   7.356  0.2893 -0.0415 -0.3123
  111loPI   C6A 1772  10.921  13.345   7.216 -0.0589  0.3205  0.3877
  111loPI   C1B 1773  12.387  12.525   8.570 -0.1459  0.0748  0.0627
  111loPI   C2B 1774  12.355  12.483   8.130 -0.1206  0.0421  0.1459
  111loPI   C3B 1775  12.154  12.431   7.785 -0.0134 -0.1961  0.1609
  111loPI   C4B 1776  12.081  12.539   7.290  0.3589  0.2095  0.1808
  112loPI    C1 1777  19.338   6.566  10.054 -0.1466 -0.1092 -0.1722
  112loPI    C2 1778  19.108   6.665  10.366 -0.4477 -0.3025 -0.3278
  112loPI    C3 1779  19.500   6.608  10.417 -0.4209  0.0773 -0.0676
  112loPI   PO4 1780  19.072   6.351   9.924 -0.4524  0.2167  0.3096
  112loPI   GL1 1781  19.090   6.041   9.702  0.1958 -0.0685  0.0690
  112loPI   GL2 1782  19.292   5.825   9.611 -0.1396 -0.0568  0.1738
  112loPI   C1A 1783  19.001   6.214   9.320  0.2056 -0.1052  0.2257
  112loPI   C2A 1784  18.952   6.213   8.867 -0.2786 -0.0991  0.2200
  112loPI   C3A 1785  19.000   6.129   8.445  0.5525 -0.0432  0.1738
  112loPI   C4A 1786  18.963   5.940   8.041  0.2470 -0.1551 -0.1521
  112loPI   C5A 1787  19.180   5.898   7.694  0.2532  0.0521  0.2101
  112loPI   C6A 1788  19.442   6.013   7.331 -0.0381 -0.1741 -0.1696
  112loPI   C1B 1789  19.339   5.790   9.188  0.0343  0.0607 -0.1378
  112loPI   C2B 1790  19.051   5.758   8.860 -0.1244 -0.0765  0.0443
  112loPI   C3B 1791  19.002   5.600   8.429 -0.1379  0.1776  0.0451
  112loPI   C4B 1792  19.031   5.487   8.004 -0.2681 -0.1326  0.1285
  113loPI    C1 1793  10.675  10.282   9.358 -0.1882 -0.1351 -0.1374
  113loPI    C2 1794  10.566   9.902   9.414 -0.0714 -0.1411  0.0595
  113loPI    C3 1795  10.459  10.181   9.680  0.0813 -0.0848  0.0626
  113loPI   PO4 1796  10.653  10.332   9.163 -0.1402 -0.0123 -0.0561
  113loPI   GL1 1797  10.419  10.457   8.844  0.2726  0.4593  0.3434
  113loPI   GL2 1798  10.600  10.682   8.851  0.0479  0.0015  0.0887
  113loPI   C1A 1799  10.421  10.537   8.439  0.2131  0.0410 -0.4673
  113loPI   C2A 1800  10.232  10.545   8.033  0.1829 -0.1720  0.3571
  113loPI   C3A 1801  10.010  10.224   7.850  0.0903 -0.0528  0.1953
  113loPI   C4A 1802  10.004  10.098   7.399 -0.0098 -0.1348 -0.1700
  113loPI   C5A 1803  10.208   9.942   7.090  0.2346 -0.0562  0.1854
  113loPI   C6A 1804  10.667   9.934   6.935  0.1145  0.2762  0.3738
  113loPI   C1B 1805  10.838  10.757   8.454  0.2051  0.0499 -0.1737
  113loPI   C2B 1806  10.785  10.610   8.044 -0.2360 -0.0727 -0.0860
  113loPI   C3B 1807  10.685  10.598   7.616 -0.1101  0.1438  0.0315
  113loPI   C4B 1808  10.915  10.677   7.239 -0.2183  0.0467 -0.1080
  114loPI    C1 1809  15.685   8.526   9.439 -0.0970 -0.0301 -0.0737
  114loPI    C2 1810  15.363   8.761   9.471  0.1826  0.3346  0.1439
  114loPI    C3 1811  15.471   8.526   9.776  0.1071  0.1877  0.0588
  114loPI   PO4 1812  15.907   8.676   9.407 -0.0922 -0.2585  0.0615
  114loPI   GL1 1813  16.164   8.905   9.087  0.1689 -0.0986 -0.2989
  114loPI   GL2 1814  16.320   8.553   9.104  0.2303  0.2804  0.2217
  114loPI   C1A 1815  16.303   8.878   8.681  0.3025 -0.3555 -0.0939
  114loPI   C2A 1816  16.113   9.109   8.373 -0.0976 -0.3716 -0.0115
  114loPI   C3A 1817  16.094   9.269   8.003 -0.1464  0.0560  0.1847
  114loPI   C4A 1818  16.064   9.589   7.714 -0.3855 -0.0282 -0.0447
  114loPI   C5A 1819  15.870   9.532   7.316 -0.2959 -0.0921  0.3951
  114loPI   C6A 1820  15.680   9.384   6.915  0.0074 -0.0565 -0.0836
  114loPI   C1B 1821  16.251   8.404   8.706 -0.0641  0.0120  0.2790
  114loPI   C2B 1822  16.228   8.406   8.298  0.2382  0.2090  0.0964
  114loPI   C3B 1823  16.296   8.286   7.888  0.1130 -0.1306 -0.0370
  114loPI   C4B 1824  16.066   8.182   7.676 -0.1369  0.1372 -0.0785
  115loPI    C1 1825  10.205  14.240   9.738 -0.4720 -0.0597  0.0088
  115loPI    C2 1826  10.151  14.202  10.133  0.0651  0.1123  0.1074
  115loPI    C3 1827  10.288  13.893   9.919 -0.5096 -0.0772 -0.0072
  115loPI   PO4 1828  10.368  14.384   9.729 -0.1042 -0.3038 -0.2035
  115loPI   GL1 1829  10.568  14.403   9.365 -0.1827  0.0972  0.2741
  115loPI   GL2 1830  10.876  14.162   9.177  0.2350 -0.0310  0.0266
  115loPI   C1A 1831  10.472  14.567   8.910 -0.0245  0.0924  0.0331
  115loPI   C2A 1832  10.457  14.511   8.533  0.2053  0.0621  0.1139
  115loPI   C3A 1833  10.478  14.144   8.198  0.1299 -0.4269 -0.0017
  115loPI   C4A 1834  10.556  14.133   7.844  0.3153  0.3947  0.0838
  115loPI   C5A 1835  10.471  14.172   7.472  0.0924 -0.3329  0.1473
  115loPI   C6A 1836  10.191  14.274   7.132 -0.3054 -0.0441  0.1511
  115loPI   C1B 1837  10.601  14.096   8.870  0.3129  0.0323 -0.1597
  115loPI   C2B 1838  10.605  13.836   8.531  0.1321  0.0482  0.1518
  115loPI   C3B 1839  10.380  13.595   8.239 -0.0096 -0.1702 -0.0485
  115loPI   C4B 1840  10.348  13.633   7.765  0.3452  0.0917 -0.0207
  116loPI    C1 1841   2.011   0.340  10.445 -0.0165 -0.1527 -0.0526
  116loPI    C2 1842   2.224   0.499  10.744 -0.2923 -0.1006  0.1202
  116loPI    C3 1843   2.024   0.157  10.800  0.1156 -0.4001 -0.1822
  116loPI   PO4 1844   2.018   0.356  10.153  0.3512  0.2334 -0.0879
  116loPI   GL1 1845   2.176   0.658   9.777  0.0034  0.0479  0.0334
  116loPI   GL2 1846   2.441   0.454   9.651  0.1436  0.0975  0.2578
  116loPI   C1A 1847   2.162   1.058   9.522  0.0665  0.1505  0.0488
  116loPI   C2A 1848   2.404   1.140   9.169  0.1661 -0.0468 -0.1181
  116loPI   C3A 1849   2.420   1.133   8.743 -0.1674  0.2991  0.1186
  116loPI   C4A 1850   2.531   1.194   8.408  0.0682 -0.4340 -0.1731
  116loPI   C5A 1851   2.545   1.266   7.943 -0.2275 -0.3796 -0.3407
  116loPI   C6A 1852   2.516   1.643   7.660 -0.4772 -0.2538  0.0967
  116loPI   C1B 1853   2.461   0.634   9.157 -0.1054 -0.0082  0.0037
  116loPI   C2B 1854   2.494   0.634   8.678  0.0631 -0.1146  0.1821
  116loPI   C3B 1855   2.321   0.727   8.285 -0.1938 -0.0442  0.0214
  116loPI   C4B 1856   2.125   1.092   8.118 -0.0640  0.0436  0.4420
  117loPI    C1 1857   6.042   6.363  10.147  0.1258 -0.2374 -0.1966
  117loPI    C2 1858   6.096   6.174  10.495  0.0997 -0.0637 -0.0973
  117loPI    C3 1859   5.888   6.516  10.483 -0.1910 -0.2436 -0.3352
  117loPI   PO4 1860   6.139   6.101   9.943 -0.2399 -0.0277  0.4669
  117loPI   GL1 1861   6.066   6.025   9.505 -0.1896  0.0615 -0.0625
  117loPI   GL2 1862   6.368   6.126   9.479  0.0787 -0.2559  0.2419
  117loPI   C1A 1863   5.974   5.740   9.096 -0.0992 -0.2623  0.1265
  117loPI   C2A 1864   5.949   5.425   8.715 -0.0425  0.0614 -0.1423
  117loPI   C3A 1865   5.901   5.505   8.314  0.1924 -0.0374 -0.1286
  117loPI   C4A 1866   5.726   5.450   7.884  0.0901 -0.1973 -0.1390
  117loPI   C5A 1867   5.715   5.441   7.461 -0.0198 -0.0306 -0.1163
  117loPI   C6A 1868   5.623   5.577   7.033 -0.3063 -0.0006  0.3164
  117loPI   C1B 1869   6.454   6.178   9.117  0.0319 -0.1543 -0.0900
  117loPI   C2B 1870   6.500   5.876   8.751 -0.1073 -0.1176 -0.0354
  117loPI   C3B 1871   6.343   5.739   8.363 -0.5873 -0.3768 -0.0384
  117loPI   C4B 1872   6.149   5.857   7.973  0.0385  0.0648  0.3169
  118loPI    C1 1873  12.214   7.129   9.781  0.0555 -0.0377 -0.1629
  118loPI    C2 1874  12.202   6.778   9.972 -0.3028  0.2441  0.3571
  118loPI    C3 1875  12.522   7.015  10.009 -0.0540 -0.0239 -0.0068
  118loPI   PO4 1876  12.203   7.102   9.519 -0.0824  0.1881 -0.0207
  118loPI   GL1 1877  12.288   7.056   9.174  0.3143 -0.0949 -0.3654
  118loPI   GL2 1878  12.024   6.818   9.113 -0.3191 -0.1056  0.0128
  118loPI   C1A 1879  12.373   7.023   8.726 -0.1502  0.1150 -0.3220
  118loPI   C2A 1880  12.554   7.102   8.265  0.0782 -0.1795  0.1183
  118loPI   C3A 1881  12.474   7.098   7.782 -0.0192 -0.2958 -0.0803
  118loPI   C4A 1882  12.482   7.192   7.294 -0.0510  0.0756  0.0353
  118loPI   C5A 1883  12.851   7.376   7.083 -0.2230 -0.0788  0.2112
  118loPI   C6A 1884  12.994   7.673   6.755 -0.0118 -0.3185  0.0530
  118loPI   C1B 1885  11.840   6.864   8.705  0.3212 -0.1180  0.4284
  118loPI   C2B 1886  12.010   7.122   8.445  0.2747  0.2545 -0.2097
  118loPI   C3B 1887  11.904   7.067   7.916 -0.1702  0.2114 -0.0615
  118loPI   C4B 1888  11.548   6.983   7.774 -0.0669 -0.2575 -0.0856
  119loPI    C1 1889  10.848  19.099   9.085 -0.0949 -0.0053 -0.0297
  119loPI    C2 1890  10.902  18.849   9.392 -0.1366  0.1619  0.1152
  119loPI    C3 1891  10.566  18.829   9.175 -0.1950  0.1740  0.2037
  119loPI   PO4 1892  11.150  18.984   8.962 -0.1242 -0.1344 -0.3701
  119loPI   GL1 1893  11.476  18.875   8.578  0.2734  0.1417 -0.2605
  119loPI   GL2 1894  11.285  19.195   8.579 -0.0514  0.2462  0.0461
  119loPI   C1A 1895  11.209  18.469   8.368 -0.1173 -0.2162 -0.0029
  119loPI   C2A 1896  11.179  18.284   7.984  0.0063 -0.3325  0.0137
  119loPI   C3A 1897  11.280  18.093   7.555  0.3414 -0.2057 -0.0723
  119loPI   C4A 1898  11.255  18.227   7.177 -0.1200 -0.4840  0.0631
  119loPI   C5A 1899  11.485  18.245   6.797 -0.0475  0.2719  0.1602
  119loPI   C6A 1900  11.794  18.138   6.680 -0.0032 -0.3303  0.0161
  119loPI   C1B 1901  11.445  19.358   8.316  0.0047  0.1104 -0.4008
  119loPI   C2B 1902  11.564  19.274   7.903 -0.1588 -0.0487  0.0822
  119loPI   C3B 1903  11.413  19.216   7.510  0.2632 -0.0133  0.3475
  119loPI   C4B 1904  11.269  19.493   7.175  0.1302 -0.1306  0.1215
  120loPI    C1 1905  17.778  16.382   9.340 -0.0072 -0.2782  0.1701
  120loPI    C2 1906  17.473  16.587   9.497  0.2670  0.1688  0.1376
  120loPI    C3 1907  17.611  16.261   9.683 -0.2902 -0.1026  0.0978
  120loPI   PO4 1908  17.630  16.255   9.109  0.1241  0.3681 -0.1845
  120loPI   GL1 1909  17.806  16.141   8.709  0.2492 -0.1689 -0.1942
  120loPI   GL2 1910  17.874  16.496   8.790 -0.1977 -0.0149  0.0216
  120loPI   C1A 1911  17.546  16.008   8.372  0.4956  0.1564 -0.1068
  120loPI   C2A 1912  17.655  16.231   7.960 -0.0147 -0.0883  0.2713
  120loPI   C3A 1913  17.826  16.260   7.599  0.3127  0.0022 -0.0244
  120loPI   C4A 1914  17.815  15.943   7.188 -0.2092 -0.0281 -0.1129
  120loPI   C5A 1915  17.689  16.009   6.718 -0.0919  0.3052 -0.0335
  120loPI   C6A 1916  17.753  15.901   6.197 -0.1894 -0.0742  0.0564
  120loPI   C1B 1917  17.873  16.489   8.295 -0.2981 -0.3759  0.0688
  120loPI   C2B 1918  17.786  16.739   7.879  0.1607  0.0937  0.0810
  120loPI   C3B 1919  17.685  16.737   7.355  0.1824  0.3397 -0.0597
  120loPI   C4B 1920  17.735  16.438   7.071  0.3291 -0.0570 -0.4806
  121loPI    C1 1921  17.415   0.230  10.221  0.0600  0.1926 -0.1106
  121loPI    C2 1922  17.422  -0.052  10.505 -0.0309  0.0145 -0.2821
  121loPI    C3 1923  17.416   0.335  10.607  0.1008 -0.0439 -0.0445
  121loPI   PO4 1924  17.396   0.188  10.055  0.1321  0.2995  0.3388
  121loPI   GL1 1925  17.379   0.346   9.579 -0.1027 -0.0688 -0.2952
  121loPI   GL2 1926  17.683   0.385   9.619  0.1978  0.1390 -0.4987
  121loPI   C1A 1927  17.261   0.302   9.173 -0.1705 -0.2348  0.0924
  121loPI   C2A 1928  17.291   0.225   8.734  0.1511  0.0829 -0.2155
  121loPI   C3A 1929  17.473   0.232   8.310 -0.0557 -0.0343  0.0522
  121loPI   C4A 1930  17.610   0.321   7.932 -0.4337 -0.0992 -0.1320
  121loPI   C5A 1931  17.718   0.507   7.586  0.1695 -0.0286 -0.0860
  121loPI   C6A 1932  17.692   0.918   7.504  0.3542  0.0469  0.0829
  121loPI   C1B 1933  17.753   0.257   9.141  0.2192  0.3270 -0.2418
  121loPI   C2B 1934  17.878   0.268   8.623  0.0237  0.0376  0.4382
  121loPI   C3B 1935  18.133   0.424   8.294 -0.0788  0.0364  0.2762
  121loPI   C4B 1936  18.381   0.442   7.925 -0.2934 -0.0781  0.1567
  122loPI    C1 1937   4.516   0.576  10.064 -0.0244  0.0770  0.2424
  122loPI    C2 1938   4.834   0.523  10.302  0.1445 -0.2601 -0.0481
  122loPI    C3 1939   4.476   0.608  10.461  0.2799 -0.3522  0.3146
  122loPI   PO4 1940   4.611   0.472   9.810  0.1492 -0.2071 -0.2757
  122loPI   GL1 1941   4.821   0.522   9.418 -0.1092  0.2072 -0.1176
  122loPI   GL2 1942   5.115   0.310   9.341  0.1177 -0.3086  0.2961
  122loPI   C1A 1943   4.939   0.540   8.976  0.3535  0.2702  0.0234
  122loPI   C2A 1944   4.919   0.488   8.637  0.2309  0.1983  0.0509
  122loPI   C3A 1945   4.766   0.629   8.256  0.0068 -0.0190 -0.2259
  122loPI   C4A 1946   4.663   0.620   7.775 -0.0643 -0.4315  0.2168
  122loPI   C5A 1947   4.298   0.835   7.505  0.1988  0.1046 -0.5242
  122loPI   C6A 1948   4.239   0.844   7.148  0.2479 -0.0077  0.1150
  122loPI   C1B 1949   5.209   0.188   8.875  0.0029 -0.1084 -0.2500
  122loPI   C2B 1950   5.293   0.093   8.435 -0.0269  0.3583  0.1168
  122loPI   C3B 1951   5.063   0.237   8.103 -0.0789 -0.1128  0.0762
  122loPI   C4B 1952   5.010   0.303   7.624  0.1594  0.2060  0.1508
  123loPI    C1 1953   3.465   6.188  10.258 -0.1464 -0.1584 -0.0871
  123loPI    C2 1954   3.812   5.989  10.270  0.1044  0.2695 -0.0217
  123loPI    C3 1955   3.585   5.976   9.941  0.2784  0.1469 -0.1384
  123loPI   PO4 1956   3.567   6.422  10.309 -0.1086  0.4020  0.3308
  123loPI   GL1 1957   3.839   6.421   9.981  0.0212  0.4201 -0.0823
  123loPI   GL2 1958   3.538   6.543   9.844  0.3888 -0.3766 -0.0511
  123loPI   C1A 1959   3.979   6.130   9.640 -0.0863 -0.1005 -0.1284
  123loPI   C2A 1960   3.852   6.048   9.273  0.0651 -0.1267  0.0743
  123loPI   C3A 1961   3.719   6.056   8.887  0.2015 -0.4271 -0.0952
  123loPI   C4A 1962   3.554   5.809   8.671  0.0468  0.1671  0.2250
  123loPI   C5A 1963   3.266   5.813   8.407  0.0146 -0.0109 -0.2386
  123loPI   C6A 1964   3.036   5.732   8.023 -0.0557 -0.7311  0.3780
  123loPI   C1B 1965   3.414   6.291   9.574 -0.0674 -0.0871  0.0533
  123loPI   C2B 1966   3.253   6.100   9.149 -0.0485 -0.2074 -0.0587
  123loPI   C3B 1967   3.288   5.593   9.080  0.0607  0.1516  0.1077
  123loPI   C4B 1968   3.199   5.130   8.919  0.0000  0.2900  0.2486
  124loPI    C1 1969  18.150  15.936   9.868  0.0947 -0.0204  0.3105
  124loPI    C2 1970  18.023  16.289  10.005  0.1129  0.0007  0.2733
  124loPI    C3 1971  18.384  16.152  10.110  0.2220  0.1223  0.0645
  124loPI   PO4 1972  18.015  15.912   9.604 -0.1056 -0.2700 -0.2420
  124loPI   GL1 1973  18.213  15.967   9.266  0.0496  0.2005  0.4045
  124loPI   GL2 1974  18.026  15.693   9.084  0.0951 -0.4549 -0.2363
  124loPI   C1A 1975  18.300  16.133   8.787  0.2380  0.0218  0.0065
  124loPI   C2A 1976  18.220  16.094   8.416 -0.1195 -0.0697  0.0258
  124loPI   C3A 1977  18.248  16.177   7.895 -0.2914  0.0056 -0.2042
  124loPI   C4A 1978  18.387  16.126   7.484 -0.1110  0.1927  0.2074
  124loPI   C5A 1979  18.567  15.803   7.278  0.0599  0.0715  0.2506
  124loPI   C6A 1980  18.359  15.385   7.380  0.0490 -0.2351 -0.0733
  124loPI   C1B 1981  18.021  15.698   8.628  0.0104 -0.0715  0.1300
  124loPI   C2B 1982  17.865  15.781   8.117 -0.2155  0.0394 -0.0871
  124loPI   C3B 1983  17.558  15.722   7.804  0.3431 -0.0286 -0.1505
  124loPI   C4B 1984  17.424  15.735   7.449 -0.1799  0.4107  0.0988
  125loPI    C1 1985   8.623   8.521   9.820  0.1429  0.0579  0.0410
  125loPI    C2 1986   8.370   8.289  10.025 -0.1356  0.1172 -0.2289
  125loPI    C3 1987   8.545   8.600  10.204 -0.0167 -0.1024  0.0430
  125loPI   PO4 1988   8.544   8.671   9.639 -0.2243 -0.5959  0.1520
  125loPI   GL1 1989   8.565   8.608   9.120  0.0302  0.0673 -0.1866
  125loPI   GL2 1990   8.427   8.317   9.026  0.0393 -0.1311  0.1339
  125loPI   C1A 1991   8.340   8.738   8.813 -0.0113  0.0120 -0.0198
  125loPI   C2A 1992   8.271   8.748   8.342 -0.3437 -0.3558  0.1411
  125loPI   C3A 1993   8.521   8.774   7.957 -0.1055  0.1285 -0.0847
  125loPI   C4A 1994   8.701   8.660   7.544 -0.0577 -0.3744 -0.1993
  125loPI   C5A 1995   9.077   8.540   7.307 -0.3454 -0.1004 -0.1453
  125loPI   C6A 1996   9.383   8.256   7.292  0.1226  0.0160  0.0358
  125loPI   C1B 1997   8.501   8.208   8.680  0.0900  0.1228  0.0326
  125loPI   C2B 1998   8.337   7.949   8.401 -0.0147 -0.1798  0.2399
  125loPI   C3B 1999   8.220   7.870   7.891  0.0909  0.0045  0.0006
  125loPI   C4B 2000   7.997   7.983   7.611  0.1703 -0.1632  0.1149
  126loPI    C1 2001   6.812  10.195   9.628  0.2843 -0.1525  0.1822
  126loPI    C2 2002   6.502  10.165   9.880  0.2043 -0.1713  0.0821
  126loPI    C3 2003   6.687  10.516   9.833 -0.0704 -0.0559 -0.1716
  126loPI   PO4 2004   6.655  10.065   9.392 -0.0107  0.0123 -0.0843
  126loPI   GL1 2005   6.349   9.784   9.282 -0.0391 -0.0777  0.2310
  126loPI   GL2 2006   6.023   9.712   9.188 -0.1017 -0.2835 -0.3587
  126loPI   C1A 2007   6.465   9.738   8.739  0.0349 -0.1248 -0.2287
  126loPI   C2A 2008   6.536   9.669   8.300 -0.1734 -0.0014  0.0286
  126loPI   C3A 2009   6.519   9.480   7.861 -0.1228 -0.1824  0.0374
  126loPI   C4A 2010   6.638   9.278   7.488 -0.3086 -0.1270  0.1137
  126loPI   C5A 2011   6.571   9.109   7.137 -0.0874 -0.2574  0.0567
  126loPI   C6A 2012   6.513   9.140   6.646  0.1362 -0.1752  0.0793
  126loPI   C1B 2013   6.014   9.577   8.806  0.2479  0.0460 -0.1022
  126loPI   C2B 2014   6.069   9.516   8.353 -0.1289  0.1051  0.2905
  126loPI   C3B 2015   6.005   9.751   7.978 -0.1446 -0.1730 -0.0589
  126loPI   C4B 2016   5.821   9.741   7.577  0.3899 -0.0292 -0.1996
  127loPI    C1 2017  19.222   3.521  10.517  0.2570  0.0188 -0.0762
  127loPI    C2 2018  18.958   3.471  10.221  0.0733 -0.1067  0.1058
  127loPI    C3 2019  18.932   3.247  10.551  0.2640  0.0457  0.2262
  127loPI   PO4 2020  19.385   3.519  10.477  0.0835  0.0411 -0.0938
  127loPI   GL1 2021  19.669   3.404  10.213 -0.0991  0.1748  0.0743
  127loPI   GL2 2022  19.349   3.314   9.986  0.1176  0.0966 -0.2180
  127loPI   C1A 2023  19.648   3.750   9.878  0.2202  0.2019  0.0254
  127loPI   C2A 2024  19.561   3.948   9.448 -0.0824  0.1097  0.0219
  127loPI   C3A 2025  19.738   4.029   8.977 -0.1448  0.1749  0.0367
  127loPI   C4A 2026  19.806   4.374   8.703  0.0083  0.0064 -0.0423
  127loPI   C5A 2027  19.525   4.532   8.398 -0.2082  0.0525 -0.3341
  127loPI   C6A 2028  19.417   4.397   8.013 -0.1261 -0.4485 -0.3793
  127loPI   C1B 2029  19.692   3.203   9.722 -0.0876  0.3524 -0.0689
  127loPI   C2B 2030  19.888   3.055   9.247  0.2792 -0.0834 -0.1389
  127loPI   C3B 2031  19.833   3.049   8.807  0.1169  0.2251 -0.4225
  127loPI   C4B 2032  19.959   3.133   8.446  0.0206 -0.2046 -0.5608
  128loPI    C1 2033   9.664  17.780   9.094  0.1038 -0.1213 -0.3029
  128loPI    C2 2034   9.529  17.495   9.340  0.0143  0.3615  0.2290
  128loPI    C3 2035   9.285  17.656   9.067  0.0724 -0.0749 -0.0914
  128loPI   PO4 2036   9.875  17.712   9.061  0.1320  0.3077 -0.1935
  128loPI   GL1 2037   9.786  17.299   8.946  0.4778  0.1776  0.0126
  128loPI   GL2 2038   9.454  17.162   8.915  0.1061 -0.2541  0.4043
  128loPI   C1A 2039   9.834  17.227   8.469  0.0956  0.2157 -0.0633
  128loPI   C2A 2040   9.730  17.242   8.009 -0.1957  0.0166 -0.3738
  128loPI   C3A 2041   9.679  17.200   7.630 -0.2883 -0.3330 -0.0616
  128loPI   C4A 2042   9.804  17.245   7.178  0.4025 -0.0317 -0.0330
  128loPI   C5A 2043   9.612  17.356   6.751 -0.1562  0.2854 -0.0614
  128loPI   C6A 2044   9.392  17.463   6.347  0.1025  0.0618  0.3079
  128loPI   C1B 2045   9.393  17.453   8.601 -0.0415  0.1449  0.2100
  128loPI   C2B 2046   9.323  17.425   8.176 -0.2627  0.1462  0.1709
  128loPI   C3B 2047   9.367  17.557   7.719 -0.0404 -0.1051  0.2203
  128loPI   C4B 2048   9.339  17.529   7.308 -0.2508  0.0661  0.0972
  129loPI    C1 2049  18.309   4.554  10.625 -0.4189 -0.3475  0.0845
  129loPI    C2 2050  17.961   4.743  10.682 -0.2850 -0.1298  0.1935
  129loPI    C3 2051  18.162   4.595  10.995 -0.1687 -0.0536  0.1556
  129loPI   PO4 2052  18.409   4.741  10.369 -0.1779 -0.2657 -0.0652
  129loPI   GL1 2053  18.429   4.751   9.967  0.1073  0.2031  0.2992
  129loPI   GL2 2054  18.418   5.053   9.842  0.0271 -0.2109  0.2749
  129loPI   C1A 2055  18.599   4.655   9.537 -0.3150 -0.0763 -0.1993
  129loPI   C2A 2056  18.744   4.372   9.298  0.3308  0.0452 -0.1140
  129loPI   C3A 2057  18.943   3.988   9.325 -0.2404  0.0120 -0.0406
  129loPI   C4A 2058  19.225   3.844   9.100 -0.2289  0.1074 -0.0470
  129loPI   C5A 2059  19.059   3.711   8.601 -0.2156 -0.1730  0.2038
  129loPI   C6A 2060  19.107   3.564   8.184  0.0891  0.0815 -0.0269
  129loPI   C1B 2061  18.568   5.128   9.408  0.0148  0.4071 -0.1713
  129loPI   C2B 2062  18.623   5.247   9.048  0.3565  0.1231 -0.0563
  129loPI   C3B 2063  18.733   5.322   8.727 -0.5323  0.0931 -0.0213
  129loPI   C4B 2064  18.536   5.333   8.315 -0.0887 -0.3021 -0.0465
  130loPI    C1 2065   4.983   7.433   9.964 -0.0997  0.0512  0.1836
  130loPI    C2 2066   4.768   7.393  10.299 -0.3217  0.2705  0.0705
  130loPI    C3 2067   5.015   7.705  10.255  0.0353  0.0143  0.2044
  130loPI   PO4 2068   4.734   7.368   9.759 -0.4990  0.0856 -0.2155
  130loPI   GL1 2069   4.797   7.610   9.366 -0.0815  0.0215  0.1643
  130loPI   GL2 2070   4.586   7.658   9.220 -0.3713 -0.0941  0.0247
  130loPI   C1A 2071   4.876   7.656   8.878  0.0329  0.0008  0.2044
  130loPI   C2A 2072   4.802   7.894   8.507 -0.2209 -0.0988 -0.0558
  130loPI   C3A 2073   4.943   7.975   8.113 -0.1499 -0.2525 -0.0345
  130loPI   C4A 2074   4.958   8.302   7.764 -0.4309  0.1777 -0.2657
  130loPI   C5A 2075   4.583   8.555   7.522 -0.1949 -0.0037 -0.0915
  130loPI   C6A 2076   4.402   8.992   7.605  0.0287 -0.0254  0.1970
  130loPI   C1B 2077   4.422   7.669   8.772  0.1704 -0.0629 -0.1631
  130loPI   C2B 2078   4.307   7.708   8.240  0.1390  0.1524 -0.0712
  130loPI   C3B 2079   4.195   7.392   7.915  0.1296  0.2070  0.0079
  130loPI   C4B 2080   4.354   6.976   7.612 -0.0040 -0.0941  0.0428
  131loPI    C1 2081  17.798  18.271   9.948  0.0126  0.1490  0.1940
  131loPI    C2 2082  17.828  18.013  10.252 -0.0820 -0.1377 -0.0352
  131loPI    C3 2083  17.474  18.173  10.161 -0.0067  0.1511  0.1656
  131loPI   PO4 2084  17.861  18.118   9.679 -0.0627 -0.0579  0.0929
  131loPI   GL1 2085  18.262  17.971   9.494 -0.1593 -0.1915 -0.2533
  131loPI   GL2 2086  18.242  18.255   9.381 -0.4049 -0.1876 -0.0247
  131loPI   C1A 2087  18.165  17.636   9.205  0.1575  0.0890 -0.0414
  131loPI   C2A 2088  18.005  17.638   8.787 -0.4048  0.0875 -0.1508
  131loPI   C3A 2089  18.077  17.409   8.388 -0.0681  0.0610 -0.1389
  131loPI   C4A 2090  18.102  17.685   8.061 -0.1137  0.2216  0.0667
  131loPI   C5A 2091  18.338  17.706   7.880 -0.2998 -0.2770  0.1777
  131loPI   C6A 2092  18.669  17.530   7.928 -0.3689  0.0041  0.2702
  131loPI   C1B 2093  18.158  18.082   8.884 -0.3154 -0.0380 -0.2654
  131loPI   C2B 2094  17.931  18.088   8.575 -0.1302  0.0098 -0.3335
  131loPI   C3B 2095  17.800  18.123   8.200 -0.3648  0.1407  0.1893
  131loPI   C4B 2096  17.979  18.109   7.851  0.2694 -0.0860  0.5863
  132loPI    C1 2097   7.213   7.718  10.274 -0.0105 -0.0811 -0.0562
  132loPI    C2 2098   6.920   7.933  10.105 -0.1685 -0.0210  0.2847
  132loPI    C3 2099   6.867   7.772  10.468  0.1041 -0.2851  0.2120
  132loPI   PO4 2100   7.228   7.462  10.056 -0.3454 -0.0613 -0.2451
  132loPI   GL1 2101   7.080   7.474   9.714  0.0597 -0.1465 -0.1280
  132loPI   GL2 2102   6.983   7.760   9.623 -0.1325 -0.3007 -0.3869
  132loPI   C1A 2103   7.118   7.236   9.334 -0.3230  0.1480 -0.2945
  132loPI   C2A 2104   7.028   6.993   8.976 -0.4159  0.1515 -0.1978
  132loPI   C3A 2105   6.861   6.646   8.731 -0.1329  0.2237  0.0207
  132loPI   C4A 2106   6.896   6.517   8.260  0.0519  0.1395 -0.0675
  132loPI   C5A 2107   6.697   6.738   7.898  0.3177  0.2765  0.2587
  132loPI   C6A 2108   6.393   7.092   7.884  0.0078 -0.2937  0.0339
  132loPI   C1B 2109   6.631   7.681   9.324  0.2439 -0.1434  0.2829
  132loPI   C2B 2110   6.226   7.846   9.244  0.0288  0.1867 -0.2992
  132loPI   C3B 2111   6.034   8.002   8.785 -0.0356  0.0462 -0.2150
  132loPI   C4B 2112   5.735   8.174   8.576  0.3263  0.1215 -0.2877
  133loPI    C1 2113  18.513  15.660  10.042 -0.2562 -0.0200 -0.0309
  133loPI    C2 2114  18.629  15.286   9.961 -0.2163 -0.0514  0.1659
  133loPI    C3 2115  18.567  15.399  10.340 -0.1666  0.1593  0.1125
  133loPI   PO4 2116  18.663  15.821   9.748  0.2222  0.0084 -0.0469
  133loPI   GL1 2117  18.918  15.790   9.395  0.0198  0.0171 -0.5373
  133loPI   GL2 2118  18.703  15.873   9.185 -0.1379 -0.2813  0.2829
  133loPI   C1A 2119  19.116  15.831   8.869 -0.0812 -0.0495  0.3672
  133loPI   C2A 2120  19.177  16.004   8.398  0.0984 -0.0447  0.0295
  133loPI   C3A 2121  19.146  15.887   7.881  0.0657  0.0865 -0.2668
  133loPI   C4A 2122  19.414  15.939   7.494 -0.1480 -0.0495  0.0859
  133loPI   C5A 2123  19.542  16.287   7.388  0.1576 -0.0175  0.1799
  133loPI   C6A 2124  19.840  16.411   7.039 -0.0122 -0.1674 -0.2383
  133loPI   C1B 2125  18.691  15.851   8.714  0.1691  0.3888 -0.2662
  133loPI   C2B 2126  18.844  15.637   8.460  0.0966  0.4677  0.3812
  133loPI   C3B 2127  18.876  15.483   8.069 -0.1716 -0.0676 -0.1851
  133loPI   C4B 2128  18.867  15.581   7.599  0.4468 -0.1451 -0.1037
  134loPI    C1 2129   8.279   6.150   9.972 -0.0388 -0.0300  0.0881
  134loPI    C2 2130   8.419   5.824  10.156 -0.1105 -0.1560 -0.0784
  134loPI    C3 2131   8.031   5.915  10.180 -0.1092 -0.1404 -0.1184
  134loPI   PO4 2132   8.471   6.128   9.696  0.2476 -0.1871 -0.2865
  134loPI   GL1 2133   8.856   6.094   9.487 -0.0511 -0.4050  0.0668
  134loPI   GL2 2134   9.065   5.771   9.417  0.2275 -0.0352  0.0990
  134loPI   C1A 2135   8.735   6.352   9.115  0.1324  0.0490 -0.1868
  134loPI   C2A 2136   8.727   6.511   8.808  0.1368 -0.0135  0.1886
  134loPI   C3A 2137   8.733   6.546   8.355 -0.2700  0.3125  0.0446
  134loPI   C4A 2138   8.934   6.603   8.012 -0.4486  0.0026  0.0551
  134loPI   C5A 2139   8.966   6.485   7.558 -0.1039  0.0129 -0.2256
  134loPI   C6A 2140   9.307   6.502   7.207 -0.2441 -0.3009  0.4935
  134loPI   C1B 2141   8.993   5.612   9.013 -0.0616  0.3263  0.0536
  134loPI   C2B 2142   8.801   5.531   8.717 -0.1035 -0.1290 -0.2143
  134loPI   C3B 2143   8.803   5.330   8.266 -0.0123  0.0171 -0.0732
  134loPI   C4B 2144   8.903   5.345   7.786  0.1892 -0.0988 -0.0843
  135loPI    C1 2145   5.359  13.933   9.669 -0.1502  0.1380  0.1793
  135loPI    C2 2146   5.492  13.792  10.019  0.0307  0.1804  0.1285
  135loPI    C3 2147   5.708  14.062   9.816 -0.1929  0.3444  0.1044
  135loPI   PO4 2148   5.070  13.883   9.771  0.0771  0.0210  0.1093
  135loPI   GL1 2149   4.748  13.894   9.245  0.4662  0.0814  0.0505
  135loPI   GL2 2150   5.026  13.771   9.196 -0.0263 -0.0053  0.0236
  135loPI   C1A 2151   4.852  14.200   8.871  0.3449 -0.1642 -0.0477
  135loPI   C2A 2152   5.143  14.094   8.544  0.0714 -0.0447  0.0639
  135loPI   C3A 2153   5.367  14.468   8.247  0.2606  0.1118 -0.1058
  135loPI   C4A 2154   5.044  14.610   7.998  0.0724 -0.0107 -0.1309
  135loPI   C5A 2155   4.691  14.551   7.643 -0.2113  0.0683  0.1356
  135loPI   C6A 2156   4.197  14.466   7.549  0.0954 -0.0183  0.2672
  135loPI   C1B 2157   4.905  13.714   8.800 -0.2034 -0.0632 -0.2277
  135loPI   C2B 2158   4.670  13.837   8.419  0.0921  0.0111 -0.1602
  135loPI   C3B 2159   4.304  13.889   8.257 -0.2378  0.0326  0.0531
  135loPI   C4B 2160   3.983  14.048   8.128 -0.1759  0.1838 -0.2516
  136loPI    C1 2161  16.676   5.347  10.323  0.1195 -0.1528  0.0056
  136loPI    C2 2162  16.289   5.247  10.311  0.0530  0.0669  0.2424
  136loPI    C3 2163  16.438   5.433  10.632  0.3193  0.1328  0.0837
  136loPI   PO4 2164  16.728   5.366   9.998  0.0162  0.0921  0.2251
  136loPI   GL1 2165  16.652   5.194   9.545  0.2760  0.2646  0.3552
  136loPI   GL2 2166  16.957   5.098   9.485 -0.0398 -0.0501 -0.3682
  136loPI   C1A 2167  16.416   5.156   9.100  0.1468  0.3562 -0.0586
  136loPI   C2A 2168  16.291   5.019   8.712 -0.0463  0.0416 -0.0965
  136loPI   C3A 2169  16.088   4.851   8.376 -0.2468  0.3024  0.1338
  136loPI   C4A 2170  16.186   4.696   8.007 -0.2712  0.0201  0.0108
  136loPI   C5A 2171  16.027   4.476   7.612  0.0986  0.1096 -0.0837
  136loPI   C6A 2172  15.897   4.656   7.215  0.0107  0.0510  0.1681
  136loPI   C1B 2173  16.963   5.014   8.989  0.2000  0.0864 -0.2663
  136loPI   C2B 2174  16.818   5.075   8.580  0.0938  0.2523 -0.0059
  136loPI   C3B 2175  17.118   4.922   8.301 -0.0211  0.0874  0.2451
  136loPI   C4B 2176  17.408   4.847   8.167  0.2683  0.4636  0.1868
  137loPI    C1 2177   0.911   8.462   9.908  0.0201 -0.0164 -0.1290
  137loPI    C2 2178   0.898   8.154  10.163  0.2650 -0.1583 -0.2842
  137loPI    C3 2179   0.954   8.526  10.301  0.3210 -0.2248 -0.1249
  137loPI   PO4 2180   1.112   8.448   9.729 -0.1480  0.2919  0.3268
  137loPI   GL1 2181   1.352   8.396   9.371  0.0384 -0.0894  0.1545
  137loPI   GL2 2182   1.758   8.365   9.426  0.4083 -0.3948  0.1830
  137loPI   C1A 2183   1.418   8.076   9.045  0.0816 -0.1883  0.1854
  137loPI   C2A 2184   1.549   8.167   8.574 -0.0854 -0.0384  0.1197
  137loPI   C3A 2185   1.227   8.138   8.153 -0.1422  0.3973 -0.1814
  137loPI   C4A 2186   0.932   7.717   7.948  0.1895 -0.4369  0.2338
  137loPI   C5A 2187   0.782   7.293   7.760 -0.2605  0.2410 -0.1371
  137loPI   C6A 2188   0.776   7.054   7.360  0.0520 -0.0589  0.1119
  137loPI   C1B 2189   1.843   8.480   9.025 -0.1802  0.0760 -0.1957
  137loPI   C2B 2190   1.992   8.456   8.559  0.1723 -0.1260  0.0022
  137loPI   C3B 2191   2.035   8.376   8.135 -0.2411  0.0909  0.2244
  137loPI   C4B 2192   2.029   8.345   7.733 -0.0207  0.0933  0.2238
  138loPI    C1 2193   1.728  16.097  10.121  0.0758 -0.0805  0.2384
  138loPI    C2 2194   2.037  16.344  10.064 -0.1751  0.1750 -0.0518
  138loPI    C3 2195   1.921  16.252  10.436  0.2727  0.0393  0.0611
  138loPI   PO4 2196   1.607  16.143   9.952 -0.0259 -0.2230  0.2035
  138loPI   GL1 2197   1.567  16.257   9.573  0.1525 -0.0436  0.1537
  138loPI   GL2 2198   1.304  16.102   9.547 -0.1105  0.2473 -0.3802
  138loPI   C1A 2199   1.809  16.243   9.243 -0.1089 -0.0551  0.2848
  138loPI   C2A 2200   1.783  16.227   8.773  0.1134 -0.2384  0.3038
  138loPI   C3A 2201   1.652  16.406   8.247  0.0175  0.1258  0.4348
  138loPI   C4A 2202   1.507  16.276   7.864  0.0670  0.1594 -0.0047
  138loPI   C5A 2203   1.322  15.963   7.453  0.0995  0.0930 -0.0080
  138loPI   C6A 2204   1.279  16.028   7.110 -0.2373 -0.2929  0.1654
  138loPI   C1B 2205   1.329  16.304   9.117 -0.0094  0.0886 -0.0546
  138loPI   C2B 2206   1.297  16.238   8.685  0.0972 -0.2358 -0.0307
  138loPI   C3B 2207   1.176  16.432   8.270  0.4516 -0.0779 -0.0646
  138loPI   C4B 2208   1.350  16.757   7.913 -0.2686  0.0561 -0.1067
  139loPI    C1 2209  15.886  14.441   9.588 -0.1000 -0.0745  0.0076
  139loPI    C2 2210  15.831  14.686   9.899 -0.0612  0.1932 -0.1924
  139loPI    C3 2211  15.994  14.325   9.955 -0.0249  0.2513  0.0920
  139loPI   PO4 2212  15.991  14.599   9.404  0.3841  0.3986  0.1458
  139loPI   GL1 2213  16.094  14.682   8.987  0.0373  0.5799  0.1317
  139loPI   GL2 2214  16.356  14.781   8.834  0.0045 -0.2923  0.3031
  139loPI   C1A 2215  15.972  14.617   8.566  0.1331 -0.1598 -0.0859
  139loPI   C2A 2216  15.977  14.425   8.270  0.3649  0.0098 -0.1139
  139loPI   C3A 2217  16.231  14.445   7.870  0.0960  0.2600  0.2416
  139loPI   C4A 2218  16.333  14.615   7.571  0.0812  0.4015  0.0055
  139loPI   C5A 2219  16.582  14.414   7.266 -0.1014 -0.0819  0.2366
  139loPI   C6A 2220  16.581  14.209   6.857  0.0828  0.0804 -0.1328
  139loPI   C1B 2221  16.512  14.689   8.399  0.1771 -0.2649 -0.1073
  139loPI   C2B 2222  16.653  14.769   7.964 -0.0308 -0.1946  0.1069
  139loPI   C3B 2223  16.866  14.665   7.592  0.1321  0.0287  0.3363
  139loPI   C4B 2224  17.160  14.201   7.600 -0.1635 -0.1403  0.0748
  140loPI    C1 2225   2.066  15.753  10.401 -0.0111  0.4740  0.2613
  140loPI    C2 2226   1.685  15.650  10.335  0.2025 -0.1536 -0.0666
  140loPI    C3 2227   1.841  15.613  10.701 -0.0419  0.0893  0.0653
  140loPI   PO4 2228   2.209  15.886  10.131  0.1159  0.1071  0.3545
  140loPI   GL1 2229   2.083  16.034   9.720 -0.0052 -0.2377  0.3449
  140loPI   GL2 2230   2.262  16.320   9.594 -0.1165  0.0038  0.0316
  140loPI   C1A 2231   1.971  15.822   9.361  0.0281 -0.0547 -0.0598
  140loPI   C2A 2232   2.009  15.807   8.835 -0.2783 -0.2296  0.0946
  140loPI   C3A 2233   2.005  15.872   8.380  0.3399  0.0300 -0.2718
  140loPI   C4A 2234   1.931  15.865   7.936  0.2318 -0.3156  0.0674
  140loPI   C5A 2235   1.902  16.151   7.545  0.0913  0.1313 -0.1242
  140loPI   C6A 2236   1.709  16.246   7.177 -0.0823 -0.2887  0.0747
  140loPI   C1B 2237   2.246  16.213   9.067 -0.0578  0.1154 -0.0329
  140loPI   C2B 2238   2.354  16.151   8.617  0.0274  0.2162 -0.0101
  140loPI   C3B 2239   2.118  16.372   8.246 -0.0283 -0.4067  0.0181
  140loPI   C4B 2240   2.022  16.507   7.854 -0.0001 -0.2987 -0.1453
  141loPI    C1 2241  15.250   3.084  10.023  0.0362 -0.0708  0.0039
  141loPI    C2 2242  15.177   2.707  10.135 -0.3137 -0.0636 -0.1858
  141loPI    C3 2243  15.266   2.983  10.410  0.2644 -0.3465 -0.0738
  141loPI   PO4 2244  15.068   3.033   9.703 -0.1071  0.3445 -0.0034
  141loPI   GL1 2245  15.139   3.253   9.290 -0.1934 -0.2719  0.0987
  141loPI   GL2 2246  15.424   3.202   9.071 -0.2057  0.0663  0.1091
  141loPI   C1A 2247  15.058   3.430   8.839 -0.1635 -0.0870 -0.0405
  141loPI   C2A 2248  15.269   3.527   8.444  0.0698 -0.0030  0.0921
  141loPI   C3A 2249  15.407   3.614   8.052 -0.0999  0.0715 -0.1951
  141loPI   C4A 2250  15.289   3.752   7.632  0.2946 -0.1500  0.0444
  141loPI   C5A 2251  15.253   3.965   7.243 -0.3301 -0.1968  0.0940
  141loPI   C6A 2252  15.575   4.030   7.014  0.0234 -0.1402 -0.1301
  141loPI   C1B 2253  15.555   3.158   8.577  0.0746  0.0630 -0.0668
  141loPI   C2B 2254  15.747   3.337   8.237 -0.3874  0.1530  0.0135
  141loPI   C3B 2255  15.806   3.517   7.725 -0.2937 -0.1645 -0.1262
  141loPI   C4B 2256  15.772   3.832   7.494  0.1498 -0.1385  0.4143
  142loPI    C1 2257  15.657   1.421   9.715  0.0186 -0.0136 -0.0379
  142loPI    C2 2258  15.637   1.820   9.728  0.1784 -0.0090  0.1104
  142loPI    C3 2259  15.509   1.603  10.038  0.1398 -0.0716  0.0510
  142loPI   PO4 2260  15.821   1.375   9.477 -0.3047 -0.0941 -0.4267
  142loPI   GL1 2261  15.755   0.996   9.201 -0.3422 -0.1097  0.0077
  142loPI   GL2 2262  15.640   1.277   9.019 -0.1370 -0.2282 -0.0467
  142loPI   C1A 2263  15.508   0.853   8.888 -0.2791  0.2035 -0.5092
  142loPI   C2A 2264  15.478   0.758   8.449  0.0130 -0.1043 -0.1977
  142loPI   C3A 2265  15.385   0.831   7.976 -0.2262 -0.0592 -0.0509
  142loPI   C4A 2266  15.525   0.993   7.708 -0.0609 -0.1433 -0.0675
  142loPI   C5A 2267  15.821   1.171   7.494  0.3227 -0.0994  0.0643
  142loPI   C6A 2268  16.162   1.510   7.373 -0.1017 -0.1209 -0.0435
  142loPI   C1B 2269  15.752   1.490   8.630  0.1102  0.0894 -0.0915
  142loPI   C2B 2270  15.878   1.658   8.330  0.0526 -0.4302  0.2548
  142loPI   C3B 2271  15.995   1.850   7.917  0.0366  0.3271  0.0483
  142loPI   C4B 2272  16.155   2.002   7.492  0.0117 -0.0756  0.0868
  143loPI    C1 2273  10.532   8.588   9.842  0.0281  0.0480  0.1030
  143loPI    C2 2274  10.656   8.499  10.212 -0.0536  0.0015  0.1195
  143loPI    C3 2275  10.919   8.626   9.938  0.0367 -0.1303  0.1436
  143loPI   PO4 2276  10.339   8.419   9.744 -0.3190 -0.0072 -0.1380
  143loPI   GL1 2277  10.259   8.140   9.482 -0.0059  0.1768 -0.1044
  143loPI   GL2 2278  10.583   8.071   9.361  0.1029 -0.1797 -0.0417
  143loPI   C1A 2279  10.115   8.288   9.066  0.0600 -0.2285 -0.0463
  143loPI   C2A 2280  10.242   8.276   8.561 -0.2029 -0.2017 -0.2511
  143loPI   C3A 2281  10.360   8.231   8.108 -0.3156 -0.1620  0.0112
  143loPI   C4A 2282  10.410   8.265   7.688 -0.0636  0.0776  0.2301
  143loPI   C5A 2283  10.507   8.116   7.328 -0.1011  0.1503  0.3318
  143loPI   C6A 2284  10.454   8.236   6.841  0.4610 -0.1559 -0.1183
  143loPI   C1B 2285  10.559   8.041   8.892  0.1429 -0.0866 -0.1368
  143loPI   C2B 2286  10.665   8.010   8.437  0.1007  0.0458  0.5017
  143loPI   C3B 2287  10.838   7.989   8.024 -0.0286  0.6595  0.1342
  143loPI   C4B 2288  10.929   8.159   7.622 -0.1972 -0.2762 -0.1484
  144loPI    C1 2289   2.462  15.137  10.092  0.0544 -0.3687 -0.1232
  144loPI    C2 2290   2.426  15.245  10.475 -0.1732 -0.3287 -0.1546
  144loPI    C3 2291   2.332  14.873  10.363  0.0900 -0.4018 -0.1381
  144loPI   PO4 2292   2.416  15.407   9.968 -0.1380 -0.1897  0.2596
  144loPI   GL1 2293   2.455  15.708   9.728  0.2014  0.3525 -0.0498
  144loPI   GL2 2294   2.651  15.935   9.796  0.2125  0.3793 -0.2313
  144loPI   C1A 2295   2.735  15.452   9.359 -0.0540 -0.0596 -0.0211
  144loPI   C2A 2296   2.817  15.315   8.922  0.2031 -0.1081 -0.1315
  144loPI   C3A 2297   2.816  15.311   8.508  0.0209 -0.0853 -0.1206
  144loPI   C4A 2298   2.790  15.238   8.053 -0.2931  0.0878 -0.0526
  144loPI   C5A 2299   2.984  15.042   7.775 -0.0908  0.1123  0.1387
  144loPI   C6A 2300   3.334  15.063   7.543  0.0126  0.0080  0.0608
  144loPI   C1B 2301   2.645  15.937   9.330  0.2774  0.0158 -0.0876
  144loPI   C2B 2302   2.516  15.792   8.991  0.2679 -0.3468 -0.2418
  144loPI   C3B 2303   2.478  15.666   8.536 -0.0975 -0.0941  0.0058
  144loPI   C4B 2304   2.358  15.520   8.101 -0.2968  0.0902 -0.1132
  145loPI    C1 2305   6.242  11.629   9.648  0.1307  0.1913  0.0327
  145loPI    C2 2306   6.607  11.666   9.808 -0.0821  0.1066  0.5603
  145loPI    C3 2307   6.335  11.429   9.982 -0.2981 -0.0731  0.0016
  145loPI   PO4 2308   6.235  11.557   9.400 -0.2515  0.2009 -0.2375
  145loPI   GL1 2309   5.998  11.552   9.081 -0.1196 -0.1397  0.0313
  145loPI   GL2 2310   5.817  11.757   8.905  0.1799 -0.4894  0.1984
  145loPI   C1A 2311   5.950  11.292   8.736  0.1907 -0.1333  0.1792
  145loPI   C2A 2312   5.993  11.085   8.458 -0.4425 -0.2155 -0.0088
  145loPI   C3A 2313   5.922  10.949   8.048  0.1663  0.1816  0.3093
  145loPI   C4A 2314   5.643  10.810   7.749  0.1884 -0.0017  0.1382
  145loPI   C5A 2315   5.401  10.483   7.579  0.2922  0.0178  0.0055
  145loPI   C6A 2316   5.005  10.297   7.396 -0.1557 -0.0223  0.0441
  145loPI   C1B 2317   5.517  11.577   8.754  0.0257 -0.1568 -0.0503
  145loPI   C2B 2318   5.340  11.655   8.376  0.3910  0.0663  0.2738
  145loPI   C3B 2319   5.566  11.755   8.009 -0.1746  0.0165  0.2662
  145loPI   C4B 2320   5.963  11.899   7.778  0.2709 -0.0360 -0.1341
  146loPI    C1 2321   4.927   5.515  10.545  0.2543 -0.0261 -0.0845
  146loPI    C2 2322   4.866   5.154  10.706 -0.0464  0.0589  0.0001
  146loPI    C3 2323   5.133   5.403  10.869 -0.2393  0.0861  0.2806
  146loPI   PO4 2324   4.895   5.478  10.299  0.0954 -0.2023  0.3219
  146loPI   GL1 2325   4.810   5.336   9.906  0.1595  0.3718  0.0159
  146loPI   GL2 2326   4.559   5.242   9.801 -0.4151 -0.1348  0.2298
  146loPI   C1A 2327   4.780   5.604   9.471 -0.0304  0.1242  0.1370
  146loPI   C2A 2328   4.651   5.568   9.004 -0.0228 -0.2441 -0.0512
  146loPI   C3A 2329   4.624   5.763   8.608 -0.1648  0.1292  0.3036
  146loPI   C4A 2330   4.529   5.713   8.228 -0.1940 -0.2170  0.1304
  146loPI   C5A 2331   4.231   5.819   7.980  0.0227  0.0129 -0.1061
  146loPI   C6A 2332   3.941   5.560   7.667  0.3152  0.1587 -0.0319
  146loPI   C1B 2333   4.605   5.112   9.372  0.0992 -0.2031  0.0851
  146loPI   C2B 2334   4.771   5.091   8.931  0.1375  0.1339 -0.0313
  146loPI   C3B 2335   4.982   4.992   8.499 -0.3078  0.2059 -0.0384
  146loPI   C4B 2336   4.940   4.941   8.026 -0.2537  0.4987  0.0319
  147loPI    C1 2337  10.427   9.459   9.648  0.3158  0.0567 -0.0831
  147loPI    C2 2338  10.369   9.393  10.039  0.2638 -0.0414 -0.1070
  147loPI    C3 2339  10.438   9.765   9.906  0.0696  0.0235 -0.0304
  147loPI   PO4 2340  10.296   9.343   9.545  0.2294 -0.1433  0.0148
  147loPI   GL1 2341  10.365   9.354   9.138  0.2578  0.2749  0.3249
  147loPI   GL2 2342  10.717   9.403   9.084  0.1983 -0.0425 -0.2728
  147loPI   C1A 2343  10.206   9.064   8.776  0.1948 -0.0807 -0.0198
  147loPI   C2A 2344  10.248   8.894   8.418 -0.0103 -0.4064  0.2523
  147loPI   C3A 2345  10.132   8.759   7.987  0.3386  0.1452  0.0686
  147loPI   C4A 2346  10.009   8.584   7.578 -0.1422 -0.3547 -0.1182
  147loPI   C5A 2347  10.002   8.170   7.310  0.3439 -0.0321 -0.0153
  147loPI   C6A 2348  10.104   7.755   7.313 -0.1449  0.1227 -0.0792
  147loPI   C1B 2349  10.749   9.210   8.763 -0.0346 -0.2748  0.0943
  147loPI   C2B 2350  10.659   9.097   8.341 -0.0113 -0.3158 -0.0421
  147loPI   C3B 2351  10.555   8.960   7.937  0.3746  0.2848  0.2577
  147loPI   C4B 2352  10.670   8.879   7.629 -0.0734 -0.0684 -0.2167
  148loPI    C1 2353  10.687  16.656   9.593  0.1892 -0.0334  0.0499
  148loPI    C2 2354  10.890  17.000   9.624  0.1675 -0.0264  0.1136
  148loPI    C3 2355  10.510  17.003   9.500  0.1268 -0.0143  0.2371
  148loPI   PO4 2356  10.882  16.496   9.439 -0.1619  0.1623 -0.1809
  148loPI   GL1 2357  11.204  16.443   9.188  0.0875 -0.0872 -0.3109
  148loPI   GL2 2358  11.534  16.435   9.219  0.3092  0.0313 -0.2767
  148loPI   C1A 2359  11.070  16.394   8.718 -0.2029  0.2432  0.0170
  148loPI   C2A 2360  10.844  16.489   8.331  0.2228  0.4001  0.3595
  148loPI   C3A 2361  10.774  16.518   7.874 -0.2873  0.0592 -0.3034
  148loPI   C4A 2362  11.026  16.567   7.499  0.0532  0.0960  0.1233
  148loPI   C5A 2363  10.975  16.453   7.027  0.0708 -0.1168 -0.0550
  148loPI   C6A 2364  10.840  16.573   6.708  0.3572 -0.0165 -0.0823
  148loPI   C1B 2365  11.519  16.500   8.762  0.1030 -0.3581 -0.1498
  148loPI   C2B 2366  11.440  16.440   8.363 -0.1886 -0.1796  0.0681
  148loPI   C3B 2367  11.393  16.484   8.009  0.0887  0.0779  0.0905
  148loPI   C4B 2368  11.450  16.377   7.589  0.0115 -0.1147  0.0943
  149loPI    C1 2369  15.332   0.370   9.843  0.0830  0.1223  0.0030
  149loPI    C2 2370  15.182   0.635  10.103 -0.1169 -0.0420  0.0579
  149loPI    C3 2371  15.464   0.377  10.221  0.0776  0.1433  0.0046
  149loPI   PO4 2372  15.331   0.612   9.616  0.0679  0.1427  0.2681
  149loPI   GL1 2373  15.498   0.543   9.294 -0.2275 -0.1240  0.2071
  149loPI   GL2 2374  15.370   0.329   9.105 -0.0945  0.4223  0.4323
  149loPI   C1A 2375  15.816   0.441   8.954  0.0565 -0.0809  0.1863
  149loPI   C2A 2376  15.891   0.520   8.543 -0.1383  0.1133 -0.1661
  149loPI   C3A 2377  15.697   0.360   8.102 -0.0016  0.2331  0.1084
  149loPI   C4A 2378  15.639   0.349   7.802 -0.5549 -0.2315 -0.4268
  149loPI   C5A 2379  15.816   0.670   7.462  0.0154 -0.1063 -0.1737
  149loPI   C6A 2380  15.820   0.738   6.987 -0.0227  0.1753 -0.1897
  149loPI   C1B 2381  15.403   0.319   8.690 -0.1148 -0.2195  0.1994
  149loPI   C2B 2382  15.280   0.217   8.331 -0.0727 -0.0245  0.0846
  149loPI   C3B 2383  15.278  -0.033   7.829  0.1367  0.1029  0.1086
  149loPI   C4B 2384  15.245   0.109   7.393 -0.0229  0.0247 -0.0391
  150loPI    C1 2385  19.197  18.274   9.942  0.2856  0.1060  0.0494
  150loPI    C2 2386  19.097  18.240  10.328 -0.0401  0.1370 -0.0294
  150loPI    C3 2387  19.423  18.447  10.224  0.0222  0.1711  0.2253
  150loPI   PO4 2388  19.163  17.973   9.844  0.3564 -0.2002  0.2889
  150loPI   GL1 2389  18.960  17.737   9.417  0.0279  0.1508  0.0744
  150loPI   GL2 2390  18.728  17.759   9.426 -0.1610 -0.0048 -0.3535
  150loPI   C1A 2391  18.965  17.694   8.946  0.3412 -0.1220  0.0114
  150loPI   C2A 2392  19.051  17.717   8.553  0.1024 -0.1895  0.1110
  150loPI   C3A 2393  19.240  17.647   8.057  0.1312 -0.0115  0.2720
  150loPI   C4A 2394  19.057  17.450   7.590 -0.1734  0.2295  0.2220
  150loPI   C5A 2395  19.177  17.149   7.400  0.0906 -0.1875 -0.2348
  150loPI   C6A 2396  19.039  16.704   7.238  0.0762 -0.2950 -0.2886
  150loPI   C1B 2397  18.603  17.991   9.035  0.1608  0.0133  0.1729
  150loPI   C2B 2398  18.844  18.127   8.717  0.0584  0.1077  0.2488
  150loPI   C3B 2399  18.851  18.324   8.385  0.2592 -0.4686 -0.1479
  150loPI   C4B 2400  18.832  18.397   7.925 -0.3197 -0.0325  0.1545
  151loPI    C1 2401  14.649   9.938   9.588  0.1173 -0.0331 -0.1323
  151loPI    C2 2402  14.284   9.778   9.621  0.1195 -0.0052  0.0342
  151loPI    C3 2403  14.408  10.050   9.886  0.2557 -0.0029 -0.0310
  151loPI   PO4 2404  14.796   9.669   9.540 -0.1516  0.3107  0.1199
  151loPI   GL1 2405  14.797   9.528   9.166  0.0097  0.1621  0.0468
  151loPI   GL2 2406  14.678   9.777   9.062  0.1467 -0.2882  0.0146
  151loPI   C1A 2407  14.745   9.343   8.779 -0.2781  0.3038  0.2442
  151loPI   C2A 2408  14.708   9.262   8.343  0.1460  0.0026 -0.0177
  151loPI   C3A 2409  14.626   8.962   7.978 -0.0684 -0.2107  0.1107
  151loPI   C4A 2410  14.536   8.944   7.472  0.0404 -0.0467  0.0942
  151loPI   C5A 2411  14.466   8.864   7.125  0.2523  0.1573 -0.0482
  151loPI   C6A 2412  14.146   8.662   6.840 -0.2279 -0.2375 -0.0083
  151loPI   C1B 2413  14.523   9.789   8.616  0.0784  0.1228 -0.0355
  151loPI   C2B 2414  14.536   9.784   8.096 -0.1530 -0.1082  0.0847
  151loPI   C3B 2415  14.408   9.864   7.621 -0.0500  0.2053 -0.0694
  151loPI   C4B 2416  14.215   9.787   7.233  0.1445  0.1296 -0.4466
  152loPI    C1 2417  13.636   0.241   9.136 -0.1968  0.0707 -0.2933
  152loPI    C2 2418  13.421  -0.036   9.328  0.0131 -0.0279 -0.1970
  152loPI    C3 2419  13.304   0.346   9.334 -0.0501 -0.0492  0.0243
  152loPI   PO4 2420  13.625   0.217   8.925  0.1178 -0.1952 -0.0945
  152loPI   GL1 2421  13.574   0.240   8.587  0.2123  0.1549  0.1056
  152loPI   GL2 2422  13.548   0.568   8.626  0.0593  0.1774  0.0440
  152loPI   C1A 2423  13.748   0.041   8.138  0.0514 -0.0641  0.1094
  152loPI   C2A 2424  13.697   0.007   7.665  0.0972 -0.0218 -0.0464
  152loPI   C3A 2425  13.769   0.256   7.303  0.0707  0.1912 -0.0100
  152loPI   C4A 2426  13.704   0.383   6.936 -0.3102 -0.0884  0.1692
  152loPI   C5A 2427  13.772   0.525   6.487 -0.3068  0.0611 -0.1169
  152loPI   C6A 2428  13.934   0.611   6.056 -0.2451  0.2794 -0.1310
  152loPI   C1B 2429  13.679   0.613   8.199  0.0449  0.1704  0.3920
  152loPI   C2B 2430  13.770   0.824   7.900  0.1535  0.2372  0.0616
  152loPI   C3B 2431  13.793   1.125   7.578  0.4016 -0.3027  0.1136
  152loPI   C4B 2432  13.909   1.250   7.170  0.1658  0.0083  0.2420
  153loPI    C1 2433  16.039   7.687   9.660 -0.4427  0.1840 -0.0144
  153loPI    C2 2434  16.203   7.410   9.898  0.0589  0.2049 -0.3215
  153loPI    C3 2435  16.093   7.763  10.049 -0.1525  0.0144 -0.0182
  153loPI   PO4 2436  16.184   7.701   9.467 -0.7388  0.4155  0.4099
  153loPI   GL1 2437  16.349   7.773   9.081  0.1959 -0.0090  0.1970
  153loPI   GL2 2438  16.551   8.043   8.845  0.0997 -0.1029  0.0993
  153loPI   C1A 2439  16.602   7.463   8.867 -0.0545  0.2247  0.1676
  153loPI   C2A 2440  16.736   7.063   8.643  0.1096 -0.0247 -0.0929
  153loPI   C3A 2441  16.940   7.326   8.266 -0.3172  0.2416  0.1704
  153loPI   C4A 2442  17.122   7.457   7.890 -0.3337  0.2166 -0.0816
  153loPI   C5A 2443  17.507   7.798   7.683 -0.0505 -0.1540  0.3394
  153loPI   C6A 2444  17.821   7.465   7.522  0.3182 -0.0402 -0.4950
  153loPI   C1B 2445  16.378   7.920   8.430  0.0664  0.1878  0.2707
  153loPI   C2B 2446  16.137   7.710   8.001 -0.1454 -0.0723 -0.2330
  153loPI   C3B 2447  16.102   7.686   7.544  0.1240  0.0087 -0.0498
  153loPI   C4B 2448  15.941   7.924   7.309 -0.0253  0.2207  0.2542
  154loPI    C1 2449  13.913  12.730   9.497 -0.1092  0.0417  0.1844
  154loPI    C2 2450  14.187  12.656   9.779 -0.0224  0.2125  0.1456
  154loPI    C3 2451  13.847  12.845   9.874  0.0079  0.2719  0.1364
  154loPI   PO4 2452  14.071  12.828   9.202 -0.6090 -0.1609  0.2616
  154loPI   GL1 2453  14.185  13.104   8.757  0.4176 -0.2019  0.0985
  154loPI   GL2 2454  13.878  13.350   8.678 -0.0324  0.0149  0.1792
  154loPI   C1A 2455  14.053  13.069   8.316 -0.3452 -0.2513 -0.0182
  154loPI   C2A 2456  14.158  12.927   7.987  0.2360  0.1921  0.0046
  154loPI   C3A 2457  14.285  12.546   7.726 -0.3097 -0.2492 -0.1791
  154loPI   C4A 2458  14.435  12.477   7.262 -0.1626 -0.3459 -0.0892
  154loPI   C5A 2459  14.329  12.431   6.849  0.3012  0.1295  0.3141
  154loPI   C6A 2460  14.197  12.149   6.670 -0.0355  0.0770  0.2066
  154loPI   C1B 2461  13.797  13.542   8.336  0.2930 -0.2728 -0.2698
  154loPI   C2B 2462  13.640  13.514   7.942  0.2354 -0.1199  0.4472
  154loPI   C3B 2463  13.371  13.811   7.733 -0.1114  0.0071  0.0249
  154loPI   C4B 2464  13.067  14.158   7.582 -0.2617  0.0059  0.1276
  155loPI    C1 2465  11.288   5.586   9.850  0.1945 -0.3540 -0.1189
  155loPI    C2 2466  11.564   5.870   9.792  0.0897 -0.2205  0.0264
  155loPI    C3 2467  11.581   5.637  10.117  0.0477 -0.2314  0.0209
  155loPI   PO4 2468  11.219   5.575   9.600 -0.1774 -0.0656 -0.1564
  155loPI   GL1 2469  11.256   5.414   9.220  0.0511  0.1372  0.0655
  155loPI   GL2 2470  11.369   4.990   9.106  0.1606 -0.0663 -0.0504
  155loPI   C1A 2471  11.320   5.431   8.760  0.0930  0.1867  0.1200
  155loPI   C2A 2472  11.313   5.614   8.357  0.1215 -0.2227  0.0781
  155loPI   C3A 2473  11.432   5.481   7.917  0.1921  0.1483  0.0368
  155loPI   C4A 2474  11.474   5.552   7.475  0.0109  0.1111 -0.0487
  155loPI   C5A 2475  11.618   5.632   7.136  0.3714  0.2980 -0.2265
  155loPI   C6A 2476  11.555   5.938   6.774  0.0713 -0.0634 -0.2983
  155loPI   C1B 2477  10.918   5.146   8.876  0.1485  0.0204  0.0636
  155loPI   C2B 2478  10.545   4.871   8.692  0.4468 -0.0090  0.0223
  155loPI   C3B 2479  10.199   4.819   8.415 -0.1831 -0.1087 -0.0700
  155loPI   C4B 2480  10.259   4.964   7.986 -0.1002 -0.2980 -0.2564
  156loPI    C1 2481  16.436  16.902   9.282  0.1076 -0.0034 -0.2466
  156loPI    C2 2482  16.521  17.293   9.295  0.0175  0.0092  0.0329
  156loPI    C3 2483  16.255  17.137   9.550  0.0770 -0.2415 -0.0552
  156loPI   PO4 2484  16.363  16.862   8.997 -0.0665  0.1670  0.1008
  156loPI   GL1 2485  16.450  17.117   8.716 -0.2336 -0.0412  0.0259
  156loPI   GL2 2486  16.450  16.836   8.463 -0.1992  0.1522 -0.0928
  156loPI   C1A 2487  16.568  17.261   8.330  0.3008 -0.3529 -0.0034
  156loPI   C2A 2488  16.617  17.246   7.887 -0.0689 -0.0512  0.1141
  156loPI   C3A 2489  16.631  17.290   7.412  0.2107 -0.4941 -0.2138
  156loPI   C4A 2490  16.919  17.267   7.023  0.2357 -0.1142 -0.1838
  156loPI   C5A 2491  16.854  17.681   6.822  0.0275  0.0208 -0.3485
  156loPI   C6A 2492  16.875  18.008   6.408 -0.3816 -0.0238  0.0427
  156loPI   C1B 2493  16.329  16.676   8.150 -0.2853  0.1941 -0.1011
  156loPI   C2B 2494  16.421  16.766   7.789 -0.0513  0.0998 -0.1360
  156loPI   C3B 2495  16.575  16.777   7.352 -0.0572 -0.2286  0.0455
  156loPI   C4B 2496  16.796  16.779   6.954 -0.2472  0.2843 -0.2896
  157loPI    C1 2497   7.289  13.144   9.549 -0.2810 -0.1259 -0.1387
  157loPI    C2 2498   7.455  12.856   9.771 -0.0183  0.1313  0.0054
  157loPI    C3 2499   7.058  12.869   9.724 -0.0190 -0.3927 -0.2032
  157loPI   PO4 2500   7.480  13.138   9.365 -0.2005  0.2063  0.0529
  157loPI   GL1 2501   7.744  13.205   9.098 -0.1287  0.2571  0.0995
  157loPI   GL2 2502   7.752  13.015   8.917 -0.1708 -0.1084  0.1537
  157loPI   C1A 2503   7.622  13.627   8.834  0.1063 -0.0739  0.1038
  157loPI   C2A 2504   7.446  13.732   8.437 -0.0734  0.0119  0.2711
  157loPI   C3A 2505   7.205  13.498   8.156  0.0156 -0.0201 -0.0275
  157loPI   C4A 2506   6.797  13.373   8.008  0.0646 -0.2949  0.3006
  157loPI   C5A 2507   6.599  13.069   7.915 -0.2055 -0.0558  0.4215
  157loPI   C6A 2508   6.594  12.727   8.111 -0.1907  0.1268  0.1357
  157loPI   C1B 2509   7.997  13.212   8.613  0.1911 -0.0026 -0.2438
  157loPI   C2B 2510   8.050  13.133   8.156 -0.3616  0.1159  0.3021
  157loPI   C3B 2511   8.110  13.083   7.719 -0.0264 -0.1471  0.0929
  157loPI   C4B 2512   8.053  13.063   7.324  0.0430  0.0197  0.3738
  158loPI    C1 2513   1.163  11.426   9.700  0.0965  0.2109 -0.2597
  158loPI    C2 2514   0.944  11.760   9.703  0.2043  0.2830  0.0995
  158loPI    C3 2515   1.214  11.696   9.991 -0.0705 -0.2812  0.2448
  158loPI   PO4 2516   1.179  11.407   9.447  0.0744 -0.2633 -0.0339
  158loPI   GL1 2517   1.254  11.138   9.129 -0.0015 -0.0591 -0.0822
  158loPI   GL2 2518   1.380  11.462   9.005  0.0475 -0.3792 -0.0154
  158loPI   C1A 2519   1.292  10.849   8.741  0.2228  0.2131 -0.0691
  158loPI   C2A 2520   1.391  10.614   8.338 -0.1548  0.0555 -0.1593
  158loPI   C3A 2521   1.497  10.498   7.897  0.1237 -0.0113  0.1062
  158loPI   C4A 2522   1.483  10.479   7.562 -0.0641  0.1120  0.1590
  158loPI   C5A 2523   1.426  10.448   7.172  0.1309 -0.0776 -0.2400
  158loPI   C6A 2524   1.241  10.286   6.899 -0.0315  0.2461 -0.1442
  158loPI   C1B 2525   1.276  11.385   8.614 -0.2655  0.0096  0.1770
  158loPI   C2B 2526   1.328  11.503   8.142  0.2758  0.1766 -0.4327
  158loPI   C3B 2527   1.147  11.478   7.667 -0.0105  0.3876 -0.0573
  158loPI   C4B 2528   1.204  11.522   7.238 -0.0381 -0.1097  0.4384
  159loPI    C1 2529  16.987   8.891   9.785 -0.1002 -0.0904  0.0855
  159loPI    C2 2530  17.059   8.767  10.158  0.3996 -0.1538 -0.0249
  159loPI    C3 2531  17.104   8.514   9.851  0.0538 -0.0838 -0.1373
  159loPI   PO4 2532  17.200   9.093   9.647 -0.2325 -0.2172 -0.2896
  159loPI   GL1 2533  17.463   9.042   9.336  0.0305 -0.0618 -0.2737
  159loPI   GL2 2534  17.577   8.741   9.332  0.1889 -0.1553  0.0824
  159loPI   C1A 2535  17.063   9.104   8.996  0.2278  0.0710 -0.3042
  159loPI   C2A 2536  16.769   8.732   8.930  0.0863 -0.0694  0.1809
  159loPI   C3A 2537  16.718   8.501   8.533  0.0782 -0.0457 -0.1591
  159loPI   C4A 2538  16.775   8.424   8.051 -0.1197 -0.1317  0.1176
  159loPI   C5A 2539  16.688   8.370   7.618 -0.1058  0.1448  0.0903
  159loPI   C6A 2540  16.528   8.073   7.313  0.2149 -0.2352  0.0859
  159loPI   C1B 2541  17.746   8.975   8.991  0.0777 -0.3325  0.2055
  159loPI   C2B 2542  18.111   9.021   8.752  0.3273  0.3617 -0.0295
  159loPI   C3B 2543  18.476   9.300   8.718  0.1468 -0.1269  0.0549
  159loPI   C4B 2544  18.521   9.682   9.040  0.2163 -0.1224 -0.1869
  160loPI    C1 2545  15.575   7.882   9.725  0.0749 -0.0915  0.1415
  160loPI    C2 2546  15.790   8.163   9.912 -0.1050  0.1109  0.0482
  160loPI    C3 2547  15.631   7.861  10.121  0.0580  0.0977  0.1546
  160loPI   PO4 2548  15.655   7.975   9.419 -0.2196  0.0475 -0.1221
  160loPI   GL1 2549  15.821   8.135   9.064  0.1672  0.0073 -0.0934
  160loPI   GL2 2550  15.514   8.214   8.983  0.1652 -0.0351 -0.1595
  160loPI   C1A 2551  15.881   8.025   8.687 -0.2061 -0.4641 -0.1893
  160loPI   C2A 2552  15.724   8.122   8.141  0.3115 -0.3301 -0.4516
  160loPI   C3A 2553  15.669   7.885   7.743  0.1569  0.0356  0.0323
  160loPI   C4A 2554  15.455   7.890   7.360 -0.0600 -0.0370 -0.2061
  160loPI   C5A 2555  15.522   7.969   6.961 -0.2693  0.2210  0.2490
  160loPI   C6A 2556  15.813   7.894   6.613  0.2495  0.0636  0.2660
  160loPI   C1B 2557  15.413   8.155   8.545  0.0111  0.2109 -0.0711
  160loPI   C2B 2558  15.234   7.882   8.230  0.1629  0.1631  0.0217
  160loPI   C3B 2559  15.145   7.773   7.816 -0.0300 -0.0295 -0.3078
  160loPI   C4B 2560  14.899   7.808   7.441 -0.1416 -0.2146  0.0735
  161loPI    C1 2561  13.497   7.295   9.386 -0.0947  0.0240 -0.0304
  161loPI    C2 2562  13.587   7.565   9.668  0.0884 -0.2178  0.1466
  161loPI    C3 2563  13.784   7.566   9.320  0.0603 -0.0985  0.1308
  161loPI   PO4 2564  13.344   7.311   9.273  0.2779  0.1990  0.0095
  161loPI   GL1 2565  13.506   7.067   8.940  0.1975  0.1208  0.0171
  161loPI   GL2 2566  13.863   7.224   8.953  0.3543  0.3232  0.2118
  161loPI   C1A 2567  13.344   7.295   8.587 -0.2479  0.1678  0.5843
  161loPI   C2A 2568  13.402   7.414   8.094  0.0619 -0.0226 -0.2055
  161loPI   C3A 2569  13.405   7.428   7.658  0.0382  0.0559 -0.2259
  161loPI   C4A 2570  13.339   7.267   7.265 -0.2090 -0.0554  0.1754
  161loPI   C5A 2571  13.670   7.153   6.973 -0.2206 -0.3509  0.0170
  161loPI   C6A 2572  13.893   6.704   6.932  0.2049  0.1294 -0.1578
  161loPI   C1B 2573  13.833   7.332   8.454 -0.2044  0.0316 -0.0214
  161loPI   C2B 2574  13.863   7.444   7.942 -0.0881 -0.1270  0.0346
  161loPI   C3B 2575  13.804   7.565   7.423  0.0560  0.0181  0.2509
  161loPI   C4B 2576  14.003   8.007   7.296  0.0974 -0.2446  0.5644
  162loPI    C1 2577   4.321  12.382   9.473 -0.1206 -0.1885  0.2103
  162loPI    C2 2578   4.539  12.714   9.428 -0.3886 -0.0311  0.0447
  162loPI    C3 2579   4.649  12.377   9.244 -0.0939 -0.0483  0.2441
  162loPI   PO4 2580   4.114  12.421   9.369  0.2162 -0.1275 -0.0789
  162loPI   GL1 2581   4.127  12.337   8.997 -0.1387 -0.1442  0.0267
  162loPI   GL2 2582   4.217  12.557   8.916 -0.1354  0.0965 -0.0740
  162loPI   C1A 2583   4.111  12.125   8.590  0.2796  0.3629  0.2804
  162loPI   C2A 2584   4.324  11.750   8.502 -0.2808  0.0888 -0.1707
  162loPI   C3A 2585   4.468  11.452   8.212 -0.1748 -0.2074 -0.1318
  162loPI   C4A 2586   4.650  11.402   7.867  0.1124 -0.0731 -0.1995
  162loPI   C5A 2587   4.689  11.543   7.426  0.0278  0.0014  0.0331
  162loPI   C6A 2588   4.480  11.806   7.043 -0.3600 -0.0966 -0.0909
  162loPI   C1B 2589   4.219  12.655   8.516  0.1502 -0.1610 -0.1856
  162loPI   C2B 2590   4.276  12.631   8.105  0.1379 -0.1518  0.0685
  162loPI   C3B 2591   4.117  12.821   7.775  0.1828 -0.0267  0.0983
  162loPI   C4B 2592   4.086  13.170   7.525 -0.0555  0.1295 -0.0087
  163loPI    C1 2593   1.489   6.609  10.512 -0.0854 -0.0388 -0.2984
  163loPI    C2 2594   1.333   6.896  10.743  0.1570 -0.2271  0.1111
  163loPI    C3 2595   1.130   6.557  10.681  0.1401 -0.2229  0.1428
  163loPI   PO4 2596   1.712   6.771  10.356  0.2658 -0.2291  0.0279
  163loPI   GL1 2597   1.541   6.990  10.080 -0.3493 -0.2613 -0.1035
  163loPI   GL2 2598   1.409   6.644   9.913  0.0714 -0.1554 -0.1760
  163loPI   C1A 2599   1.641   6.969   9.641 -0.1509  0.3472  0.1873
  163loPI   C2A 2600   1.613   6.699   9.219 -0.1830  0.4685 -0.1635
  163loPI   C3A 2601   1.608   6.682   8.716 -0.1003 -0.1100 -0.0666
  163loPI   C4A 2602   1.605   6.498   8.337  0.1265  0.2664 -0.2715
  163loPI   C5A 2603   1.715   6.414   7.952  0.0559  0.1522 -0.2092
  163loPI   C6A 2604   1.414   6.202   7.668 -0.0971  0.2923  0.0518
  163loPI   C1B 2605   1.455   6.340   9.590 -0.0972  0.0496 -0.1718
  163loPI   C2B 2606   1.457   6.132   9.227  0.2727 -0.0932  0.2192
  163loPI   C3B 2607   1.451   6.172   8.810  0.0660 -0.1662 -0.3723
  163loPI   C4B 2608   1.187   6.120   8.504 -0.1220 -0.0755  0.1997
  164loPI    C1 2609  11.069   6.385  10.155  0.0055 -0.0453  0.1148
  164loPI    C2 2610  11.407   6.279   9.969 -0.0650 -0.1015  0.0174
  164loPI    C3 2611  11.423   6.488  10.310  0.0690 -0.1627  0.0495
  164loPI   PO4 2612  10.920   6.491   9.941  0.0326 -0.1240 -0.1224
  164loPI   GL1 2613  10.957   6.347   9.586  0.0203 -0.2032 -0.0799
  164loPI   GL2 2614  11.210   6.066   9.442  0.1132 -0.1259 -0.2020
  164loPI   C1A 2615  10.560   6.430   9.212 -0.3513 -0.2802  0.2042
  164loPI   C2A 2616  10.388   6.459   8.818  0.3622 -0.0210 -0.1624
  164loPI   C3A 2617  10.149   6.415   8.376  0.3702  0.1625 -0.3432
  164loPI   C4A 2618  10.056   6.330   8.033  0.2157  0.1009 -0.2825
  164loPI   C5A 2619   9.728   6.044   7.846  0.1548  0.1794 -0.0549
  164loPI   C6A 2620   9.807   5.554   7.596  0.0600  0.0983  0.1324
  164loPI   C1B 2621  11.024   6.048   9.082  0.0189 -0.1174  0.0021
  164loPI   C2B 2622  11.131   6.011   8.656 -0.1255  0.0028  0.1258
  164loPI   C3B 2623  11.070   6.126   8.227 -0.2290  0.0353  0.2073
  164loPI   C4B 2624  11.227   5.946   7.770  0.0861 -0.0345 -0.0610
  165loPI    C1 2625  11.175   8.989  10.092 -0.0396  0.2275  0.0845
  165loPI    C2 2626  11.146   9.280  10.365 -0.1966  0.0260  0.2860
  165loPI    C3 2627  10.825   9.062  10.270 -0.0882 -0.0602  0.1115
  165loPI   PO4 2628  11.222   9.032   9.830  0.0197 -0.2488  0.1371
  165loPI   GL1 2629  11.243   8.864   9.438 -0.0642  0.1810  0.0854
  165loPI   GL2 2630  10.866   8.891   9.461 -0.1467  0.0049 -0.0956
  165loPI   C1A 2631  11.117   8.937   8.948  0.2987  0.0458 -0.1172
  165loPI   C2A 2632  11.079   8.900   8.548 -0.0374  0.2058  0.3109
  165loPI   C3A 2633  11.054   8.920   8.039 -0.1313 -0.1123  0.1534
  165loPI   C4A 2634  11.044   9.271   7.801  0.1105  0.0881 -0.0214
  165loPI   C5A 2635  10.974   9.231   7.376 -0.0655  0.1766 -0.1771
  165loPI   C6A 2636  11.146   9.017   7.006  0.1004  0.0238  0.1735
  165loPI   C1B 2637  10.925   8.461   9.401 -0.2972 -0.3740 -0.1608
  165loPI   C2B 2638  11.031   8.225   9.016  0.0682 -0.3527 -0.2436
  165loPI   C3B 2639  11.082   7.943   8.727  0.2549 -0.1550  0.2988
  165loPI   C4B 2640  11.074   7.744   8.388 -0.1081 -0.0260 -0.2597
  166loPI    C1 2641   8.333  14.253   9.588  0.0413  0.0654 -0.0285
  166loPI    C2 2642   8.468  14.059   9.910 -0.1992  0.1153  0.1043
  166loPI    C3 2643   8.467  14.459   9.903 -0.1834  0.1142  0.0366
  166loPI   PO4 2644   8.367  14.118   9.422 -0.2069 -0.0501 -0.0425
  166loPI   GL1 2645   8.156  13.950   9.118  0.3755  0.2035 -0.1958
  166loPI   GL2 2646   7.845  14.130   9.018 -0.0765  0.0379 -0.0698
  166loPI   C1A 2647   8.155  13.713   8.784  0.0507 -0.2627  0.3111
  166loPI   C2A 2648   8.012  13.676   8.364  0.0443 -0.0817 -0.2133
  166loPI   C3A 2649   8.118  13.650   7.971  0.0592  0.1295 -0.5694
  166loPI   C4A 2650   8.259  13.518   7.505 -0.1646 -0.1218  0.4381
  166loPI   C5A 2651   8.592  13.689   7.244 -0.1846  0.0726  0.0473
  166loPI   C6A 2652   8.723  14.055   7.107  0.3310  0.1029  0.0548
  166loPI   C1B 2653   7.831  14.070   8.641  0.3517 -0.4166  0.1406
  166loPI   C2B 2654   7.762  14.125   8.276  0.3839 -0.1044 -0.1678
  166loPI   C3B 2655   7.668  13.852   8.015  0.2907  0.0039 -0.0990
  166loPI   C4B 2656   7.760  13.693   7.605 -0.4226 -0.0232  0.0934
  167loPI    C1 2657  16.046  17.614   9.621 -0.1634  0.1079 -0.1119
  167loPI    C2 2658  16.113  17.898   9.894 -0.1299 -0.0065 -0.0003
  167loPI    C3 2659  15.759  17.713   9.881 -0.1676  0.0719 -0.1028
  167loPI   PO4 2660  16.200  17.694   9.343  0.1250  0.1256  0.0408
  167loPI   GL1 2661  16.006  17.787   8.901  0.0465  0.0595 -0.1927
  167loPI   GL2 2662  16.031  18.063   8.691 -0.0412 -0.2371  0.0274
  167loPI   C1A 2663  16.225  17.583   8.548 -0.5152  0.0366  0.0257
  167loPI   C2A 2664  16.150  17.541   8.017 -0.4432 -0.1615 -0.2539
  167loPI   C3A 2665  16.305  17.775   7.656  0.0408 -0.0091 -0.1633
  167loPI   C4A 2666  16.448  18.080   7.365 -0.1945 -0.0528  0.0988
  167loPI   C5A 2667  16.100  18.373   7.168 -0.1639  0.5177 -0.1623
  167loPI   C6A 2668  15.970  18.782   7.103 -0.0134  0.0607  0.2299
  167loPI   C1B 2669  16.170  18.006   8.243  0.1759 -0.4441  0.1798
  167loPI   C2B 2670  16.336  18.239   7.977  0.0802 -0.0067 -0.1246
  167loPI   C3B 2671  16.833  18.311   7.766  0.0866  0.3041  0.2167
  167loPI   C4B 2672  17.143  18.687   7.606 -0.1360 -0.1693 -0.0015
  168loPI    C1 2673  17.936   6.346  10.192 -0.1295 -0.1602 -0.1473
  168loPI    C2 2674  17.866   6.375  10.585  0.2993  0.1743 -0.0879
  168loPI    C3 2675  17.710   6.644  10.334  0.3208  0.1715 -0.1042
  168loPI   PO4 2676  18.217   6.370  10.024  0.0790 -0.1239 -0.2342
  168loPI   GL1 2677  18.313   5.961   9.702  0.0458  0.2007 -0.1882
  168loPI   GL2 2678  18.537   6.159   9.490  0.1175  0.1810  0.1101
  168loPI   C1A 2679  18.340   5.641   9.444 -0.1482 -0.0687  0.0606
  168loPI   C2A 2680  18.116   5.427   9.094 -0.1580 -0.2925 -0.2108
  168loPI   C3A 2681  17.884   5.466   8.763 -0.0393 -0.0152  0.1085
  168loPI   C4A 2682  17.817   5.735   8.403  0.0603 -0.0909  0.0435
  168loPI   C5A 2683  17.836   5.727   7.985 -0.1580  0.2650 -0.0100
  168loPI   C6A 2684  17.871   5.701   7.553  0.0348  0.0256  0.0716
  168loPI   C1B 2685  18.463   6.271   9.131 -0.1455 -0.0742  0.3092
  168loPI   C2B 2686  18.482   6.313   8.578  0.0518 -0.0363  0.0862
  168loPI   C3B 2687  18.602   6.287   8.136 -0.1121  0.2867  0.1935
  168loPI   C4B 2688  18.906   6.372   7.852  0.1901 -0.3665  0.1273
  169loPI    C1 2689   8.054   5.413   9.992 -0.1963 -0.0841  0.1726
  169loPI    C2 2690   8.212   5.051  10.054 -0.1143 -0.0406  0.2186
  169loPI    C3 2691   7.977   5.218  10.332  0.0472  0.0459  0.3047
  169loPI   PO4 2692   8.311   5.506   9.730  0.1359  0.1623  0.1044
  169loPI   GL1 2693   8.346   5.732   9.426  0.0084 -0.3028  0.0752
  169loPI   GL2 2694   8.612   5.486   9.355  0.0303 -0.2329 -0.1480
  169loPI   C1A 2695   8.562   5.899   9.037  0.2103  0.0376 -0.1805
  169loPI   C2A 2696   8.659   6.040   8.650 -0.3254 -0.0883  0.1481
  169loPI   C3A 2697   8.744   6.083   8.141 -0.0998 -0.0621 -0.2327
  169loPI   C4A 2698   8.580   6.285   7.807 -0.1126 -0.0391 -0.2316
  169loPI   C5A 2699   8.418   6.127   7.381  0.1123  0.1318 -0.0747
  169loPI   C6A 2700   8.172   5.791   7.117  0.2275  0.0781 -0.3144
  169loPI   C1B 2701   8.348   5.450   8.998 -0.1157  0.2268  0.1138
  169loPI   C2B 2702   8.210   5.238   8.581  0.0080 -0.1248 -0.1297
  169loPI   C3B 2703   8.080   5.419   8.337 -0.5870  0.0456 -0.3473
  169loPI   C4B 2704   7.996   5.195   8.033  0.1555  0.0059  0.1698
  170loPI    C1 2705  16.873   3.661  10.215 -0.1498  0.0335  0.2216
  170loPI    C2 2706  16.963   4.050  10.228 -0.0795  0.0212  0.1140
  170loPI    C3 2707  16.909   3.846  10.567  0.0636  0.0833  0.1750
  170loPI   PO4 2708  17.011   3.605  10.016  0.4086  0.2343 -0.1839
  170loPI   GL1 2709  17.277   3.784   9.632  0.0092 -0.2339  0.2426
  170loPI   GL2 2710  16.960   3.672   9.406  0.0450 -0.0988 -0.0089
  170loPI   C1A 2711  17.544   3.583   9.329  0.0518  0.2399 -0.2980
  170loPI   C2A 2712  17.761   3.292   9.157 -0.0305  0.0771 -0.6818
  170loPI   C3A 2713  18.210   3.176   9.073  0.3495 -0.0660 -0.2223
  170loPI   C4A 2714  18.582   3.330   8.900  0.0617  0.0972 -0.0080
  170loPI   C5A 2715  18.940   3.316   8.838  0.1472 -0.0265  0.0929
  170loPI   C6A 2716  19.181   2.965   8.803 -0.1562 -0.2148  0.3999
  170loPI   C1B 2717  17.098   3.397   9.065 -0.1680 -0.4383  0.2613
  170loPI   C2B 2718  17.270   3.315   8.637 -0.1350 -0.0673  0.0625
  170loPI   C3B 2719  17.353   3.202   8.188  0.0760  0.3659 -0.1192
  170loPI   C4B 2720  17.189   3.107   7.830  0.2634 -0.0609  0.1047
  171loPI    C1 2721   7.795  11.976   9.193 -0.0118 -0.0706 -0.0371
  171loPI    C2 2722   7.662  11.845   9.547  0.2374 -0.1309  0.0363
  171loPI    C3 2723   8.030  11.999   9.515  0.0292  0.3614 -0.0925
  171loPI   PO4 2724   7.746  11.845   9.050  0.2519  0.2077  0.4644
  171loPI   GL1 2725   7.776  11.497   8.721  0.2620 -0.2044 -0.0015
  171loPI   GL2 2726   8.114  11.682   8.706  0.0465 -0.1999  0.3996
  171loPI   C1A 2727   7.922  11.349   8.391 -0.1399 -0.1515  0.3521
  171loPI   C2A 2728   8.046  11.265   7.995  0.3721  0.3184  0.2618
  171loPI   C3A 2729   8.278  11.136   7.685  0.2939  0.1124 -0.1540
  171loPI   C4A 2730   8.565  10.878   7.449  0.1013  0.0692 -0.0488
  171loPI   C5A 2731   8.640  10.662   7.104  0.1480  0.0539 -0.1233
  171loPI   C6A 2732   8.543  10.570   6.610 -0.2079  0.2684 -0.1339
  171loPI   C1B 2733   8.411  11.575   8.474 -0.2596 -0.2277  0.2087
  171loPI   C2B 2734   8.519  11.778   8.085  0.0991  0.1399 -0.1288
  171loPI   C3B 2735   8.501  11.930   7.727 -0.2491 -0.3440  0.0161
  171loPI   C4B 2736   8.565  12.137   7.278  0.2969 -0.0946  0.4196
  172loPI    C1 2737  13.618   6.591   9.707 -0.0392 -0.0198 -0.0746
  172loPI    C2 2738  13.520   6.968   9.799 -0.0004 -0.0540  0.1120
  172loPI    C3 2739  13.876   6.821   9.908  0.0267 -0.1131 -0.0518
  172loPI   PO4 2740  13.566   6.589   9.372  0.2228 -0.1605  0.0853
  172loPI   GL1 2741  13.755   6.606   9.018 -0.0779  0.1506  0.2392
  172loPI   GL2 2742  14.001   6.440   9.145 -0.2097 -0.0337  0.0255
  172loPI   C1A 2743  13.672   6.762   8.546  0.1696 -0.3829  0.2962
  172loPI   C2A 2744  13.553   6.820   7.995  0.1939 -0.0262 -0.3313
  172loPI   C3A 2745  13.268   6.944   7.689  0.0907  0.5686 -0.1078
  172loPI   C4A 2746  12.966   7.006   7.433  0.2201  0.3587 -0.3567
  172loPI   C5A 2747  12.886   6.881   6.923  0.0397 -0.1136 -0.2124
  172loPI   C6A 2748  12.814   6.565   6.464 -0.0644 -0.0591 -0.2231
  172loPI   C1B 2749  14.102   6.401   8.759  0.0074  0.1393 -0.0065
  172loPI   C2B 2750  14.147   6.464   8.321  0.1165  0.0185 -0.2661
  172loPI   C3B 2751  14.307   6.596   7.913 -0.1152  0.2603 -0.1513
  172loPI   C4B 2752  14.487   6.525   7.608 -0.1116  0.0784  0.1658
  173loPI    C1 2753   4.947  19.085   9.922  0.1459  0.0062 -0.2696
  173loPI    C2 2754   4.885  19.102  10.316  0.0541  0.0797 -0.2869
  173loPI    C3 2755   5.242  18.987  10.175  0.0147 -0.1764 -0.1850
  173loPI   PO4 2756   4.674  18.974   9.814 -0.3854 -0.0166  0.1601
  173loPI   GL1 2757   4.610  18.888   9.401 -0.4706  0.1984 -0.2575
  173loPI   GL2 2758   4.422  19.199   9.312  0.1257 -0.2266 -0.0690
  173loPI   C1A 2759   4.663  18.833   8.908  0.3126 -0.2672 -0.1175
  173loPI   C2A 2760   4.825  18.712   8.554 -0.0449  0.3091  0.2391
  173loPI   C3A 2761   4.818  18.705   8.098 -0.1062  0.1531 -0.3323
  173loPI   C4A 2762   4.906  18.469   7.709 -0.0605 -0.0195 -0.0378
  173loPI   C5A 2763   5.142  18.565   7.240 -0.0836  0.0461  0.1008
  173loPI   C6A 2764   5.430  18.852   7.230  0.0122  0.3948  0.2214
  173loPI   C1B 2765   4.689  19.453   9.082  0.0325  0.0826  0.0685
  173loPI   C2B 2766   4.668  19.443   8.696 -0.1275 -0.0684  0.2707
  173loPI   C3B 2767   4.608  19.611   8.305 -0.0170  0.1251  0.2385
  173loPI   C4B 2768   4.589  19.604   7.856  0.0957 -0.1293 -0.0778
  174loPI    C1 2769   9.397   2.752   9.527 -0.0484 -0.2327 -0.1509
  174loPI    C2 2770   9.425   2.806   9.922  0.2437  0.0144 -0.2014
  174loPI    C3 2771   9.152   2.554   9.774  0.0178  0.0468  0.1459
  174loPI   PO4 2772   9.360   2.982   9.396 -0.1584 -0.1599 -0.4069
  174loPI   GL1 2773   9.443   2.995   9.033  0.0593  0.2750  0.1799
  174loPI   GL2 2774   9.154   3.034   8.883  0.0532 -0.0251  0.1674
  174loPI   C1A 2775   9.680   2.741   8.747  0.4808  0.2593 -0.0668
  174loPI   C2A 2776   9.841   2.652   8.348  0.0660  0.2395  0.2443
  174loPI   C3A 2777  10.040   2.640   8.043  0.0361 -0.2545 -0.2115
  174loPI   C4A 2778  10.388   2.958   7.927  0.0403  0.2170  0.0179
  174loPI   C5A 2779  10.668   2.980   7.575  0.0054 -0.0118 -0.1200
  174loPI   C6A 2780  10.728   2.971   7.168  0.0878 -0.1705  0.2279
  174loPI   C1B 2781   9.367   3.004   8.469 -0.1224 -0.1340  0.0229
  174loPI   C2B 2782   9.434   3.018   8.017  0.1876  0.0504 -0.0007
  174loPI   C3B 2783   9.488   3.048   7.586 -0.1970  0.0650  0.0960
  174loPI   C4B 2784   9.749   3.291   7.368 -0.1746  0.0557  0.0812
  175loPI    C1 2785   7.765   4.283   9.802 -0.0792  0.1277 -0.0746
  175loPI    C2 2786   7.529   4.461  10.071  0.0546  0.1695  0.0160
  175loPI    C3 2787   7.611   4.071  10.104 -0.1999  0.0992 -0.1555
  175loPI   PO4 2788   7.918   4.489   9.700  0.0775 -0.2427 -0.2620
  175loPI   GL1 2789   7.861   4.561   9.305  0.3388 -0.2624  0.1269
  175loPI   GL2 2790   7.771   4.149   9.154 -0.2345 -0.0148 -0.0243
  175loPI   C1A 2791   8.057   4.506   8.887 -0.3621 -0.3478 -0.0398
  175loPI   C2A 2792   8.200   4.694   8.494  0.0147  0.2820  0.1174
  175loPI   C3A 2793   8.044   4.644   8.076  0.0175 -0.4847 -0.2202
  175loPI   C4A 2794   7.728   4.586   7.831  0.1219  0.0726  0.0800
  175loPI   C5A 2795   7.548   4.479   7.426  0.0020 -0.2482  0.0401
  175loPI   C6A 2796   7.230   4.538   7.058 -0.2558 -0.2117  0.1300
  175loPI   C1B 2797   7.755   4.044   8.723 -0.0509  0.0161 -0.2010
  175loPI   C2B 2798   7.582   4.132   8.282 -0.2860 -0.1824 -0.0934
  175loPI   C3B 2799   7.372   4.365   8.102  0.2710 -0.3897 -0.0347
  175loPI   C4B 2800   7.145   4.500   7.752  0.1554 -0.3473  0.1410
  176loPI    C1 2801   6.249   5.202  10.129 -0.0883  0.0964 -0.1873
  176loPI    C2 2802   6.596   5.376  10.031 -0.0930  0.0948 -0.2070
  176loPI    C3 2803   6.547   5.219  10.396 -0.0465  0.0280 -0.2293
  176loPI   PO4 2804   6.223   5.094   9.762  0.4003 -0.0289  0.3816
  176loPI   GL1 2805   6.039   5.340   9.460 -0.1434 -0.4966 -0.0645
  176loPI   GL2 2806   5.737   5.365   9.512  0.1593 -0.3834  0.2593
  176loPI   C1A 2807   6.103   4.928   9.210 -0.0951 -0.1600 -0.0263
  176loPI   C2A 2808   5.819   4.598   9.089 -0.0547 -0.2734  0.0640
  176loPI   C3A 2809   5.693   4.490   8.737  0.2160 -0.1717  0.2647
  176loPI   C4A 2810   5.667   4.766   8.431  0.1528 -0.0586 -0.1392
  176loPI   C5A 2811   5.935   5.038   8.036 -0.2297 -0.2468 -0.2223
  176loPI   C6A 2812   6.491   5.020   7.946  0.1401 -0.0678 -0.0505
  176loPI   C1B 2813   5.704   5.228   9.081  0.1655  0.3922  0.0862
  176loPI   C2B 2814   5.510   5.196   8.643  0.0458 -0.0230 -0.0400
  176loPI   C3B 2815   5.316   5.168   8.183 -0.4161  0.3532  0.1408
  176loPI   C4B 2816   5.293   5.140   7.725  0.4473 -0.3917  0.0607
  177loPI    C1 2817  17.319   8.014  10.008  0.0070 -0.1585  0.0200
  177loPI    C2 2818  17.075   7.807  10.249  0.0114 -0.1227  0.0554
  177loPI    C3 2819  17.365   8.034  10.405  0.0883 -0.1909  0.0123
  177loPI   PO4 2820  17.321   7.925   9.824 -0.0019  0.5748  0.1693
  177loPI   GL1 2821  17.319   7.926   9.381  0.1057 -0.1021 -0.3727
  177loPI   GL2 2822  17.461   8.233   9.485 -0.1459 -0.2407  0.2221
  177loPI   C1A 2823  17.462   7.816   8.910 -0.1924  0.1381 -0.3794
  177loPI   C2A 2824  17.656   7.753   8.511  0.0560 -0.1437  0.0942
  177loPI   C3A 2825  17.548   7.480   8.075 -0.3972  0.1556 -0.0293
  177loPI   C4A 2826  17.532   7.089   7.830 -0.0273 -0.0759 -0.1397
  177loPI   C5A 2827  17.548   6.850   7.476 -0.3302 -0.0777 -0.2933
  177loPI   C6A 2828  17.486   6.497   7.357 -0.2230  0.1934  0.3785
  177loPI   C1B 2829  17.504   8.263   9.112 -0.0348 -0.1918  0.2058
  177loPI   C2B 2830  17.644   8.285   8.745  0.3858  0.0972 -0.4285
  177loPI   C3B 2831  17.742   8.247   8.316 -0.2216  0.1916 -0.0005
  177loPI   C4B 2832  17.603   8.137   8.016 -0.2204 -0.0961  0.1900
  178loPI    C1 2833  11.687  11.583   9.701  0.0288  0.1941 -0.0440
  178loPI    C2 2834  12.083  11.532   9.722 -0.0433 -0.3733  0.1028
  178loPI    C3 2835  11.864  11.538  10.057 -0.1789 -0.2324  0.0126
  178loPI   PO4 2836  11.597  11.396   9.560 -0.0385  0.0109 -0.0168
  178loPI   GL1 2837  11.507  11.286   9.166 -0.6148 -0.1765 -0.0109
  178loPI   GL2 2838  11.325  11.641   9.129 -0.0109  0.0851 -0.2870
  178loPI   C1A 2839  11.671  11.112   8.806 -0.1802  0.1691 -0.0972
  178loPI   C2A 2840  11.614  10.930   8.418 -0.1165  0.1693  0.1836
  178loPI   C3A 2841  11.332  10.879   8.064  0.1226  0.3120 -0.2942
  178loPI   C4A 2842  11.210  10.880   7.682  0.2180  0.2285 -0.2412
  178loPI   C5A 2843  11.207  11.114   7.185  0.1412  0.0682 -0.0481
  178loPI   C6A 2844  10.803  11.189   6.948 -0.1542 -0.0323 -0.2549
  178loPI   C1B 2845  11.334  11.632   8.702  0.0598  0.0422 -0.1443
  178loPI   C2B 2846  11.299  11.451   8.272  0.1444 -0.0784 -0.0068
  178loPI   C3B 2847  11.442  11.392   7.888 -0.1065  0.0828  0.0212
  178loPI   C4B 2848  11.674  11.223   7.488  0.3853 -0.0699  0.2569
  179loPI    C1 2849   2.911   6.922  10.109 -0.0568  0.0114  0.0439
  179loPI    C2 2850   3.073   6.784  10.447 -0.1872 -0.2624 -0.0025
  179loPI    C3 2851   3.120   6.581  10.106 -0.0945 -0.0114 -0.1421
  179loPI   PO4 2852   2.662   6.927  10.171  0.1754  0.2251  0.4043
  179loPI   GL1 2853   2.486   6.768   9.821 -0.2624  0.1758  0.1238
  179loPI   GL2 2854   2.413   6.670   9.520  0.0927 -0.2051 -0.1477
  179loPI   C1A 2855   2.906   6.736   9.575 -0.2175 -0.3656  0.2322
  179loPI   C2A 2856   3.237   6.823   9.345  0.0699 -0.1543  0.1031
  179loPI   C3A 2857   3.546   6.536   9.162  0.2275  0.0810  0.0901
  179loPI   C4A 2858   3.578   6.484   8.721  0.1626  0.0399  0.2353
  179loPI   C5A 2859   3.456   6.277   8.363 -0.0760 -0.2646  0.0982
  179loPI   C6A 2860   3.140   6.303   7.972 -0.0422  0.0942 -0.3009
  179loPI   C1B 2861   2.480   6.422   9.052  0.4327  0.0493 -0.1041
  179loPI   C2B 2862   2.578   6.275   8.693  0.1323 -0.0688  0.0006
  179loPI   C3B 2863   2.717   6.155   8.313  0.0091  0.5191 -0.0350
  179loPI   C4B 2864   2.536   5.986   7.913  0.0237 -0.0619 -0.5134
  180loPI    C1 2865  13.825  16.776   9.394  0.2309  0.1532  0.2102
  180loPI    C2 2866  13.583  16.872   9.698  0.1067  0.0576  0.1422
  180loPI    C3 2867  13.753  16.510   9.684  0.1539  0.0804  0.1248
  180loPI   PO4 2868  13.714  16.869   9.126 -0.0608 -0.3459 -0.0376
  180loPI   GL1 2869  13.476  16.828   8.745 -0.1008  0.0682  0.2582
  180loPI   GL2 2870  13.937  16.846   8.664  0.2368  0.6096 -0.2494
  180loPI   C1A 2871  13.494  16.864   8.368 -0.0891  0.1274 -0.0555
  180loPI   C2A 2872  13.437  16.801   7.890 -0.1321 -0.1905 -0.1566
  180loPI   C3A 2873  13.567  16.855   7.415  0.1487 -0.0796  0.0431
  180loPI   C4A 2874  13.717  16.821   6.948  0.0724 -0.2388 -0.0807
  180loPI   C5A 2875  13.820  16.562   6.570  0.0227  0.1480  0.3323
  180loPI   C6A 2876  13.711  16.126   6.378  0.1449 -0.2348  0.0900
  180loPI   C1B 2877  14.044  17.064   8.331 -0.2587 -0.1096  0.0228
  180loPI   C2B 2878  14.042  17.085   7.829  0.2341  0.1235 -0.2343
  180loPI   C3B 2879  14.057  17.020   7.448 -0.2626  0.0489 -0.3786
  180loPI   C4B 2880  14.129  17.160   7.006  0.0409 -0.1257 -0.1412
  181loPI    C1 2881   3.297   8.284   9.954 -0.1063  0.0169  0.2645
  181loPI    C2 2882   3.471   7.958  10.107 -0.0934 -0.1227 -0.0417
  181loPI    C3 2883   3.597   8.321  10.216  0.2323 -0.2215 -0.0785
  181loPI   PO4 2884   3.287   8.244   9.619 -0.1748  0.1097 -0.0617
  181loPI   GL1 2885   3.194   8.041   9.265  0.1678 -0.0268 -0.1053
  181loPI   GL2 2886   3.419   8.274   9.130 -0.0324  0.1391  0.0525
  181loPI   C1A 2887   3.195   7.998   8.717  0.1292 -0.3743 -0.1697
  181loPI   C2A 2888   3.343   7.901   8.287 -0.0827  0.0857 -0.1287
  181loPI   C3A 2889   3.389   7.678   7.889 -0.1806  0.0839 -0.2463
  181loPI   C4A 2890   3.630   7.497   7.535  0.0631  0.1179 -0.3705
  181loPI   C5A 2891   3.948   7.294   7.496  0.0403 -0.1986 -0.3451
  181loPI   C6A 2892   4.322   7.096   7.149  0.1608  0.4472 -0.4661
  181loPI   C1B 2893   3.329   8.505   8.698 -0.0014 -0.1222 -0.1333
  181loPI   C2B 2894   3.145   8.727   8.239 -0.0101 -0.0194  0.1334
  181loPI   C3B 2895   2.977   8.404   7.914  0.1629  0.0726 -0.1711
  181loPI   C4B 2896   3.102   8.179   7.517  0.0022  0.0255 -0.1041
  182loPI    C1 2897   7.101  16.445   9.351  0.1396  0.0169 -0.2119
  182loPI    C2 2898   7.203  16.537   9.727  0.1604 -0.0134 -0.2101
  182loPI    C3 2899   7.033  16.813   9.493  0.0312 -0.0310 -0.1379
  182loPI   PO4 2900   6.956  16.267   9.383 -0.0187  0.0761 -0.2297
  182loPI   GL1 2901   6.811  16.059   9.059 -0.1198 -0.2111 -0.1497
  182loPI   GL2 2902   6.911  16.341   8.895  0.4222 -0.1177  0.2814
  182loPI   C1A 2903   6.991  15.838   8.669 -0.0047 -0.1955 -0.0574
  182loPI   C2A 2904   7.137  15.505   8.424  0.4023  0.1644  0.0090
  182loPI   C3A 2905   7.164  15.305   8.039  0.3826 -0.1686  0.1491
  182loPI   C4A 2906   7.259  15.207   7.522  0.0081 -0.1056 -0.1774
  182loPI   C5A 2907   7.190  14.862   7.276 -0.0271  0.0430 -0.0718
  182loPI   C6A 2908   6.852  14.628   7.257 -0.0852 -0.1487  0.0535
  182loPI   C1B 2909   6.561  16.239   8.476 -0.0726 -0.0800 -0.1487
  182loPI   C2B 2910   6.543  16.126   8.066 -0.3019 -0.2386  0.3098
  182loPI   C3B 2911   6.543  15.941   7.665  0.0708  0.2277 -0.3431
  182loPI   C4B 2912   6.505  15.551   7.415 -0.1817  0.0657 -0.4288
  183loPI    C1 2913   5.638   7.755  10.193 -0.0589 -0.0678  0.2955
  183loPI    C2 2914   5.402   8.057  10.306  0.1077  0.1770  0.0052
  183loPI    C3 2915   5.579   7.827  10.582 -0.4298  0.0133  0.2284
  183loPI   PO4 2916   5.469   7.728   9.963  0.0523 -0.0138 -0.2909
  183loPI   GL1 2917   5.410   7.739   9.517 -0.4297 -0.1055 -0.0280
  183loPI   GL2 2918   5.673   7.563   9.537  0.3052  0.1393 -0.1942
  183loPI   C1A 2919   5.255   7.580   9.153  0.1108 -0.0513  0.3898
  183loPI   C2A 2920   5.308   7.319   8.719  0.2356 -0.0474 -0.1834
  183loPI   C3A 2921   4.999   7.339   8.498 -0.1104 -0.0077 -0.1354
  183loPI   C4A 2922   4.850   7.443   8.155 -0.0001 -0.0252  0.4681
  183loPI   C5A 2923   4.653   7.673   7.818 -0.1335  0.0971  0.4126
  183loPI   C6A 2924   4.554   8.062   7.684 -0.1538 -0.2855  0.1227
  183loPI   C1B 2925   5.725   7.749   9.080  0.2629 -0.0183 -0.2145
  183loPI   C2B 2926   5.812   7.619   8.683 -0.0461  0.0564 -0.3525
  183loPI   C3B 2927   5.852   7.653   8.173 -0.0022  0.0754  0.0922
  183loPI   C4B 2928   6.198   7.597   7.907  0.1610 -0.0686 -0.2916
  184loPI    C1 2929  14.927  13.172   9.290  0.0048  0.0056  0.2271
  184loPI    C2 2930  14.546  13.279   9.234  0.0065 -0.0640  0.0797
  184loPI    C3 2931  14.822  13.558   9.308 -0.0243  0.0160 -0.1006
  184loPI   PO4 2932  15.085  13.130   9.144  0.1870  0.0445  0.0494
  184loPI   GL1 2933  15.177  13.123   8.705 -0.0867  0.0916  0.3087
  184loPI   GL2 2934  15.523  13.230   8.590  0.0475  0.0470 -0.1657
  184loPI   C1A 2935  15.056  13.171   8.375  0.2886 -0.1369  0.2107
  184loPI   C2A 2936  15.022  13.120   7.920 -0.0924  0.1104  0.0628
  184loPI   C3A 2937  15.188  13.265   7.607 -0.0904 -0.0447  0.0843
  184loPI   C4A 2938  15.169  13.375   7.203 -0.1692 -0.1155  0.0982
  184loPI   C5A 2939  14.926  13.466   6.829 -0.2191  0.2033 -0.2597
  184loPI   C6A 2940  14.662  13.617   6.488  0.1569 -0.0326 -0.0909
  184loPI   C1B 2941  15.354  13.577   8.499 -0.0400  0.1123 -0.0066
  184loPI   C2B 2942  15.167  14.014   8.294 -0.2480 -0.0688  0.4380
  184loPI   C3B 2943  15.068  13.999   7.794 -0.0253  0.0253 -0.2079
  184loPI   C4B 2944  15.033  13.905   7.374 -0.1171  0.1647  0.2329
  185loPI    C1 2945  11.599   5.091   9.958 -0.1332 -0.0246  0.0384
  185loPI    C2 2946  11.622   4.826  10.257  0.2585 -0.0858 -0.0396
  185loPI    C3 2947  11.269   4.906  10.087  0.1052 -0.4076  0.1182
  185loPI   PO4 2948  11.660   4.958   9.716  0.0934  0.3240  0.0962
  185loPI   GL1 2949  11.851   5.005   9.351  0.0902 -0.1330 -0.0424
  185loPI   GL2 2950  11.816   5.316   9.114 -0.2715  0.2297  0.0411
  185loPI   C1A 2951  12.044   4.793   8.965 -0.3419  0.2510 -0.0642
  185loPI   C2A 2952  12.087   4.838   8.555 -0.2518  0.4400 -0.3648
  185loPI   C3A 2953  12.042   4.848   8.003  0.2000 -0.0001 -0.1474
  185loPI   C4A 2954  12.130   4.876   7.523 -0.2387  0.1030  0.0094
  185loPI   C5A 2955  12.127   5.370   7.377  0.1039 -0.0286  0.1242
  185loPI   C6A 2956  12.452   5.672   7.408 -0.1910  0.0563  0.0206
  185loPI   C1B 2957  12.030   5.259   8.724  0.1556 -0.0295 -0.1186
  185loPI   C2B 2958  12.364   5.204   8.375  0.3312 -0.0407  0.1415
  185loPI   C3B 2959  12.534   5.330   7.925  0.2569  0.0412  0.1968
  185loPI   C4B 2960  12.953   5.174   7.787  0.0942 -0.0397 -0.0030
  186loPI    C1 2961   3.015   3.848  10.818 -0.4245 -0.2670  0.0772
  186loPI    C2 2962   2.727   4.049  10.625 -0.2570 -0.0732  0.0263
  186loPI    C3 2963   3.026   4.248  10.802 -0.0282 -0.2818 -0.1198
  186loPI   PO4 2964   3.073   3.702  10.619 -0.1400 -0.3024 -0.1960
  186loPI   GL1 2965   2.910   3.794  10.243  0.2330 -0.0114  0.0636
  186loPI   GL2 2966   2.533   3.827  10.173 -0.0110 -0.0686  0.0368
  186loPI   C1A 2967   2.828   3.781   9.757  0.1382 -0.0483  0.1479
  186loPI   C2A 2968   2.910   3.788   9.304  0.0435 -0.1210 -0.0837
  186loPI   C3A 2969   2.945   3.652   8.856 -0.2974 -0.0294 -0.0454
  186loPI   C4A 2970   2.864   3.761   8.379  0.1101 -0.0223  0.2729
  186loPI   C5A 2971   2.803   3.918   7.992 -0.2991  0.1069 -0.0810
  186loPI   C6A 2972   2.489   3.920   7.655 -0.0124 -0.4108 -0.3871
  186loPI   C1B 2973   2.681   4.221   9.990  0.4631  0.0014 -0.3250
  186loPI   C2B 2974   2.702   4.668   9.885 -0.0247  0.1909 -0.0822
  186loPI   C3B 2975   2.534   5.052   9.719 -0.4783 -0.2452 -0.2863
  186loPI   C4B 2976   2.315   5.062   9.320 -0.0637  0.0103  0.1869
  187loPI    C1 2977  18.644  13.383   9.941 -0.3591  0.0990  0.0826
  187loPI    C2 2978  18.589  13.650  10.233  0.1280 -0.0191  0.2942
  187loPI    C3 2979  18.929  13.441  10.216  0.0644 -0.0905 -0.3028
  187loPI   PO4 2980  18.510  13.537   9.729  0.1707  0.0265  0.0969
  187loPI   GL1 2981  18.675  13.800   9.320 -0.2649  0.3654  0.0009
  187loPI   GL2 2982  18.323  13.980   9.262 -0.0116 -0.1228  0.0252
  187loPI   C1A 2983  18.521  13.738   8.868  0.0139 -0.4198 -0.1203
  187loPI   C2A 2984  18.431  13.930   8.426  0.2392  0.2569  0.1578
  187loPI   C3A 2985  18.497  13.840   7.998 -0.1960  0.1984 -0.2643
  187loPI   C4A 2986  18.545  13.863   7.586  0.0871 -0.1908 -0.2701
  187loPI   C5A 2987  18.483  14.202   7.389  0.0351 -0.1257  0.2085
  187loPI   C6A 2988  18.306  14.482   7.353 -0.3009  0.3597  0.0844
  187loPI   C1B 2989  18.359  14.198   8.927 -0.2645 -0.3240 -0.1799
  187loPI   C2B 2990  18.489  14.405   8.618  0.4630 -0.2290  0.1980
  187loPI   C3B 2991  18.542  14.417   8.250  0.0796 -0.1008 -0.2099
  187loPI   C4B 2992  18.785  14.192   7.892 -0.0749  0.1541  0.1557
  188loPI    C1 2993   7.587   5.274   9.952 -0.1510 -0.0271 -0.0483
  188loPI    C2 2994   7.772   4.985   9.747  0.1096  0.0477  0.0769
  188loPI    C3 2995   7.658   4.920  10.125  0.0769  0.0755  0.0719
  188loPI   PO4 2996   7.454   5.443   9.815 -0.0638  0.0202 -0.1164
  188loPI   GL1 2997   7.404   5.232   9.427  0.1537  0.0471 -0.1159
  188loPI   GL2 2998   7.495   4.975   9.222 -0.0664  0.1429  0.1272
  188loPI   C1A 2999   7.564   5.403   9.002 -0.4122  0.2832 -0.0219
  188loPI   C2A 3000   7.822   5.575   8.740 -0.0803  0.1209 -0.0552
  188loPI   C3A 3001   8.152   5.829   8.631  0.1102  0.1705 -0.1733
  188loPI   C4A 3002   8.488   5.698   8.337 -0.1711 -0.2115 -0.2245
  188loPI   C5A 3003   8.529   5.745   7.822  0.1532 -0.1022  0.3837
  188loPI   C6A 3004   8.893   5.854   7.521 -0.0679 -0.2857 -0.1330
  188loPI   C1B 3005   7.257   4.983   8.840 -0.3744  0.2234 -0.1445
  188loPI   C2B 3006   7.163   5.054   8.493  0.0477 -0.4154  0.0801
  188loPI   C3B 3007   6.964   5.034   8.038 -0.0119 -0.2517  0.0090
  188loPI   C4B 3008   6.855   4.859   7.637 -0.1776  0.1267  0.0704
  189loPI    C1 3009  17.319  12.041   9.614 -0.2464  0.0411 -0.1035
  189loPI    C2 3010  17.447  11.682   9.735 -0.2171  0.1351  0.1505
  189loPI    C3 3011  17.408  11.980   9.999  0.0918  0.4192 -0.1151
  189loPI   PO4 3012  17.493  12.095   9.384 -0.4237  0.0055  0.0286
  189loPI   GL1 3013  17.433  12.126   8.989  0.2947  0.2016  0.2327
  189loPI   GL2 3014  17.365  11.736   9.019 -0.1582  0.2350  0.0289
  189loPI   C1A 3015  17.502  11.920   8.496  0.2494 -0.4691 -0.0186
  189loPI   C2A 3016  17.828  11.818   8.092  0.2052 -0.0288 -0.2147
  189loPI   C3A 3017  18.072  11.781   7.762 -0.2625  0.0422 -0.0518
  189loPI   C4A 3018  18.168  11.681   7.292 -0.1222  0.0552  0.0071
  189loPI   C5A 3019  18.476  11.368   7.207 -0.0038  0.0582 -0.0234
  189loPI   C6A 3020  18.912  11.517   7.457  0.0567  0.0225 -0.1506
  189loPI   C1B 3021  17.341  11.460   8.609  0.2434  0.1354 -0.0682
  189loPI   C2B 3022  17.195  11.452   8.159  0.1693  0.0994 -0.1596
  189loPI   C3B 3023  17.301  11.558   7.705  0.1922  0.0471  0.1487
  189loPI   C4B 3024  17.227  11.499   7.251 -0.2461 -0.3011 -0.0738
  190loPI    C1 3025  10.134   8.976   9.885 -0.1366  0.1772  0.0555
  190loPI    C2 3026  10.035   8.673  10.126 -0.1121  0.0472 -0.0960
  190loPI    C3 3027  10.334   8.919  10.227 -0.0614 -0.0433 -0.0234
  190loPI   PO4 3028   9.910   8.928   9.739  0.3281 -0.2893 -0.1908
  190loPI   GL1 3029   9.911   9.076   9.243  0.1362 -0.3290 -0.1247
  190loPI   GL2 3030   9.845   8.771   9.243  0.0650 -0.0750 -0.0125
  190loPI   C1A 3031   9.754   9.287   8.988 -0.0373 -0.0069 -0.4478
  190loPI   C2A 3032   9.709   9.129   8.529 -0.2570 -0.2329 -0.0388
  190loPI   C3A 3033   9.724   9.033   8.076  0.1334 -0.0836 -0.1604
  190loPI   C4A 3034   9.533   8.890   7.690  0.3065  0.2418  0.0695
  190loPI   C5A 3035   9.318   8.963   7.364  0.0597 -0.3180 -0.1563
  190loPI   C6A 3036   9.106   9.465   7.324 -0.3611  0.1644  0.3907
  190loPI   C1B 3037   9.946   8.613   8.740  0.0814  0.2654 -0.0547
  190loPI   C2B 3038   9.867   8.568   8.325  0.0698  0.0885 -0.0067
  190loPI   C3B 3039   9.639   8.471   7.993 -0.1766  0.0694 -0.1609
  190loPI   C4B 3040   9.652   8.211   7.655 -0.0120 -0.1971 -0.0882
  191loPI    C1 3041  13.208  11.563   9.422 -0.1906 -0.0695  0.1363
  191loPI    C2 3042  13.412  11.422   9.735  0.0744  0.0653  0.0268
  191loPI    C3 3043  13.191  11.753   9.773 -0.1538 -0.0996  0.1544
  191loPI   PO4 3044  13.441  11.532   9.205  0.0625 -0.2174 -0.3946
  191loPI   GL1 3045  13.539  11.490   8.882 -0.1820 -0.2627 -0.1413
  191loPI   GL2 3046  13.769  11.576   8.650  0.2006  0.0322  0.0057
  191loPI   C1A 3047  13.330  11.207   8.590  0.1401  0.2870  0.2297
  191loPI   C2A 3048  13.081  11.065   8.243 -0.2367  0.2300  0.0743
  191loPI   C3A 3049  13.144  11.056   7.726  0.2564  0.0332  0.1344
  191loPI   C4A 3050  12.763  11.297   7.446  0.1629 -0.1524  0.1745
  191loPI   C5A 3051  12.569  11.519   7.131  0.1517 -0.0278 -0.0345
  191loPI   C6A 3052  12.415  11.294   6.923 -0.1310  0.1390  0.0258
  191loPI   C1B 3053  13.928  11.400   8.276  0.1991 -0.4284 -0.0044
  191loPI   C2B 3054  14.127  11.360   7.831  0.0192 -0.1166 -0.0209
  191loPI   C3B 3055  14.238  11.483   7.433  0.0811  0.0342  0.6131
  191loPI   C4B 3056  14.259  11.233   7.024  0.0948  0.0655 -0.1777
  192loPI    C1 3057   3.713  15.389  10.114 -0.3009  0.5326 -0.0488
  192loPI    C2 3058   4.056  15.535  10.257 -0.0236  0.1023 -0.2522
  192loPI    C3 3059   3.707  15.685  10.383  0.2253  0.2846  0.2510
  192loPI   PO4 3060   3.872  15.235   9.842 -0.2027  0.1572  0.0165
  192loPI   GL1 3061   3.692  15.130   9.504 -0.1845 -0.1018  0.3355
  192loPI   GL2 3062   3.573  14.858   9.437  0.0816 -0.1817  0.2724
  192loPI   C1A 3063   3.410  15.307   9.181 -0.1064  0.0957  0.1478
  192loPI   C2A 3064   3.280  15.494   8.770  0.2804 -0.0800  0.3153
  192loPI   C3A 3065   3.325  15.698   8.364 -0.1828  0.3003  0.0277
  192loPI   C4A 3066   3.639  15.889   8.095  0.1846  0.2321  0.1473
  192loPI   C5A 3067   3.655  15.803   7.720 -0.1623  0.2433 -0.2182
  192loPI   C6A 3068   3.584  15.546   7.453  0.0667 -0.1877 -0.4834
  192loPI   C1B 3069   3.301  14.833   9.011 -0.0366  0.0214  0.2503
  192loPI   C2B 3070   3.163  15.034   8.619 -0.5285 -0.2689 -0.0977
  192loPI   C3B 3071   3.197  15.219   8.258 -0.2203  0.2628 -0.3925
  192loPI   C4B 3072   3.294  15.512   7.893  0.4636  0.2551  0.2250
  193loPI    C1 3073  17.057  14.801   9.589  0.0454 -0.1220 -0.2088
  193loPI    C2 3074  16.896  14.479   9.764 -0.0152 -0.0026 -0.0428
  193loPI    C3 3075  16.836  14.843   9.920  0.2120  0.0697 -0.1198
  193loPI   PO4 3076  16.951  14.706   9.291 -0.0444 -0.2414 -0.4570
  193loPI   GL1 3077  16.879  14.549   8.846  0.1622 -0.2138  0.0547
  193loPI   GL2 3078  17.159  14.471   8.770 -0.2634 -0.0627 -0.1656
  193loPI   C1A 3079  16.958  14.523   8.345 -0.2194  0.0991  0.0180
  193loPI   C2A 3080  17.207  14.585   8.052  0.2087 -0.1711  0.0915
  193loPI   C3A 3081  17.348  14.670   7.736  0.2472  0.0645  0.0854
  193loPI   C4A 3082  17.332  14.914   7.325  0.4975  0.0592 -0.0194
  193loPI   C5A 3083  17.563  15.305   7.265 -0.3303  0.0531 -0.1605
  193loPI   C6A 3084  17.846  15.363   7.468 -0.4425  0.2288 -0.3457
  193loPI   C1B 3085  16.997  14.086   8.552 -0.0476 -0.1927  0.1077
  193loPI   C2B 3086  17.038  13.984   8.118 -0.0363 -0.0034  0.2024
  193loPI   C3B 3087  17.315  13.679   7.850 -0.1990 -0.0348 -0.1748
  193loPI   C4B 3088  17.588  13.659   7.587  0.1863  0.4863  0.1907
  194loPI    C1 3089   7.457   8.196  10.134  0.0151 -0.0262 -0.0014
  194loPI    C2 3090   7.199   8.202  10.440 -0.2012 -0.3577 -0.1708
  194loPI    C3 3091   7.553   8.018  10.479  0.0093  0.0817  0.0559
  194loPI   PO4 3092   7.285   8.135   9.847  0.1581 -0.0232 -0.0740
  194loPI   GL1 3093   7.191   8.396   9.517  0.0277 -0.0526 -0.0881
  194loPI   GL2 3094   6.968   8.218   9.355 -0.1948 -0.0490  0.3597
  194loPI   C1A 3095   7.453   8.635   9.342 -0.0777 -0.0290 -0.0298
  194loPI   C2A 3096   7.375   8.537   8.942  0.0361 -0.1475 -0.1372
  194loPI   C3A 3097   7.455   8.460   8.528  0.0536 -0.2410 -0.1490
  194loPI   C4A 3098   7.265   8.611   8.158  0.0074  0.1537  0.0395
  194loPI   C5A 3099   7.241   8.559   7.742 -0.1977  0.0709 -0.0212
  194loPI   C6A 3100   7.228   8.532   7.317 -0.1066  0.1983 -0.2662
  194loPI   C1B 3101   6.843   8.097   8.909  0.0222 -0.2212 -0.0027
  194loPI   C2B 3102   6.890   8.344   8.412  0.2858  0.1271 -0.0109
  194loPI   C3B 3103   7.076   8.173   8.010  0.0418  0.3029  0.0514
  194loPI   C4B 3104   7.165   7.791   7.880  0.2321  0.0228 -0.3117
  195loPI    C1 3105  12.893   3.349   9.894 -0.0682 -0.0053  0.2149
  195loPI    C2 3106  13.204   3.250  10.125 -0.0937 -0.2887  0.1322
  195loPI    C3 3107  12.861   3.046  10.154 -0.2000 -0.1211  0.0661
  195loPI   PO4 3108  12.902   3.308   9.577 -0.1093  0.2239 -0.0730
  195loPI   GL1 3109  12.918   3.060   9.236 -0.1978 -0.1776 -0.0693
  195loPI   GL2 3110  13.296   3.064   9.319  0.2464  0.0413 -0.2103
  195loPI   C1A 3111  12.877   3.157   8.854 -0.0176 -0.0992 -0.4227
  195loPI   C2A 3112  12.689   3.158   8.430  0.0357  0.1501 -0.0328
  195loPI   C3A 3113  12.555   3.102   7.969 -0.2741 -0.1782  0.0985
  195loPI   C4A 3114  12.685   3.046   7.525  0.1738 -0.0615  0.0533
  195loPI   C5A 3115  13.081   3.226   7.546  0.1031 -0.0539 -0.1189
  195loPI   C6A 3116  13.540   3.094   7.662  0.0834 -0.1737  0.1639
  195loPI   C1B 3117  13.171   3.499   9.027 -0.0189 -0.2030  0.0110
  195loPI   C2B 3118  13.089   3.550   8.521  0.1355  0.0716 -0.0501
  195loPI   C3B 3119  13.123   3.255   8.118 -0.1099 -0.0442  0.0318
  195loPI   C4B 3120  13.277   2.827   8.053  0.0427 -0.0309 -0.4709
  196loPI    C1 3121  18.640  17.910   9.873  0.0069 -0.3188  0.4351
  196loPI    C2 3122  18.284  17.863  10.049 -0.1918 -0.3072  0.0472
  196loPI    C3 3123  18.434  17.571   9.820  0.0103 -0.2771  0.1393
  196loPI   PO4 3124  18.650  18.142   9.718  0.0044 -0.1081 -0.1985
  196loPI   GL1 3125  18.855  18.275   9.421 -0.1115  0.2962  0.0686
  196loPI   GL2 3126  19.108  18.326   9.467  0.0455 -0.0801  0.0854
  196loPI   C1A 3127  18.792  18.527   9.070 -0.2427  0.0314  0.0706
  196loPI   C2A 3128  18.871  18.705   8.620  0.1601 -0.1839  0.0086
  196loPI   C3A 3129  18.772  18.818   8.171 -0.0995  0.0829 -0.0165
  196loPI   C4A 3130  18.789  18.823   7.763 -0.0364 -0.0350 -0.0778
  196loPI   C5A 3131  18.674  18.552   7.403  0.0742  0.0956 -0.1273
  196loPI   C6A 3132  18.797  18.622   6.863 -0.0709  0.0190 -0.0705
  196loPI   C1B 3133  19.228  18.115   9.136 -0.0800 -0.0431 -0.0852
  196loPI   C2B 3134  19.320  18.102   8.736 -0.1356  0.0043  0.0415
  196loPI   C3B 3135  19.319  18.102   8.251 -0.1271  0.0258  0.1864
  196loPI   C4B 3136  19.461  17.975   7.749  0.2053  0.1583  0.1031
  197loPI    C1 3137   0.243  10.111   9.822  0.2565  0.1745 -0.3617
  197loPI    C2 3138  -0.101  10.288   9.718 -0.0005  0.0225  0.1903
  197loPI    C3 3139  -0.098   9.902   9.823  0.3576 -0.0015  0.1053
  197loPI   PO4 3140   0.401  10.214   9.626  0.0450 -0.1623  0.0145
  197loPI   GL1 3141   0.595  10.416   9.214  0.3458 -0.0385  0.0330
  197loPI   GL2 3142   0.320  10.335   8.973  0.4037  0.1111  0.0110
  197loPI   C1A 3143   0.742  10.080   8.942  0.2197 -0.0574  0.1203
  197loPI   C2A 3144   0.888   9.852   8.508 -0.1787 -0.0445  0.1518
  197loPI   C3A 3145   0.672   9.617   8.238 -0.0929  0.0473  0.1190
  197loPI   C4A 3146   0.771   9.761   7.792  0.2706 -0.0741  0.1751
  197loPI   C5A 3147   0.755   9.976   7.461 -0.1764 -0.0764  0.1473
  197loPI   C6A 3148   0.878  10.274   7.256 -0.2343 -0.0347 -0.2132
  197loPI   C1B 3149   0.178  10.403   8.555 -0.1680  0.5150 -0.3529
  197loPI   C2B 3150   0.307  10.463   8.073 -0.2401 -0.1596  0.2095
  197loPI   C3B 3151  -0.044  10.328   7.781  0.0183  0.0229  0.0650
  197loPI   C4B 3152  -0.500  10.166   7.731 -0.2202 -0.3420 -0.2049
  198loPI    C1 3153   0.930  18.976  10.347  0.1584 -0.1082  0.0741
  198loPI    C2 3154   0.776  18.606  10.356 -0.0886 -0.0110 -0.0595
  198loPI    C3 3155   0.834  18.807  10.697  0.0021 -0.1534  0.0102
  198loPI   PO4 3156   1.180  19.059  10.176  0.0632  0.3409  0.1928
  198loPI   GL1 3157   1.319  18.900   9.872  0.2622 -0.0706  0.1529
  198loPI   GL2 3158   1.205  19.089   9.603 -0.1344  0.4010  0.3973
  198loPI   C1A 3159   1.260  18.605   9.493  0.0706 -0.2043  0.0290
  198loPI   C2A 3160   1.398  18.426   9.070 -0.0607  0.3424 -0.1028
  198loPI   C3A 3161   1.681  18.462   8.735  0.0211 -0.1618  0.2516
  198loPI   C4A 3162   1.631  18.496   8.372 -0.0342  0.1544  0.5187
  198loPI   C5A 3163   1.557  18.371   7.978 -0.3577  0.1152 -0.2471
  198loPI   C6A 3164   1.618  18.347   7.565 -0.1416  0.0164  0.3696
  198loPI   C1B 3165   1.178  19.286   9.181  0.2188 -0.4050  0.3243
  198loPI   C2B 3166   1.028  19.276   8.780 -0.0230 -0.1068 -0.1539
  198loPI   C3B 3167   0.893  18.955   8.429  0.1852 -0.4079  0.2371
  198loPI   C4B 3168   0.626  18.579   8.210  0.2457  0.0811 -0.1891
  199loPI    C1 3169   9.230   6.827   9.916  0.2089  0.0896  0.0252
  199loPI    C2 3170   9.063   6.714  10.261  0.0102  0.3649  0.0227
  199loPI    C3 3171   9.461   6.739  10.231  0.0384  0.1104  0.1576
  199loPI   PO4 3172   9.273   7.116   9.808  0.0726  0.0102 -0.0182
  199loPI   GL1 3173   9.447   7.280   9.537  0.2224 -0.1365 -0.0712
  199loPI   GL2 3174   9.661   7.482   9.387  0.0235  0.4051  0.1551
  199loPI   C1A 3175   9.322   7.305   9.077  0.1736 -0.1081 -0.0270
  199loPI   C2A 3176   9.154   7.397   8.724  0.1831  0.1472 -0.4097
  199loPI   C3A 3177   9.174   7.367   8.334  0.0268 -0.0374  0.1560
  199loPI   C4A 3178   9.195   7.480   7.827 -0.2287 -0.1013  0.2440
  199loPI   C5A 3179   9.178   7.260   7.439  0.4035  0.0007  0.1996
  199loPI   C6A 3180   9.354   7.065   6.975  0.0592  0.0371  0.0737
  199loPI   C1B 3181   9.595   7.642   8.911 -0.0033 -0.1413  0.0762
  199loPI   C2B 3182   9.739   7.677   8.591  0.0534  0.1415 -0.3066
  199loPI   C3B 3183   9.836   7.553   8.135  0.1499 -0.5453  0.1956
  199loPI   C4B 3184   9.619   7.256   7.756 -0.1552 -0.1893 -0.1742
  200loPI    C1 3185  12.473   2.373   9.272 -0.1028 -0.1025 -0.1586
  200loPI    C2 3186  12.522   2.096   9.556  0.0759  0.0884  0.0005
  200loPI    C3 3187  12.318   2.431   9.636  0.2650  0.2161 -0.0450
  200loPI   PO4 3188  12.347   2.234   9.095 -0.0333 -0.0238 -0.0574
  200loPI   GL1 3189  12.468   2.311   8.635  0.1095 -0.0745 -0.0678
  200loPI   GL2 3190  12.246   2.547   8.636  0.0130 -0.4067  0.1447
  200loPI   C1A 3191  12.683   2.584   8.382  0.2589 -0.1773  0.0256
  200loPI   C2A 3192  12.800   2.660   7.936 -0.0156  0.0534  0.0259
  200loPI   C3A 3193  13.142   2.731   7.600  0.0679  0.1845 -0.2290
  200loPI   C4A 3194  13.093   2.790   7.147  0.4137  0.1701 -0.0874
  200loPI   C5A 3195  13.150   2.943   6.753 -0.1014  0.3394 -0.0199
  200loPI   C6A 3196  13.054   3.000   6.349 -0.2293  0.1051  0.3251
  200loPI   C1B 3197  12.183   2.952   8.306  0.2292 -0.0848 -0.4196
  200loPI   C2B 3198  11.982   3.166   7.849 -0.5209  0.2399 -0.1267
  200loPI   C3B 3199  12.056   3.247   7.438  0.3747 -0.0860  0.0890
  200loPI   C4B 3200  12.212   3.263   6.975  0.2437 -0.0734 -0.3872
  201loPI    C1 3201  17.344  15.613   9.735  0.2455  0.2020 -0.0761
  201loPI    C2 3202  17.275  15.678  10.124  0.0115  0.2498 -0.1236
  201loPI    C3 3203  17.093  15.903   9.849  0.0135  0.0791 -0.2665
  201loPI   PO4 3204  17.303  15.409   9.576 -0.0670 -0.2315  0.0664
  201loPI   GL1 3205  17.383  15.226   9.141  0.0963  0.2789 -0.1378
  201loPI   GL2 3206  17.169  15.016   8.950 -0.2801  0.0322 -0.1208
  201loPI   C1A 3207  17.720  15.270   8.959 -0.2988  0.0780  0.2851
  201loPI   C2A 3208  17.941  15.224   8.487  0.1508  0.3497 -0.0303
  201loPI   C3A 3209  18.345  15.290   8.399  0.2282  0.0086  0.0985
  201loPI   C4A 3210  18.446  15.705   8.193 -0.1976  0.1284  0.0360
  201loPI   C5A 3211  18.450  15.734   7.829  0.0479 -0.1000 -0.0112
  201loPI   C6A 3212  18.046  15.774   7.626  0.1114  0.1770 -0.2041
  201loPI   C1B 3213  17.132  14.953   8.583 -0.0767 -0.0700  0.3339
  201loPI   C2B 3214  17.044  15.014   8.139  0.3384  0.1883  0.0298
  201loPI   C3B 3215  16.947  15.105   7.629  0.1157  0.0966  0.3361
  201loPI   C4B 3216  17.099  15.365   7.182  0.0227 -0.0684  0.1676
  202loPI    C1 3217  14.940  18.821   9.593 -0.1502  0.0725 -0.0135
  202loPI    C2 3218  14.894  19.218   9.607 -0.1769  0.0669  0.0644
  202loPI    C3 3219  14.976  19.015   9.941  0.1242  0.0411 -0.0223
  202loPI   PO4 3220  14.969  18.828   9.277 -0.0307 -0.0799 -0.3524
  202loPI   GL1 3221  14.866  18.811   8.856  0.0867 -0.0785 -0.2122
  202loPI   GL2 3222  14.789  18.457   8.805 -0.2219 -0.1401 -0.0904
  202loPI   C1A 3223  14.688  19.008   8.493  0.2929 -0.0801  0.2261
  202loPI   C2A 3224  14.906  19.146   8.122 -0.0402 -0.0726  0.2726
  202loPI   C3A 3225  15.084  19.027   7.612  0.0370  0.2064 -0.1112
  202loPI   C4A 3226  14.944  19.022   7.224  0.2848 -0.0410  0.1359
  202loPI   C5A 3227  14.577  19.231   6.930  0.2266 -0.0575  0.2125
  202loPI   C6A 3228  14.462  19.474   6.596 -0.1886  0.0189  0.1538
  202loPI   C1B 3229  14.617  18.092   8.583  0.2003  0.2622 -0.0707
  202loPI   C2B 3230  14.576  17.821   8.178 -0.1510 -0.2236 -0.0481
  202loPI   C3B 3231  14.462  17.733   7.823  0.0613 -0.2437  0.0091
  202loPI   C4B 3232  14.557  18.036   7.509 -0.0305  0.1024 -0.0743
  203loPI    C1 3233  15.268  15.561   9.701 -0.0691 -0.0943 -0.1066
  203loPI    C2 3234  15.562  15.809   9.812 -0.0315 -0.2659  0.1855
  203loPI    C3 3235  15.210  15.957   9.695 -0.0077 -0.0732  0.3522
  203loPI   PO4 3236  15.434  15.387   9.526  0.0684  0.1012  0.0233
  203loPI   GL1 3237  15.571  15.524   9.064  0.0130 -0.3163 -0.6240
  203loPI   GL2 3238  15.553  15.264   8.916  0.0830 -0.0922  0.0621
  203loPI   C1A 3239  15.766  15.539   8.609 -0.0929  0.0962  0.0349
  203loPI   C2A 3240  15.713  15.333   8.213 -0.2764 -0.0669  0.0201
  203loPI   C3A 3241  15.563  15.414   7.864 -0.2469  0.4452 -0.2915
  203loPI   C4A 3242  15.276  15.286   7.490  0.1506 -0.0479 -0.1497
  203loPI   C5A 3243  14.886  15.399   7.184  0.1585 -0.1941 -0.0960
  203loPI   C6A 3244  14.483  15.650   6.889 -0.3351 -0.1885 -0.1103
  203loPI   C1B 3245  15.588  14.993   8.565 -0.1366  0.3255 -0.0077
  203loPI   C2B 3246  15.707  14.837   8.096 -0.0231  0.1030  0.1239
  203loPI   C3B 3247  15.779  14.569   7.832  0.0316  0.3364  0.3597
  203loPI   C4B 3248  15.922  14.307   7.503  0.0060  0.3675 -0.0480
  204loPI    C1 3249   8.855   3.338   9.511 -0.1079 -0.1336 -0.2822
  204loPI    C2 3250   8.929   3.029   9.754 -0.1762  0.0168 -0.0669
  204loPI    C3 3251   8.772   3.366   9.901 -0.0396  0.1797 -0.2873
  204loPI   PO4 3252   8.869   3.192   9.310 -0.1342 -0.1775 -0.2535
  204loPI   GL1 3253   8.704   3.226   8.972 -0.3343 -0.2056  0.2008
  204loPI   GL2 3254   8.565   3.527   9.026 -0.1750  0.0011  0.2113
  204loPI   C1A 3255   8.965   3.325   8.564  0.3525  0.0992  0.1651
  204loPI   C2A 3256   9.011   3.268   8.125 -0.0695 -0.1195 -0.0624
  204loPI   C3A 3257   8.960   3.168   7.673  0.0828  0.0555 -0.1882
  204loPI   C4A 3258   9.137   3.253   7.262 -0.2337  0.1506  0.3711
  204loPI   C5A 3259   9.273   3.710   7.040 -0.0728  0.0847 -0.1180
  204loPI   C6A 3260   9.490   4.080   7.172  0.2210  0.1942 -0.1044
  204loPI   C1B 3261   8.601   3.665   8.686 -0.0965 -0.2033  0.1518
  204loPI   C2B 3262   8.476   3.888   8.306  0.1535  0.0176 -0.3985
  204loPI   C3B 3263   8.440   3.952   7.852 -0.1946 -0.1093 -0.0720
  204loPI   C4B 3264   8.395   3.983   7.461  0.0088 -0.2204 -0.0743
  205loPI    C1 3265   6.428  13.598   9.782 -0.1645 -0.0632 -0.1543
  205loPI    C2 3266   6.741  13.395   9.928 -0.1092  0.0895 -0.0585
  205loPI    C3 3267   6.710  13.789   9.992 -0.2789  0.0902 -0.1387
  205loPI   PO4 3268   6.342  13.524   9.513 -0.1930  0.0060  0.0963
  205loPI   GL1 3269   6.054  13.319   9.301 -0.4048  0.0019 -0.3047
  205loPI   GL2 3270   6.299  13.103   9.168 -0.0557 -0.1013  0.3778
  205loPI   C1A 3271   5.862  13.297   8.886  0.2405 -0.2114  0.2359
  205loPI   C2A 3272   5.748  13.156   8.409  0.1116 -0.1895 -0.3117
  205loPI   C3A 3273   5.640  12.897   8.002  0.0214  0.0736 -0.0422
  205loPI   C4A 3274   5.455  12.733   7.642  0.0173 -0.0100  0.0053
  205loPI   C5A 3275   5.474  12.450   7.260  0.3502  0.0827  0.0147
  205loPI   C6A 3276   5.103  12.529   6.987  0.2049 -0.3518 -0.1249
  205loPI   C1B 3277   6.309  13.460   8.842 -0.2792 -0.1278  0.3467
  205loPI   C2B 3278   6.071  13.496   8.482  0.1755  0.0881 -0.0835
  205loPI   C3B 3279   6.116  13.221   8.066  0.1124  0.1717 -0.0255
  205loPI   C4B 3280   5.996  13.063   7.696 -0.2243  0.0723 -0.1491
  206loPI    C1 3281  14.430  14.047   9.376 -0.0002  0.2009 -0.0313
  206loPI    C2 3282  14.104  14.123   9.595 -0.0168 -0.3125  0.1369
  206loPI    C3 3283  14.435  13.986   9.771  0.1800 -0.1256 -0.0806
  206loPI   PO4 3284  14.396  13.848   9.164 -0.1995  0.1813 -0.1778
  206loPI   GL1 3285  14.537  13.634   8.822  0.1149  0.3353 -0.0548
  206loPI   GL2 3286  14.789  13.433   8.839 -0.0397 -0.0455 -0.0705
  206loPI   C1A 3287  14.316  13.588   8.498 -0.2210 -0.0280 -0.0356
  206loPI   C2A 3288  14.250  13.617   8.097  0.1687  0.0083  0.2135
  206loPI   C3A 3289  14.147  13.416   7.690  0.0925  0.0974  0.1330
  206loPI   C4A 3290  14.030  13.444   7.329  0.1109  0.3223 -0.1055
  206loPI   C5A 3291  13.857  13.294   6.962 -0.3161 -0.4298 -0.0291
  206loPI   C6A 3292  13.879  13.155   6.563  0.0278  0.4121 -0.3749
  206loPI   C1B 3293  14.856  13.619   8.437  0.1511  0.4080  0.0825
  206loPI   C2B 3294  14.986  13.601   8.035 -0.0088 -0.1592  0.0834
  206loPI   C3B 3295  15.385  13.619   7.953 -0.0032 -0.2133  0.3190
  206loPI   C4B 3296  15.804  13.446   8.164 -0.1305  0.2694  0.1405
  207loPI    C1 3297  15.935   9.577   9.740  0.3955 -0.0718  0.0286
  207loPI    C2 3298  15.940   9.791  10.078  0.1697  0.1979 -0.1342
  207loPI    C3 3299  15.646   9.527  10.012  0.1818  0.1874 -0.1461
  207loPI   PO4 3300  15.999   9.720   9.494  0.1575  0.0534 -0.1847
  207loPI   GL1 3301  15.665   9.882   9.145 -0.0914  0.0040 -0.0040
  207loPI   GL2 3302  15.985   9.925   8.968 -0.0412 -0.0843  0.0041
  207loPI   C1A 3303  15.618   9.905   8.721 -0.1242  0.1803  0.0343
  207loPI   C2A 3304  15.799  10.045   8.331  0.3486 -0.1344  0.0331
  207loPI   C3A 3305  16.174  10.076   8.031 -0.1450  0.0149 -0.0925
  207loPI   C4A 3306  16.485   9.909   7.705 -0.0692 -0.2015  0.1129
  207loPI   C5A 3307  16.801   9.876   7.444 -0.1550 -0.2838 -0.1632
  207loPI   C6A 3308  17.203   9.826   7.224  0.1722 -0.1217 -0.3915
  207loPI   C1B 3309  16.162   9.812   8.658 -0.2559  0.0896 -0.0128
  207loPI   C2B 3310  16.328   9.621   8.230  0.0680 -0.1382 -0.0214
  207loPI   C3B 3311  16.599   9.491   7.883 -0.2543  0.1301  0.1548
  207loPI   C4B 3312  16.661   9.417   7.497 -0.1052  0.0897  0.0670
  208loPI    C1 3313   4.604  18.178  10.198 -0.0210 -0.3711 -0.0373
  208loPI    C2 3314   4.765  18.093  10.554  0.0334 -0.1690 -0.0124
  208loPI    C3 3315   4.417  18.289  10.534 -0.0694 -0.3552 -0.0694
  208loPI   PO4 3316   4.667  17.992  10.031  0.1344 -0.2383 -0.1404
  208loPI   GL1 3317   4.658  18.056   9.529  0.1463 -0.0869 -0.1359
  208loPI   GL2 3318   4.883  18.351   9.494  0.2341  0.1162  0.3772
  208loPI   C1A 3319   4.918  18.001   9.182 -0.2089 -0.1418  0.1888
  208loPI   C2A 3320   4.947  17.812   8.815  0.1290  0.3376 -0.1917
  208loPI   C3A 3321   4.939  17.842   8.369 -0.3459  0.0954  0.0504
  208loPI   C4A 3322   5.011  17.727   8.007 -0.4806 -0.3705 -0.0569
  208loPI   C5A 3323   4.747  17.475   7.780 -0.1865  0.0413 -0.2287
  208loPI   C6A 3324   4.562  17.630   7.386  0.1428  0.0567 -0.3233
  208loPI   C1B 3325   4.995  18.485   9.004  0.2498  0.1089 -0.0773
  208loPI   C2B 3326   5.097  18.304   8.618  0.3095 -0.0383 -0.0365
  208loPI   C3B 3327   5.105  18.282   8.143  0.2196  0.0347  0.2285
  208loPI   C4B 3328   5.304  18.132   7.829  0.2639  0.2352 -0.0380
  209loPI    C1 3329  14.769  12.287   9.370 -0.0415  0.1312  0.0178
  209loPI    C2 3330  14.994  12.353   9.694 -0.0426  0.0941  0.0262
  209loPI    C3 3331  14.601  12.290   9.733 -0.0069 -0.1277  0.0372
  209loPI   PO4 3332  14.862  12.081   9.230 -0.2124 -0.2007 -0.1775
  209loPI   GL1 3333  15.046  12.076   8.779  0.3840 -0.1870  0.0036
  209loPI   GL2 3334  15.234  11.869   8.901  0.2673 -0.2781  0.0177
  209loPI   C1A 3335  15.167  12.165   8.253 -0.1931  0.0651  0.1667
  209loPI   C2A 3336  15.353  12.284   7.828 -0.2809 -0.1756  0.2248
  209loPI   C3A 3337  15.193  12.183   7.449 -0.0229 -0.1253 -0.0330
  209loPI   C4A 3338  15.217  12.441   7.033 -0.0917 -0.0234  0.0293
  209loPI   C5A 3339  15.149  12.502   6.626  0.2484  0.0110  0.0532
  209loPI   C6A 3340  15.116  12.122   6.338  0.1557 -0.0046 -0.2510
  209loPI   C1B 3341  15.236  11.678   8.528 -0.3739 -0.4077  0.2037
  209loPI   C2B 3342  15.166  11.567   8.117  0.0591  0.3794  0.0804
  209loPI   C3B 3343  15.231  11.666   7.673 -0.1595  0.0402 -0.0160
  209loPI   C4B 3344  15.184  11.752   7.302  0.1347  0.1743 -0.2092
  210loPI    C1 3345   6.542  14.671   9.616  0.1097 -0.0550 -0.0161
  210loPI    C2 3346   6.368  14.779   9.959 -0.0241 -0.2798 -0.0111
  210loPI    C3 3347   6.764  14.724   9.945  0.0014 -0.1243  0.0686
  210loPI   PO4 3348   6.497  14.889   9.440 -0.3134 -0.2155  0.1622
  210loPI   GL1 3349   6.366  14.869   9.076 -0.0854 -0.1010 -0.0326
  210loPI   GL2 3350   6.320  15.119   9.055 -0.2251 -0.2055  0.3100
  210loPI   C1A 3351   6.327  14.712   8.653  0.0483  0.2535 -0.0878
  210loPI   C2A 3352   6.235  14.662   8.241  0.4538 -0.0651  0.0309
  210loPI   C3A 3353   6.067  14.629   7.795 -0.1957  0.0820 -0.2438
  210loPI   C4A 3354   5.926  14.627   7.308 -0.1502 -0.0356  0.1693
  210loPI   C5A 3355   5.540  14.890   7.040  0.2508  0.2275  0.0138
  210loPI   C6A 3356   5.240  14.700   6.800 -0.2122 -0.3252  0.1736
  210loPI   C1B 3357   6.188  15.168   8.656  0.1071 -0.0523 -0.1071
  210loPI   C2B 3358   6.081  15.128   8.194  0.0185 -0.0313 -0.1520
  210loPI   C3B 3359   6.232  15.123   7.825 -0.1720  0.0764  0.0018
  210loPI   C4B 3360   6.354  15.006   7.462 -0.0613 -0.1143  0.2246
  211loPI    C1 3361  10.650  13.614   9.649 -0.1810  0.0525 -0.0919
  211loPI    C2 3362  10.964  13.388   9.545 -0.0453  0.2134 -0.0369
  211loPI    C3 3363  10.948  13.553   9.909 -0.1543  0.2739 -0.0687
  211loPI   PO4 3364  10.615  13.816   9.528  0.0020 -0.0706  0.1031
  211loPI   GL1 3365  10.264  13.866   9.256  0.0857  0.1283  0.3853
  211loPI   GL2 3366  10.079  14.219   9.198 -0.1719  0.5106 -0.0827
  211loPI   C1A 3367  10.140  13.937   8.803  0.3341 -0.3577  0.2172
  211loPI   C2A 3368  10.010  13.932   8.455  0.2395  0.3679  0.1707
  211loPI   C3A 3369   9.876  13.664   8.162  0.2874  0.2245 -0.0181
  211loPI   C4A 3370   9.837  13.591   7.670 -0.3500  0.1809 -0.4119
  211loPI   C5A 3371   9.842  13.767   7.215 -0.0237  0.0365  0.1455
  211loPI   C6A 3372   9.944  13.797   6.888 -0.1567 -0.2081  0.1516
  211loPI   C1B 3373   9.797  14.337   8.823 -0.1545 -0.1276 -0.2932
  211loPI   C2B 3374   9.950  14.430   8.403  0.0805 -0.0029 -0.0975
  211loPI   C3B 3375   9.998  14.247   7.973  0.0124  0.1346  0.0449
  211loPI   C4B 3376  10.022  14.060   7.564 -0.0134  0.0408  0.1824
  212loPI    C1 3377  18.176   6.843  10.165 -0.3099 -0.1950 -0.2031
  212loPI    C2 3378  17.966   7.067  10.421  0.1648  0.2264 -0.1671
  212loPI    C3 3379  18.224   6.796  10.559  0.1330  0.1769 -0.2045
  212loPI   PO4 3380  18.063   6.889   9.914 -0.1668 -0.0017 -0.2369
  212loPI   GL1 3381  18.198   6.580   9.578  0.0132  0.1167 -0.1009
  212loPI   GL2 3382  18.024   6.415   9.368  0.3518 -0.2410  0.2032
  212loPI   C1A 3383  18.427   6.761   9.298  0.2554  0.1472  0.0393
  212loPI   C2A 3384  18.409   6.923   8.934  0.1821  0.1650  0.2306
  212loPI   C3A 3385  18.163   6.950   8.561 -0.3209 -0.2717  0.1343
  212loPI   C4A 3386  18.265   6.681   8.240 -0.0731  0.2828  0.0796
  212loPI   C5A 3387  18.035   6.370   7.941  0.2062 -0.3074  0.1418
  212loPI   C6A 3388  18.191   6.083   7.707 -0.1221 -0.0303 -0.0823
  212loPI   C1B 3389  18.045   6.414   8.961  0.0225 -0.0362 -0.2320
  212loPI   C2B 3390  17.893   6.331   8.529 -0.2575  0.0263 -0.1405
  212loPI   C3B 3391  17.619   6.151   8.196 -0.5177  0.0862  0.2060
  212loPI   C4B 3392  17.608   6.122   7.723  0.3224 -0.0278 -0.0854
  213loPI    C1 3393  14.143   3.327   9.683  0.2430 -0.1184  0.0350
  213loPI    C2 3394  14.026   3.637   9.907  0.2303 -0.0783 -0.0270
  213loPI    C3 3395  14.270   3.360  10.061  0.2565 -0.0279  0.0227
  213loPI   PO4 3396  13.828   3.299   9.603 -0.1117  0.3904  0.0799
  213loPI   GL1 3397  13.711   3.504   9.346  0.4852  0.0319  0.0311
  213loPI   GL2 3398  14.025   3.759   9.412  0.1140 -0.1500  0.1538
  213loPI   C1A 3399  13.649   3.205   8.972 -0.0127 -0.1191  0.0512
  213loPI   C2A 3400  13.997   3.288   8.610 -0.0096 -0.5429 -0.0939
  213loPI   C3A 3401  14.241   3.381   8.245  0.1184  0.3217  0.4241
  213loPI   C4A 3402  14.181   3.277   7.767 -0.1034  0.3513 -0.1669
  213loPI   C5A 3403  14.292   3.150   7.350  0.1478 -0.1033 -0.1134
  213loPI   C6A 3404  14.406   3.321   7.030 -0.0952 -0.0771  0.0668
  213loPI   C1B 3405  14.083   3.727   8.961  0.3610 -0.0007  0.1543
  213loPI   C2B 3406  14.337   3.758   8.590  0.0911  0.0984  0.2897
  213loPI   C3B 3407  14.474   4.003   8.248  0.0291  0.2930  0.0842
  213loPI   C4B 3408  14.345   4.375   8.139  0.0859  0.0596  0.2513
  214loPI    C1 3409  12.429   3.720   9.865 -0.0617  0.0769 -0.0878
  214loPI    C2 3410  12.371   3.345   9.737  0.2071  0.0448 -0.1204
  214loPI    C3 3411  12.392   3.421  10.129 -0.0422  0.0566 -0.1079
  214loPI   PO4 3412  12.656   3.749   9.634  0.0144  0.1140  0.0417
  214loPI   GL1 3413  12.710   3.802   9.258  0.0854 -0.3788 -0.4332
  214loPI   GL2 3414  12.332   3.887   9.221  0.4532 -0.0093 -0.0447
  214loPI   C1A 3415  12.698   3.662   8.803 -0.1085  0.2413  0.0580
  214loPI   C2A 3416  12.688   3.801   8.313  0.0481  0.0653 -0.1734
  214loPI   C3A 3417  12.754   3.675   7.837 -0.1607  0.4880  0.3020
  214loPI   C4A 3418  12.707   3.782   7.439  0.0715  0.2077  0.1678
  214loPI   C5A 3419  12.597   4.071   7.109  0.2830 -0.0011  0.0659
  214loPI   C6A 3420  12.338   4.463   6.859 -0.0949  0.4110 -0.2226
  214loPI   C1B 3421  12.405   4.072   8.738  0.1884  0.0856 -0.1652
  214loPI   C2B 3422  12.628   4.251   8.488  0.1346 -0.1542 -0.0804
  214loPI   C3B 3423  12.611   4.232   8.086 -0.0916  0.2929 -0.3575
  214loPI   C4B 3424  12.864   4.420   7.682  0.1624  0.1770 -0.0388
  215loPI    C1 3425  17.798  14.510   9.579 -0.0623 -0.0491 -0.0109
  215loPI    C2 3426  17.441  14.458   9.751 -0.0471  0.0469  0.0500
  215loPI    C3 3427  17.577  14.828   9.681  0.0915  0.0126  0.1340
  215loPI   PO4 3428  17.804  14.287   9.397  0.0167 -0.0417  0.1634
  215loPI   GL1 3429  17.884  14.312   8.974  0.2154  0.0050 -0.0538
  215loPI   GL2 3430  17.656  14.262   8.784  0.2071  0.0724  0.0062
  215loPI   C1A 3431  18.026  14.610   8.783  0.1041 -0.0979  0.1543
  215loPI   C2A 3432  17.583  14.830   8.635 -0.0684  0.1020  0.0668
  215loPI   C3A 3433  17.509  15.030   8.316  0.2034  0.0967  0.2294
  215loPI   C4A 3434  17.798  15.316   8.038  0.2984 -0.1967  0.0133
  215loPI   C5A 3435  18.181  15.313   7.903  0.0190 -0.0607  0.0732
  215loPI   C6A 3436  18.587  15.177   7.788 -0.1380  0.0376  0.4584
  215loPI   C1B 3437  17.420  14.213   8.334  0.0545 -0.0062 -0.1422
  215loPI   C2B 3438  17.552  14.170   7.899  0.2487  0.0057  0.1865
  215loPI   C3B 3439  17.755  14.428   7.592 -0.0759  0.0197  0.2312
  215loPI   C4B 3440  17.826  14.690   7.170 -0.0048 -0.2533  0.1350
  216loPI    C1 3441   7.883  17.559  10.032 -0.1365  0.1699  0.3122
  216loPI    C2 3442   8.151  17.643   9.747 -0.2250  0.0835  0.2028
  216loPI    C3 3443   8.263  17.639  10.131 -0.0667  0.0371  0.1571
  216loPI   PO4 3444   7.713  17.406   9.910  0.0136 -0.0095  0.1141
  216loPI   GL1 3445   7.611  17.174   9.492 -0.0723 -0.1972 -0.3844
  216loPI   GL2 3446   7.345  17.402   9.455  0.1369  0.2857 -0.2492
  216loPI   C1A 3447   7.610  17.190   8.999 -0.3442 -0.0457  0.3849
  216loPI   C2A 3448   7.303  17.125   8.636 -0.0907 -0.3903  0.0485
  216loPI   C3A 3449   7.205  16.855   8.223 -0.1105  0.1473 -0.0441
  216loPI   C4A 3450   6.999  16.475   8.243 -0.4062  0.1982 -0.0262
  216loPI   C5A 3451   6.973  16.014   8.244 -0.4417 -0.0524  0.1883
  216loPI   C6A 3452   6.875  15.689   8.021  0.2646  0.0306  0.0219
  216loPI   C1B 3453   7.296  17.814   9.074 -0.1618  0.0524  0.0621
  216loPI   C2B 3454   7.201  17.809   8.743  0.1317  0.0414 -0.0156
  216loPI   C3B 3455   7.267  17.709   8.311 -0.0879 -0.0183  0.0114
  216loPI   C4B 3456   7.368  17.756   7.989 -0.1102  0.0880 -0.0559
  217loPI    C1 3457   7.851  10.751   9.766 -0.0552  0.0616  0.1316
  217loPI    C2 3458   7.733  10.695  10.144  0.0422 -0.1021  0.1390
  217loPI    C3 3459   7.998  10.982  10.058 -0.1430  0.0783  0.1628
  217loPI   PO4 3460   7.791  10.409   9.647 -0.0614 -0.2779  0.0881
  217loPI   GL1 3461   7.649  10.366   9.217 -0.1363  0.0284  0.0798
  217loPI   GL2 3462   7.320  10.348   9.070 -0.1542  0.4223  0.1885
  217loPI   C1A 3463   7.526  10.692   8.766 -0.1229  0.2835 -0.0884
  217loPI   C2A 3464   7.356  10.741   8.251 -0.0365 -0.2357  0.1592
  217loPI   C3A 3465   7.242  10.595   7.798  0.1154 -0.2096  0.1656
  217loPI   C4A 3466   7.386  10.666   7.467 -0.0169  0.0370  0.3911
  217loPI   C5A 3467   7.760  10.616   7.250  0.0760 -0.0607 -0.0307
  217loPI   C6A 3468   8.097  10.853   7.108 -0.2427  0.3054 -0.0178
  217loPI   C1B 3469   7.290  10.293   8.559 -0.1190  0.2310 -0.3204
  217loPI   C2B 3470   7.279  10.153   8.055  0.4755  0.0770 -0.1421
  217loPI   C3B 3471   7.360  10.001   7.616 -0.1241  0.0763  0.1878
  217loPI   C4B 3472   7.341  10.084   7.217  0.0223 -0.1321 -0.6879
  218loPI    C1 3473  16.068   4.663  10.088  0.0745  0.1554  0.0125
  218loPI    C2 3474  15.919   4.463   9.775  0.2665  0.0703 -0.0259
  218loPI    C3 3475  15.751   4.424  10.136  0.0452  0.1673 -0.1168
  218loPI   PO4 3476  16.121   4.844   9.995  0.0475 -0.1586  0.1870
  218loPI   GL1 3477  16.272   4.794   9.569  0.1258 -0.0301 -0.1906
  218loPI   GL2 3478  15.992   4.940   9.361 -0.2075  0.0570 -0.0811
  218loPI   C1A 3479  16.331   4.654   9.099  0.2214  0.1793 -0.3537
  218loPI   C2A 3480  16.378   4.536   8.738  0.1959  0.2547  0.0701
  218loPI   C3A 3481  16.556   4.620   8.352 -0.1985 -0.0742 -0.1488
  218loPI   C4A 3482  16.799   4.613   8.065 -0.1251 -0.3096 -0.0804
  218loPI   C5A 3483  16.936   4.566   7.663 -0.0955 -0.1033  0.1452
  218loPI   C6A 3484  16.940   4.875   7.355  0.0272  0.0826 -0.0062
  218loPI   C1B 3485  15.761   4.949   8.977  0.0423 -0.0792  0.1892
  218loPI   C2B 3486  15.567   5.003   8.575  0.0675  0.4797 -0.0181
  218loPI   C3B 3487  15.574   5.123   8.145 -0.0088 -0.1710 -0.2803
  218loPI   C4B 3488  15.641   5.412   7.714 -0.2432  0.0629 -0.0038
  219loPI    C1 3489   6.442   2.225   9.731  0.1304  0.1750 -0.1270
  219loPI    C2 3490   6.742   1.981   9.834 -0.2270 -0.1982  0.0582
  219loPI    C3 3491   6.617   2.262  10.089  0.0811  0.0826 -0.0930
  219loPI   PO4 3492   6.401   2.063   9.494  0.3511 -0.1054 -0.0755
  219loPI   GL1 3493   6.355   2.185   9.024 -0.0162  0.0631 -0.2616
  219loPI   GL2 3494   6.138   2.009   8.828  0.1576  0.0383 -0.0743
  219loPI   C1A 3495   6.391   2.457   8.778  0.0764  0.0125  0.1778
  219loPI   C2A 3496   6.202   2.821   8.703  0.0467 -0.0348 -0.1165
  219loPI   C3A 3497   6.068   3.100   8.366 -0.3603 -0.0455 -0.2028
  219loPI   C4A 3498   6.244   3.249   8.046 -0.1133  0.0140  0.0015
  219loPI   C5A 3499   6.638   3.304   7.787  0.1693  0.1306  0.1002
  219loPI   C6A 3500   6.819   2.903   7.592 -0.0058 -0.2227 -0.2442
  219loPI   C1B 3501   6.237   2.154   8.440  0.4595 -0.0557  0.2154
  219loPI   C2B 3502   6.363   2.582   8.287 -0.4175 -0.0201 -0.2728
  219loPI   C3B 3503   6.542   2.860   8.159  0.2650 -0.0200 -0.1227
  219loPI   C4B 3504   6.679   3.311   8.281 -0.0791  0.1414 -0.1060
  220loPI    C1 3505  10.627   1.117   9.609  0.0086  0.0592  0.0191
  220loPI    C2 3506  10.648   0.749   9.456 -0.3182  0.0518 -0.0160
  220loPI    C3 3507  10.479   0.807   9.814  0.1271  0.1144  0.1905
  220loPI   PO4 3508  10.580   1.258   9.327 -0.3384 -0.1093 -0.1467
  220loPI   GL1 3509  10.179   1.166   9.112 -0.0531 -0.0296 -0.0826
  220loPI   GL2 3510  10.214   0.855   9.209  0.3310  0.0744 -0.2693
  220loPI   C1A 3511  10.255   1.286   8.728 -0.0730  0.0229  0.0131
  220loPI   C2A 3512   9.998   1.080   8.428 -0.0433  0.1618  0.0472
  220loPI   C3A 3513  10.044   1.278   8.033  0.1047 -0.0096  0.3242
  220loPI   C4A 3514  10.063   1.295   7.624 -0.2253  0.0489 -0.1991
  220loPI   C5A 3515  10.215   1.251   7.196  0.2060  0.0860  0.1350
  220loPI   C6A 3516   9.928   1.150   6.864  0.0468  0.5141 -0.0103
  220loPI   C1B 3517  10.198   0.810   8.776 -0.1279 -0.2641  0.1125
  220loPI   C2B 3518  10.147   0.630   8.418 -0.2799  0.0207  0.0809
  220loPI   C3B 3519   9.949   0.293   8.097  0.1087  0.0591  0.1943
  220loPI   C4B 3520   9.816   0.272   7.653 -0.0585 -0.3588 -0.0648
  221loPI    C1 3521   1.874  14.816  10.099 -0.0623 -0.1137  0.1460
  221loPI    C2 3522   1.945  14.525  10.364  0.3247 -0.2795 -0.1305
  221loPI    C3 3523   1.816  14.882  10.489  0.0633 -0.4946  0.2335
  221loPI   PO4 3524   2.060  14.873   9.899 -0.1143  0.0782  0.1953
  221loPI   GL1 3525   1.930  14.982   9.441 -0.0345 -0.0340 -0.2490
  221loPI   GL2 3526   1.995  15.338   9.463 -0.0025 -0.0040  0.0012
  221loPI   C1A 3527   1.866  14.885   9.001  0.1662  0.0509 -0.1854
  221loPI   C2A 3528   1.720  14.906   8.545  0.0319 -0.0640  0.1484
  221loPI   C3A 3529   1.707  14.919   8.012 -0.1593  0.2450 -0.3111
  221loPI   C4A 3530   1.800  14.958   7.578  0.1265  0.1859 -0.4035
  221loPI   C5A 3531   1.745  15.067   7.174  0.0085  0.1017 -0.0817
  221loPI   C6A 3532   2.037  15.253   6.928  0.0902 -0.1260  0.1575
  221loPI   C1B 3533   1.770  15.400   9.058 -0.3523  0.0352  0.2804
  221loPI   C2B 3534   1.791  15.407   8.612 -0.1594 -0.3337 -0.1794
  221loPI   C3B 3535   1.977  15.247   8.256  0.4683 -0.3212 -0.0026
  221loPI   C4B 3536   1.961  15.364   7.833 -0.1874  0.1537  0.0306
  222loPI    C1 3537  16.109  19.445   9.883  0.2016  0.0258 -0.1748
  222loPI    C2 3538  16.141  19.833   9.974 -0.0834  0.0239 -0.0575
  222loPI    C3 3539  15.788  19.683   9.859  0.0685 -0.1625 -0.2898
  222loPI   PO4 3540  16.295  19.345   9.623  0.0471  0.1990  0.0960
  222loPI   GL1 3541  16.270  19.317   9.168  0.4308 -0.2589 -0.2323
  222loPI   GL2 3542  16.528  19.304   8.881 -0.2498  0.2215 -0.2369
  222loPI   C1A 3543  16.165  19.030   8.822 -0.2627 -0.1374 -0.0892
  222loPI   C2A 3544  16.041  19.025   8.447 -0.2601  0.2816  0.5305
  222loPI   C3A 3545  15.862  18.744   8.137 -0.0454 -0.1006  0.2546
  222loPI   C4A 3546  15.810  18.325   8.026  0.1800  0.0872 -0.1354
  222loPI   C5A 3547  15.879  18.144   7.619 -0.4056 -0.2586  0.1220
  222loPI   C6A 3548  15.860  17.788   7.354 -0.4039  0.2207 -0.1709
  222loPI   C1B 3549  16.683  19.492   8.564  0.0334 -0.0809 -0.0350
  222loPI   C2B 3550  16.671  19.757   8.206  0.0138 -0.0926 -0.0499
  222loPI   C3B 3551  16.549  19.855   7.773  0.1182  0.0413  0.2453
  222loPI   C4B 3552  16.331  20.035   7.505  0.1040 -0.0399 -0.1111
  223loPI    C1 3553   8.930   1.698   9.424 -0.0573  0.0249 -0.0021
  223loPI    C2 3554   9.256   1.576   9.621 -0.0288 -0.0203 -0.0768
  223loPI    C3 3555   8.901   1.578   9.805  0.0184  0.0582  0.0142
  223loPI   PO4 3556   9.059   1.802   9.231  0.1025 -0.0971  0.1021
  223loPI   GL1 3557   9.265   1.749   8.989  0.1737 -0.1592  0.1596
  223loPI   GL2 3558   9.411   1.601   8.814  0.1208 -0.0891  0.0625
  223loPI   C1A 3559   9.169   2.061   8.579  0.0299 -0.2060  0.0185
  223loPI   C2A 3560   8.945   2.198   8.106 -0.0907  0.1536 -0.1574
  223loPI   C3A 3561   8.759   2.296   7.714  0.1431 -0.2073  0.2826
  223loPI   C4A 3562   8.722   2.629   7.345  0.3631 -0.1258  0.0274
  223loPI   C5A 3563   8.957   2.875   7.031 -0.2071  0.0423 -0.1159
  223loPI   C6A 3564   9.237   3.252   6.740 -0.1357  0.0171 -0.1240
  223loPI   C1B 3565   9.547   1.790   8.369  0.0405 -0.1663 -0.0101
  223loPI   C2B 3566   9.491   1.965   7.988  0.1457 -0.0259 -0.3318
  223loPI   C3B 3567   9.524   2.100   7.621  0.2392  0.1307  0.1187
  223loPI   C4B 3568   9.724   2.184   7.267 -0.2407  0.2699  0.0554
  224loPI    C1 3569  11.489  14.031   9.562 -0.3118  0.1475 -0.2491
  224loPI    C2 3570  11.110  13.903   9.567 -0.1526 -0.3457  0.1463
  224loPI    C3 3571  11.261  14.093   9.885 -0.0220 -0.2881  0.0508
  224loPI   PO4 3572  11.641  13.889   9.363  0.2138  0.2715  0.1205
  224loPI   GL1 3573  11.827  14.111   9.068  0.1882 -0.1997  0.0885
  224loPI   GL2 3574  12.117  13.961   9.108 -0.1733 -0.4359  0.3650
  224loPI   C1A 3575  11.529  14.297   8.806  0.3838  0.0163 -0.0994
  224loPI   C2A 3576  11.510  14.217   8.417  0.6202  0.3029 -0.2917
  224loPI   C3A 3577  11.583  14.184   7.997  0.3101 -0.1423  0.1865
  224loPI   C4A 3578  11.563  14.231   7.527  0.0057  0.2787  0.0279
  224loPI   C5A 3579  11.457  14.449   7.137  0.4692  0.2001 -0.0622
  224loPI   C6A 3580  11.713  14.553   6.674 -0.0865  0.2217  0.0680
  224loPI   C1B 3581  11.888  13.885   8.623  0.0256 -0.2593  0.1831
  224loPI   C2B 3582  11.861  13.842   8.185  0.0282  0.0884  0.0909
  224loPI   C3B 3583  11.832  13.802   7.711 -0.2934  0.1023  0.0658
  224loPI   C4B 3584  11.867  13.714   7.355  0.2218 -0.3032  0.4052
  225loPI    C1 3585  14.431   0.333   9.650 -0.0661  0.0889 -0.0452
  225loPI    C2 3586  14.275   0.079   9.917  0.0047 -0.0050 -0.0923
  225loPI    C3 3587  14.121   0.446   9.875 -0.0950 -0.0384 -0.0203
  225loPI   PO4 3588  14.488   0.192   9.345  0.3929 -0.1579  0.0511
  225loPI   GL1 3589  14.328   0.180   8.972 -0.0299 -0.0789 -0.2725
  225loPI   GL2 3590  14.073   0.313   8.747  0.2287  0.0297  0.0731
  225loPI   C1A 3591  14.321  -0.091   8.691  0.3099  0.0970 -0.1532
  225loPI   C2A 3592  14.287  -0.067   8.231  0.1909 -0.0003 -0.1079
  225loPI   C3A 3593  14.143  -0.126   7.841  0.1541 -0.0721  0.1856
  225loPI   C4A 3594  14.154  -0.146   7.392 -0.0203  0.2734  0.1404
  225loPI   C5A 3595  14.081  -0.269   6.977  0.0771  0.1531 -0.0169
  225loPI   C6A 3596  13.725  -0.412   6.755  0.1092 -0.2990  0.0179
  225loPI   C1B 3597  14.167   0.418   8.297  0.0924 -0.1488  0.2875
  225loPI   C2B 3598  14.017   0.410   7.848 -0.0230 -0.0790  0.0844
  225loPI   C3B 3599  14.258   0.397   7.534  0.1161 -0.0253 -0.0869
  225loPI   C4B 3600  14.180   0.742   7.276  0.1628 -0.1500  0.6054
  226loPI    C1 3601   9.553  18.625   9.289  0.1138  0.0858 -0.1434
  226loPI    C2 3602   9.689  18.451   9.623  0.1163  0.0776 -0.1486
  226loPI    C3 3603   9.530  18.818   9.638 -0.1039 -0.0182 -0.0984
  226loPI   PO4 3604   9.742  18.654   9.051  0.2652  0.2360  0.0080
  226loPI   GL1 3605   9.715  18.533   8.571 -0.0493  0.1956  0.0532
  226loPI   GL2 3606   9.817  18.830   8.559 -0.4116  0.1962  0.2895
  226loPI   C1A 3607   9.670  18.728   8.063  0.1526  0.3060 -0.2063
  226loPI   C2A 3608   9.939  18.763   7.691  0.0823  0.0413 -0.0210
  226loPI   C3A 3609  10.083  18.770   7.192 -0.0379  0.2289  0.0952
  226loPI   C4A 3610   9.780  18.798   6.837  0.0629 -0.4904 -0.4556
  226loPI   C5A 3611   9.580  19.217   6.590 -0.1278 -0.4453  0.0562
  226loPI   C6A 3612   9.681  19.331   6.173  0.1438  0.4552 -0.2829
  226loPI   C1B 3613  10.155  18.736   8.226  0.0529  0.0639  0.1920
  226loPI   C2B 3614  10.326  18.479   7.907 -0.1505 -0.0893 -0.1175
  226loPI   C3B 3615  10.455  18.487   7.529 -0.0434  0.0819  0.2812
  226loPI   C4B 3616  10.507  18.322   7.141 -0.1167 -0.0248 -0.1337
  227loPI    C1 3617   4.019   3.268  10.009 -0.0934  0.2303  0.1728
  227loPI    C2 3618   4.092   2.889  10.115 -0.1007  0.0837 -0.3218
  227loPI    C3 3619   4.343   3.180  10.227 -0.0120 -0.0865 -0.0689
  227loPI   PO4 3620   3.843   3.443  10.127  0.1799  0.2520 -0.1671
  227loPI   GL1 3621   3.675   3.711   9.734 -0.1555  0.1171 -0.1714
  227loPI   GL2 3622   3.366   3.657   9.678  0.0344 -0.0005  0.0691
  227loPI   C1A 3623   3.799   3.740   9.356  0.0340  0.0555 -0.1023
  227loPI   C2A 3624   3.831   3.962   8.948  0.0824 -0.1153  0.1619
  227loPI   C3A 3625   3.862   3.656   8.541 -0.2028 -0.2128 -0.1746
  227loPI   C4A 3626   3.831   3.357   8.242  0.3476 -0.1591  0.1125
  227loPI   C5A 3627   3.999   3.044   8.371  0.0730 -0.0055 -0.1502
  227loPI   C6A 3628   4.380   2.888   8.606  0.1576 -0.0015  0.4924
  227loPI   C1B 3629   3.089   3.376   9.535  0.2042  0.0274 -0.1911
  227loPI   C2B 3630   2.719   3.346   9.226  0.1200 -0.1078  0.3176
  227loPI   C3B 3631   2.569   3.349   8.791  0.3122 -0.0393 -0.2155
  227loPI   C4B 3632   2.716   3.209   8.334 -0.3167 -0.2814  0.1100
  228loPI    C1 3633   3.300   5.679  10.365 -0.0647  0.1184  0.2924
  228loPI    C2 3634   3.305   5.362  10.609 -0.0929 -0.0817  0.0371
  228loPI    C3 3635   3.548   5.671  10.679  0.1529 -0.2899  0.1182
  228loPI   PO4 3636   3.313   5.589  10.075  0.2705 -0.2941 -0.0509
  228loPI   GL1 3637   3.223   5.410   9.614  0.2367 -0.3721 -0.3849
  228loPI   GL2 3638   3.246   5.742   9.608  0.1201  0.0686 -0.2575
  228loPI   C1A 3639   2.833   5.225   9.375 -0.0008  0.0551  0.0466
  228loPI   C2A 3640   2.661   5.149   8.943 -0.0515 -0.1394 -0.0167
  228loPI   C3A 3641   2.482   5.124   8.616 -0.2280  0.2271 -0.2730
  228loPI   C4A 3642   2.271   5.255   8.207  0.2348  0.3188  0.0403
  228loPI   C5A 3643   1.968   5.138   7.878 -0.1853 -0.1869 -0.0931
  228loPI   C6A 3644   1.526   4.987   7.804 -0.3785 -0.3856  0.0816
  228loPI   C1B 3645   2.849   5.746   9.226  0.0226  0.0249  0.1090
  228loPI   C2B 3646   2.843   5.928   8.835 -0.1472 -0.1158 -0.1671
  228loPI   C3B 3647   3.108   6.230   8.694  0.1156  0.2027  0.1578
  228loPI   C4B 3648   3.060   6.537   8.447 -0.1775  0.1006 -0.0979
  229loPI    C1 3649   3.838   4.016  10.291  0.1664 -0.1061 -0.1797
  229loPI    C2 3650   3.657   3.738  10.514 -0.1401 -0.0639 -0.3700
  229loPI    C3 3651   4.056   3.754  10.499 -0.1078  0.0392  0.3050
  229loPI   PO4 3652   3.669   3.988  10.123  0.2867  0.4836  0.2583
  229loPI   GL1 3653   3.523   4.232   9.773 -0.2865 -0.0268 -0.3595
  229loPI   GL2 3654   3.205   4.098   9.924  0.0456 -0.0874  0.0522
  229loPI   C1A 3655   3.322   4.103   9.402  0.0845  0.1181 -0.2963
  229loPI   C2A 3656   3.224   4.071   9.049  0.0704 -0.0420  0.1573
  229loPI   C3A 3657   3.152   4.220   8.690 -0.1837 -0.2549 -0.1744
  229loPI   C4A 3658   2.906   4.305   8.347  0.0936 -0.1245  0.0669
  229loPI   C5A 3659   2.571   4.598   8.262  0.0841  0.0635  0.0903
  229loPI   C6A 3660   2.181   4.743   8.269  0.0694 -0.1667 -0.2581
  229loPI   C1B 3661   2.911   4.297   9.598  0.0515  0.2019  0.1170
  229loPI   C2B 3662   2.688   4.272   9.176 -0.0169  0.0893  0.2406
  229loPI   C3B 3663   2.582   4.231   8.754  0.0275  0.0398  0.0181
  229loPI   C4B 3664   2.288   4.255   8.484 -0.3188 -0.2708  0.1247
  230loPI    C1 3665  16.242   7.057   9.479 -0.0320 -0.0072  0.2227
  230loPI    C2 3666  16.549   7.291   9.373 -0.0972  0.0984  0.2663
  230loPI    C3 3667  16.542   7.122   9.736  0.0290 -0.1035  0.1762
  230loPI   PO4 3668  16.061   7.190   9.455  0.2221 -0.0930 -0.0923
  230loPI   GL1 3669  15.984   7.183   9.034  0.0549 -0.1075  0.0582
  230loPI   GL2 3670  15.883   7.508   8.978 -0.2609 -0.0655 -0.4513
  230loPI   C1A 3671  16.103   7.072   8.580  0.1164 -0.1418  0.0154
  230loPI   C2A 3672  16.069   7.269   8.197  0.0358  0.0586 -0.5402
  230loPI   C3A 3673  16.139   7.206   7.793 -0.0133 -0.0079  0.1330
  230loPI   C4A 3674  16.162   7.152   7.341 -0.1296  0.1016 -0.2821
  230loPI   C5A 3675  16.231   7.099   6.961 -0.0664  0.2181  0.2311
  230loPI   C6A 3676  16.337   7.395   6.548  0.0503  0.2929 -0.0240
  230loPI   C1B 3677  16.145   7.528   8.698  0.1635 -0.0147  0.2578
  230loPI   C2B 3678  16.483   7.387   8.403 -0.3367 -0.0096  0.2950
  230loPI   C3B 3679  16.589   7.266   7.944 -0.1329 -0.0067  0.0869
  230loPI   C4B 3680  16.682   7.270   7.532 -0.0711 -0.1941 -0.0989
  231loPI    C1 3681   8.280   7.776  10.020 -0.1173  0.0017  0.1631
  231loPI    C2 3682   7.982   7.921  10.244 -0.0800  0.1507  0.1173
  231loPI    C3 3683   8.348   7.884  10.399 -0.1092  0.0200  0.1565
  231loPI   PO4 3684   8.102   7.843   9.722  0.0469 -0.0272 -0.1164
  231loPI   GL1 3685   8.117   7.825   9.199  0.1618 -0.0317  0.0357
  231loPI   GL2 3686   7.920   8.019   9.230 -0.0642 -0.2212 -0.1855
  231loPI   C1A 3687   8.043   7.723   8.830  0.1681 -0.3062  0.2339
  231loPI   C2A 3688   7.944   7.551   8.301 -0.1330 -0.0712  0.2009
  231loPI   C3A 3689   7.874   7.494   7.881 -0.4454 -0.0635 -0.2211
  231loPI   C4A 3690   7.614   7.640   7.593 -0.1657  0.0885 -0.0301
  231loPI   C5A 3691   7.682   7.941   7.155  0.1380  0.0419 -0.0980
  231loPI   C6A 3692   7.515   8.268   6.988  0.1315  0.4162 -0.1235
  231loPI   C1B 3693   7.573   8.054   8.930 -0.0691  0.1778 -0.3881
  231loPI   C2B 3694   7.246   8.042   8.608 -0.3317  0.2600 -0.1017
  231loPI   C3B 3695   6.940   7.795   8.393 -0.1859 -0.0449 -0.2274
  231loPI   C4B 3696   6.729   7.442   8.113 -0.2515  0.1741 -0.3966
  232loPI    C1 3697   8.901  18.221   9.731 -0.0384 -0.1552  0.0671
  232loPI    C2 3698   9.105  17.961   9.956 -0.0417 -0.1410  0.0864
  232loPI    C3 3699   9.276  18.305   9.843  0.0138 -0.2157 -0.0603
  232loPI   PO4 3700   8.850  18.091   9.502 -0.5295 -0.0554  0.3333
  232loPI   GL1 3701   8.596  18.249   9.163 -0.1777  0.2083 -0.2343
  232loPI   GL2 3702   8.786  17.921   9.008  0.0185  0.1446 -0.0076
  232loPI   C1A 3703   8.539  18.387   8.831  0.3505 -0.0785 -0.0669
  232loPI   C2A 3704   8.386  18.406   8.296 -0.0058  0.1021 -0.1625
  232loPI   C3A 3705   8.353  18.241   7.885  0.1037 -0.3316  0.0924
  232loPI   C4A 3706   8.368  18.215   7.412 -0.0628 -0.1397 -0.1499
  232loPI   C5A 3707   8.099  18.124   7.043  0.1684 -0.0338  0.0077
  232loPI   C6A 3708   7.845  17.892   6.751  0.2131 -0.1816  0.0831
  232loPI   C1B 3709   8.664  17.959   8.502  0.2753 -0.2363 -0.0944
  232loPI   C2B 3710   8.425  17.872   8.236 -0.4049  0.3201  0.0139
  232loPI   C3B 3711   8.291  17.814   7.743  0.1257  0.4423 -0.3774
  232loPI   C4B 3712   8.063  17.735   7.384  0.1814 -0.3417 -0.1675
  233loPI    C1 3713   5.178  10.229   9.651  0.2166  0.0343  0.4401
  233loPI    C2 3714   5.001   9.877   9.722  0.1819 -0.0415  0.0067
  233loPI    C3 3715   5.260  10.028   9.987 -0.0312 -0.2448  0.3384
  233loPI   PO4 3716   4.964  10.407   9.616 -0.1069 -0.2588 -0.4185
  233loPI   GL1 3717   4.583  10.178   9.463  0.3482  0.1492  0.2474
  233loPI   GL2 3718   4.535  10.065   9.600 -0.0360 -0.0007  0.1126
  233loPI   C1A 3719   4.596  10.437   9.039  0.2313 -0.1405  0.0075
  233loPI   C2A 3720   4.700  10.392   8.700  0.4145 -0.1804  0.2863
  233loPI   C3A 3721   4.711  10.427   8.220  0.0947 -0.0104  0.4403
  233loPI   C4A 3722   4.657  10.415   7.794 -0.0583  0.0504 -0.0435
  233loPI   C5A 3723   4.342  10.350   7.446 -0.0806 -0.0810 -0.0524
  233loPI   C6A 3724   4.637  10.313   7.116 -0.2884 -0.1344  0.0581
  233loPI   C1B 3725   4.437   9.761   9.277 -0.1931  0.0304 -0.0139
  233loPI   C2B 3726   4.622   9.820   8.973  0.2620  0.0425  0.0065
  233loPI   C3B 3727   4.689   9.942   8.602 -0.2770 -0.3721 -0.3172
  233loPI   C4B 3728   5.074   9.983   8.327  0.2112  0.3760  0.2423
  234loPI    C1 3729  18.362  17.137  10.199  0.0958 -0.0625  0.0965
  234loPI    C2 3730  18.310  17.476  10.405  0.0548 -0.1373  0.2103
  234loPI    C3 3731  18.027  17.350  10.153  0.0785 -0.0771  0.1532
  234loPI   PO4 3732  18.633  17.172  10.032  0.2592  0.3237 -0.0414
  234loPI   GL1 3733  18.773  17.214   9.565 -0.0664  0.0025 -0.3594
  234loPI   GL2 3734  19.123  17.263   9.598 -0.0707 -0.5243  0.2114
  234loPI   C1A 3735  18.593  17.401   9.104 -0.1669  0.2653 -0.1644
  234loPI   C2A 3736  18.504  17.559   8.762 -0.0805 -0.1185 -0.2824
  234loPI   C3A 3737  18.530  17.777   8.498  0.1827 -0.0221  0.1003
  234loPI   C4A 3738  18.811  17.945   8.112  0.1156  0.2595  0.0804
  234loPI   C5A 3739  18.969  17.910   7.715  0.1735 -0.1775  0.3066
  234loPI   C6A 3740  19.232  17.830   7.310  0.3469 -0.2015 -0.1835
  234loPI   C1B 3741  19.166  17.212   9.170 -0.0492  0.1072 -0.1965
  234loPI   C2B 3742  18.994  17.257   8.721 -0.0503  0.2368  0.1646
  234loPI   C3B 3743  18.954  17.326   8.307  0.0324  0.2797  0.2570
  234loPI   C4B 3744  19.040  17.044   7.976 -0.0056 -0.0229  0.1037
  235loPI    C1 3745  15.109   2.329   9.691 -0.2406  0.1716  0.0385
  235loPI    C2 3746  14.884   2.114   9.942  0.1425 -0.1012  0.1576
  235loPI    C3 3747  15.126   1.929   9.683  0.3206  0.1863  0.1148
  235loPI   PO4 3748  14.900   2.538   9.631  0.0659  0.0184 -0.3025
  235loPI   GL1 3749  14.661   2.666   9.242 -0.0003 -0.2890 -0.3385
  235loPI   GL2 3750  14.750   3.002   9.226  0.1621 -0.0716 -0.2346
  235loPI   C1A 3751  14.718   2.499   9.010 -0.0402  0.1948 -0.0081
  235loPI   C2A 3752  14.745   2.466   8.611 -0.1712  0.2365  0.2695
  235loPI   C3A 3753  14.873   2.490   8.208 -0.2122  0.0284 -0.1630
  235loPI   C4A 3754  14.990   2.749   7.851  0.1750  0.0072  0.3931
  235loPI   C5A 3755  14.664   2.851   7.671  0.1575 -0.3084 -0.0295
  235loPI   C6A 3756  14.288   2.709   7.489  0.1999 -0.0997  0.0666
  235loPI   C1B 3757  14.922   2.958   8.900  0.0107 -0.3308 -0.1581
  235loPI   C2B 3758  15.047   2.946   8.526  0.0321  0.1839  0.0555
  235loPI   C3B 3759  15.301   3.048   8.128 -0.2082  0.0935 -0.1583
  235loPI   C4B 3760  15.324   3.235   7.735 -0.0108  0.3240 -0.0600
  236loPI    C1 3761  16.542   9.566   9.551 -0.0188 -0.1346 -0.0901
  236loPI    C2 3762  16.714   9.291   9.785  0.1100  0.0679  0.0567
  236loPI    C3 3763  16.371   9.463   9.898 -0.2132 -0.3546 -0.2481
  236loPI   PO4 3764  16.507   9.456   9.254  0.0712 -0.2683 -0.2900
  236loPI   GL1 3765  16.575   9.207   8.869 -0.1035 -0.0585  0.3269
  236loPI   GL2 3766  16.471   9.431   8.638 -0.2181 -0.2088  0.1044
  236loPI   C1A 3767  16.700   9.007   8.457 -0.0003  0.0895 -0.1820
  236loPI   C2A 3768  16.511   8.898   8.087 -0.3959 -0.3324 -0.2925
  236loPI   C3A 3769  16.631   8.905   7.724  0.2322  0.4700 -0.1890
  236loPI   C4A 3770  16.938   8.869   7.473  0.0794 -0.0833 -0.3462
  236loPI   C5A 3771  17.098   9.161   7.375  0.0955 -0.3106 -0.0466
  236loPI   C6A 3772  16.991   9.403   7.085 -0.1226  0.2273  0.5599
  236loPI   C1B 3773  16.885   9.439   8.308  0.0862 -0.0406 -0.0028
  236loPI   C2B 3774  16.986   9.130   7.980 -0.1079  0.2215  0.2908
  236loPI   C3B 3775  17.378   8.978   7.726  0.2797  0.1190 -0.1378
  236loPI   C4B 3776  17.527   8.743   7.378 -0.2114  0.2730  0.2499
  237loPI    C1 3777   7.082  18.046  10.116  0.0247  0.0833  0.0864
  237loPI    C2 3778   7.066  17.745  10.380  0.1330 -0.0026 -0.0036
  237loPI    C3 3779   7.419  17.895  10.268  0.0927 -0.0341 -0.1761
  237loPI   PO4 3780   7.003  17.978   9.961 -0.3137 -0.1920  0.0128
  237loPI   GL1 3781   7.006  18.023   9.492 -0.1338 -0.2610  0.0038
  237loPI   GL2 3782   6.990  17.736   9.477 -0.0825 -0.3038  0.2122
  237loPI   C1A 3783   6.917  18.213   9.183 -0.1502 -0.0884  0.0622
  237loPI   C2A 3784   6.915  18.315   8.820 -0.1745  0.0594 -0.0619
  237loPI   C3A 3785   7.061  18.644   8.416  0.1120 -0.1801 -0.3402
  237loPI   C4A 3786   7.167  18.562   7.969 -0.2006  0.3841 -0.1696
  237loPI   C5A 3787   7.088  18.175   7.671  0.2552 -0.2265 -0.1787
  237loPI   C6A 3788   7.224  17.848   7.521 -0.0189 -0.0100  0.2943
  237loPI   C1B 3789   6.834  17.420   9.241  0.0905  0.2423  0.0941
  237loPI   C2B 3790   7.018  16.916   8.927  0.0340  0.0781  0.1391
  237loPI   C3B 3791   7.262  16.641   8.638  0.2235  0.1944  0.2166
  237loPI   C4B 3792   7.350  16.217   8.658  0.2870 -0.0231 -0.1479
  238loPI    C1 3793   6.957   8.723   9.819  0.2359  0.0720  0.0856
  238loPI    C2 3794   6.792   8.363   9.874  0.0548  0.1569  0.1054
  238loPI    C3 3795   7.041   8.514  10.149  0.2400 -0.0115  0.0317
  238loPI   PO4 3796   6.825   8.712   9.500  0.1600 -0.1701  0.1308
  238loPI   GL1 3797   6.608   8.615   9.155  0.1049  0.0135  0.2831
  238loPI   GL2 3798   6.606   8.976   9.090  0.1495  0.0833  0.0113
  238loPI   C1A 3799   6.710   8.661   8.758  0.0440  0.3983 -0.1731
  238loPI   C2A 3800   6.525   8.682   8.478  0.0224 -0.0101 -0.1743
  238loPI   C3A 3801   6.268   8.611   8.202  0.0164 -0.1301 -0.0378
  238loPI   C4A 3802   6.334   8.398   7.740  0.0844 -0.1606 -0.1364
  238loPI   C5A 3803   6.330   7.906   7.587  0.0430  0.0117  0.0369
  238loPI   C6A 3804   6.351   7.464   7.442 -0.1210  0.0328  0.0632
  238loPI   C1B 3805   6.431   9.144   8.693 -0.3162  0.0922  0.2515
  238loPI   C2B 3806   6.491   9.178   8.288  0.2778  0.2432 -0.2468
  238loPI   C3B 3807   6.495   8.951   7.895  0.1110 -0.0234  0.1452
  238loPI   C4B 3808   6.752   8.735   7.539 -0.2436 -0.0049  0.0047
  239loPI    C1 3809  16.924   4.550  10.105 -0.0281  0.0331 -0.1182
  239loPI    C2 3810  16.641   4.829  10.060 -0.0562  0.0098 -0.0875
  239loPI    C3 3811  16.561   4.493  10.263  0.0649  0.1095  0.1282
  239loPI   PO4 3812  16.966   4.499   9.797 -0.1756 -0.0033  0.3700
  239loPI   GL1 3813  17.239   4.544   9.459  0.3578  0.0848  0.0008
  239loPI   GL2 3814  17.160   4.220   9.383 -0.0994 -0.1527  0.1038
  239loPI   C1A 3815  17.308   4.646   9.018  0.0621  0.4201  0.0182
  239loPI   C2A 3816  17.474   4.847   8.668  0.2674  0.2064  0.0771
  239loPI   C3A 3817  17.836   4.986   8.465 -0.1088  0.1157  0.3688
  239loPI   C4A 3818  18.062   5.314   8.226 -0.0327  0.0531 -0.1797
  239loPI   C5A 3819  18.140   5.346   7.826  0.1646  0.0836  0.4453
  239loPI   C6A 3820  18.113   5.287   7.343 -0.3947  0.1958 -0.0885
  239loPI   C1B 3821  17.287   4.038   9.091 -0.2590 -0.0237  0.3026
  239loPI   C2B 3822  17.527   3.803   8.771  0.2092 -0.1453  0.0387
  239loPI   C3B 3823  17.674   3.543   8.529 -0.0019  0.1382 -0.1657
  239loPI   C4B 3824  17.897   3.207   8.679 -0.0948  0.0327  0.0620
  240loPI    C1 3825   9.506   4.970  10.059 -0.1631  0.0509  0.1395
  240loPI    C2 3826   9.641   4.596  10.099 -0.2160  0.0106 -0.0463
  240loPI    C3 3827   9.862   4.904  10.228 -0.1190 -0.0773 -0.0011
  240loPI   PO4 3828   9.468   5.046   9.817  0.1577 -0.1235  0.4682
  240loPI   GL1 3829   9.294   5.048   9.530 -0.2552  0.4427  0.4481
  240loPI   GL2 3830   9.091   5.272   9.372  0.3675  0.1773  0.0750
  240loPI   C1A 3831   9.447   5.190   9.087  0.3915  0.0422 -0.0563
  240loPI   C2A 3832   9.269   5.211   8.645  0.1884 -0.2732  0.0822
  240loPI   C3A 3833   9.137   4.957   8.386 -0.0457 -0.3276  0.1184
  240loPI   C4A 3834   8.992   4.917   8.054 -0.4693  0.0276 -0.1023
  240loPI   C5A 3835   8.725   4.908   7.646 -0.1159 -0.3040  0.2975
  240loPI   C6A 3836   8.354   4.962   7.505  0.1649 -0.3484 -0.0592
  240loPI   C1B 3837   8.914   5.124   8.970 -0.2229  0.0845 -0.0584
  240loPI   C2B 3838   8.676   4.966   8.580  0.1852  0.0954 -0.2709
  240loPI   C3B 3839   8.479   4.953   8.194  0.1280 -0.1437 -0.0060
  240loPI   C4B 3840   8.436   5.287   7.936 -0.0686  0.1258  0.1907
  241loPI    C1 3841  14.471   5.631   9.713 -0.1769  0.2445  0.0260
  241loPI    C2 3842  14.248   5.315   9.609  0.1455 -0.0427  0.1899
  241loPI    C3 3843  14.387   5.348   9.983  0.1796  0.2552  0.1532
  241loPI   PO4 3844  14.557   5.671   9.493 -0.4217  0.2152 -0.0269
  241loPI   GL1 3845  14.644   5.568   9.142 -0.0556  0.2061 -0.1659
  241loPI   GL2 3846  14.472   5.235   9.185 -0.0646 -0.4095 -0.0588
  241loPI   C1A 3847  14.393   5.472   8.765  0.0436 -0.1769  0.0833
  241loPI   C2A 3848  14.226   5.508   8.382 -0.0776  0.2433 -0.1857
  241loPI   C3A 3849  14.290   5.489   8.082 -0.2161 -0.0723 -0.1920
  241loPI   C4A 3850  14.162   5.421   7.709  0.1360  0.0498  0.2255
  241loPI   C5A 3851  13.946   5.514   7.243  0.1773 -0.0159  0.1001
  241loPI   C6A 3852  14.102   5.605   6.959  0.1117  0.1322  0.1804
  241loPI   C1B 3853  14.340   4.994   8.747 -0.3549 -0.2155  0.2778
  241loPI   C2B 3854  14.313   5.009   8.319 -0.0351 -0.1484  0.0910
  241loPI   C3B 3855  14.310   4.931   7.969 -0.1943  0.3998  0.4026
  241loPI   C4B 3856  14.399   4.689   7.656 -0.0977 -0.1122 -0.0877
  242loPI    C1 3857  17.810   1.034  10.054 -0.1291 -0.0116 -0.1678
  242loPI    C2 3858  17.675   0.658  10.063 -0.2534  0.0365  0.1427
  242loPI    C3 3859  17.534   0.926  10.324  0.0612  0.2217  0.1272
  242loPI   PO4 3860  18.010   0.995  10.021 -0.3097 -0.0739  0.0755
  242loPI   GL1 3861  18.357   1.264   9.789  0.2727  0.1133  0.2286
  242loPI   GL2 3862  18.085   1.220   9.600  0.3384  0.0423 -0.3964
  242loPI   C1A 3863  18.512   0.934   9.403 -0.2613  0.4688  0.1734
  242loPI   C2A 3864  18.673   1.059   9.028  0.3045  0.0147  0.3540
  242loPI   C3A 3865  18.738   1.028   8.580 -0.0363 -0.0762 -0.1518
  242loPI   C4A 3866  18.914   0.925   8.141  0.1379 -0.2269  0.0177
  242loPI   C5A 3867  18.734   0.739   7.688 -0.0047 -0.1652 -0.0125
  242loPI   C6A 3868  18.775   0.302   7.471 -0.1874 -0.1917 -0.1018
  242loPI   C1B 3869  18.274   1.334   9.171 -0.2269 -0.0618  0.0095
  242loPI   C2B 3870  18.358   1.420   8.716 -0.1400 -0.1496  0.0315
  242loPI   C3B 3871  18.406   1.444   8.355  0.4078 -0.2097  0.1520
  242loPI   C4B 3872  18.718   1.495   8.143  0.1003  0.0971 -0.0091
  243loPI    C1 3873  15.819  16.924   9.368  0.1027  0.2346 -0.0771
  243loPI    C2 3874  15.471  16.949   9.564  0.1908  0.0001  0.1156
  243loPI    C3 3875  15.747  17.235   9.610 -0.0190  0.2496 -0.1321
  243loPI   PO4 3876  15.862  16.817   9.120  0.2916  0.0589  0.0731
  243loPI   GL1 3877  15.770  16.574   8.876  0.2499  0.5475  0.3533
  243loPI   GL2 3878  15.546  16.504   8.727 -0.4036 -0.0114  0.0423
  243loPI   C1A 3879  15.907  16.749   8.463  0.0510 -0.1656  0.1610
  243loPI   C2A 3880  15.860  16.918   8.025 -0.0457 -0.1857  0.4290
  243loPI   C3A 3881  16.025  17.064   7.670 -0.1448 -0.0769 -0.5198
  243loPI   C4A 3882  16.120  17.396   7.440  0.0651  0.2069  0.0059
  243loPI   C5A 3883  16.348  17.609   7.083  0.1607  0.0379 -0.3483
  243loPI   C6A 3884  16.509  18.039   6.838  0.2073 -0.0228  0.1737
  243loPI   C1B 3885  15.231  16.417   8.286  0.0334  0.2266 -0.2869
  243loPI   C2B 3886  15.346  16.363   7.814 -0.0348 -0.1743 -0.3145
  243loPI   C3B 3887  15.458  16.436   7.461  0.0373  0.2406  0.1527
  243loPI   C4B 3888  15.662  16.250   7.148  0.1610  0.1166  0.1744
  244loPI    C1 3889  12.079   9.470  10.321 -0.1860  0.0837  0.2007
  244loPI    C2 3890  12.369   9.268  10.134  0.1779  0.4563  0.3475
  244loPI    C3 3891  12.142   9.085  10.408 -0.0347  0.0393 -0.0918
  244loPI   PO4 3892  11.822   9.631  10.009  0.0063 -0.1094 -0.2878
  244loPI   GL1 3893  11.935   9.717   9.587  0.1795  0.0233 -0.1253
  244loPI   GL2 3894  12.172   9.457   9.498 -0.0583  0.0143  0.0891
  244loPI   C1A 3895  12.014   9.836   9.062 -0.1136 -0.1233  0.0899
  244loPI   C2A 3896  11.939   9.868   8.547  0.0780  0.1127  0.3560
  244loPI   C3A 3897  11.764   9.945   8.242 -0.0759  0.2798  0.1837
  244loPI   C4A 3898  11.471  10.011   7.856  0.1542  0.2528 -0.1904
  244loPI   C5A 3899  11.446   9.937   7.421 -0.0584 -0.3467 -0.0665
  244loPI   C6A 3900  11.098   9.728   7.220  0.0914 -0.2690 -0.2171
  244loPI   C1B 3901  12.169   9.341   9.040  0.1577  0.2454 -0.1219
  244loPI   C2B 3902  11.852   9.428   8.750 -0.0935  0.0844 -0.3173
  244loPI   C3B 3903  11.886   9.388   8.309  0.2389  0.1800 -0.1333
  244loPI   C4B 3904  12.022   9.435   7.814 -0.0525 -0.0808  0.0026
  245loPI    C1 3905  18.217   7.415  10.174  0.3040  0.2076 -0.0500
  245loPI    C2 3906  17.959   7.541  10.452  0.1219 -0.2049 -0.0257
  245loPI    C3 3907  18.347   7.509  10.540  0.0813 -0.2310  0.1482
  245loPI   PO4 3908  18.106   7.400   9.987 -0.1189  0.0245  0.3553
  245loPI   GL1 3909  17.857   7.355   9.717 -0.2304  0.2024 -0.2674
  245loPI   GL2 3910  17.534   7.469   9.594 -0.2032 -0.1813  0.1603
  245loPI   C1A 3911  18.045   7.368   9.260 -0.2502 -0.1476  0.0783
  245loPI   C2A 3912  18.208   7.393   8.878 -0.2070  0.0788  0.3770
  245loPI   C3A 3913  18.098   7.434   8.475 -0.1857  0.0070  0.2271
  245loPI   C4A 3914  18.051   7.611   8.139  0.2282 -0.1134  0.1776
  245loPI   C5A 3915  18.104   7.855   7.688 -0.0304  0.1037 -0.0266
  245loPI   C6A 3916  18.041   8.137   7.348 -0.0059  0.1864 -0.1008
  245loPI   C1B 3917  17.554   7.408   9.217  0.4371  0.2908 -0.0209
  245loPI   C2B 3918  17.602   7.316   8.784 -0.2295  0.1621  0.1254
  245loPI   C3B 3919  17.695   7.170   8.393  0.0447 -0.1213 -0.0324
  245loPI   C4B 3920  17.980   7.065   8.101  0.1591  0.2519 -0.0703
  246loPI    C1 3921  11.574   7.609   9.804  0.2227  0.3376 -0.2560
  246loPI    C2 3922  11.330   7.790  10.065  0.1303  0.1027 -0.1766
  246loPI    C3 3923  11.681   7.641  10.188  0.1663  0.1482 -0.2232
  246loPI   PO4 3924  11.652   7.779   9.602 -0.0782 -0.0838  0.0660
  246loPI   GL1 3925  11.747   7.838   9.136  0.0725  0.2326 -0.1124
  246loPI   GL2 3926  11.458   7.668   9.165 -0.4066  0.0249 -0.3893
  246loPI   C1A 3927  11.569   8.045   8.831 -0.0257 -0.2427  0.0617
  246loPI   C2A 3928  11.451   8.040   8.401 -0.5016 -0.1035  0.4374
  246loPI   C3A 3929  11.374   7.992   8.004  0.1847  0.1056 -0.1356
  246loPI   C4A 3930  11.471   8.205   7.612 -0.1085 -0.1573  0.3454
  246loPI   C5A 3931  11.314   8.204   7.262  0.0914  0.0463 -0.1684
  246loPI   C6A 3932  10.946   8.328   7.009 -0.1066 -0.2128 -0.1777
  246loPI   C1B 3933  11.362   7.401   8.755  0.1482 -0.0212 -0.0144
  246loPI   C2B 3934  11.531   7.119   8.429 -0.0863  0.0095  0.0790
  246loPI   C3B 3935  11.666   6.748   8.272  0.0464  0.1578  0.2694
  246loPI   C4B 3936  11.812   6.609   7.923 -0.0729  0.2326 -0.2539
  247loPI    C1 3937   9.949   2.861   9.469 -0.0880  0.3383 -0.0401
  247loPI    C2 3938   9.805   3.154   9.700 -0.0830  0.1383  0.2201
  247loPI    C3 3939  10.021   2.858   9.862 -0.3281 -0.1634  0.0077
  247loPI   PO4 3940  10.071   2.918   9.259  0.0558 -0.0915  0.1335
  247loPI   GL1 3941  10.136   3.181   8.942 -0.0127 -0.0889 -0.0892
  247loPI   GL2 3942  10.215   3.505   8.893  0.1586  0.1781 -0.2949
  247loPI   C1A 3943   9.840   3.152   8.611  0.1214  0.0887 -0.2220
  247loPI   C2A 3944   9.890   3.209   8.168 -0.0735  0.3324 -0.4484
  247loPI   C3A 3945   9.913   3.184   7.802 -0.3786  0.0074 -0.0104
  247loPI   C4A 3946  10.222   3.265   7.597  0.0646 -0.2873  0.1735
  247loPI   C5A 3947  10.251   3.115   7.124 -0.4276 -0.0369 -0.0421
  247loPI   C6A 3948  10.386   2.745   6.834 -0.0076  0.5533  0.1490
  247loPI   C1B 3949  10.330   3.473   8.504  0.0987  0.1840  0.1419
  247loPI   C2B 3950  10.338   3.475   8.044 -0.3520  0.2979  0.1736
  247loPI   C3B 3951  10.663   3.566   7.691  0.1893  0.4251  0.0474
  247loPI   C4B 3952  10.581   3.496   7.211  0.4723  0.1368 -0.3629
  248loPI    C1 3953  12.634  13.128   9.460  0.0981 -0.0521  0.0820
  248loPI    C2 3954  12.698  13.299   9.816 -0.0603  0.0124  0.0803
  248loPI    C3 3955  12.558  12.925   9.796 -0.0799  0.0193  0.0860
  248loPI   PO4 3956  12.795  13.096   9.325  0.1002 -0.0257 -0.3459
  248loPI   GL1 3957  12.712  12.930   8.983 -0.0068 -0.1908 -0.4569
  248loPI   GL2 3958  12.415  13.008   8.741 -0.0101  0.2137  0.0967
  248loPI   C1A 3959  12.858  12.622   8.591 -0.0507 -0.1374  0.2304
  248loPI   C2A 3960  12.861  12.524   8.191 -0.1171  0.3312 -0.1584
  248loPI   C3A 3961  13.034  12.773   7.823 -0.2374  0.0123 -0.0770
  248loPI   C4A 3962  13.213  12.971   7.407  0.2590  0.0906 -0.1524
  248loPI   C5A 3963  12.977  13.411   7.185  0.0544 -0.1769  0.0515
  248loPI   C6A 3964  12.671  13.740   7.167  0.0518 -0.2426 -0.1481
  248loPI   C1B 3965  12.562  13.039   8.339  0.0575  0.1499  0.1235
  248loPI   C2B 3966  12.519  12.909   7.931  0.1195  0.0279  0.4077
  248loPI   C3B 3967  12.560  12.626   7.683 -0.0278  0.3185  0.0165
  248loPI   C4B 3968  12.497  12.263   7.458 -0.0225 -0.0792 -0.1689
  249loPI    C1 3969  10.389  10.693   9.645  0.0869  0.0965  0.1373
  249loPI    C2 3970  10.102  10.865   9.864  0.1055  0.2164  0.0686
  249loPI    C3 3971  10.292  10.541  10.003 -0.0632  0.1351  0.1137
  249loPI   PO4 3972  10.283  10.791   9.333  0.0022 -0.0174 -0.2772
  249loPI   GL1 3973  10.073  10.758   9.080 -0.0920 -0.1759 -0.3345
  249loPI   GL2 3974   9.905  10.560   8.865  0.2091  0.1954 -0.0651
  249loPI   C1A 3975  10.174  10.963   8.730  0.0229  0.1660  0.0250
  249loPI   C2A 3976  10.455  10.996   8.296 -0.0396 -0.3026  0.0580
  249loPI   C3A 3977  10.237  11.039   7.871 -0.0259 -0.0153  0.1732
  249loPI   C4A 3978  10.151  10.831   7.542 -0.2893  0.1354  0.0163
  249loPI   C5A 3979  10.253  10.601   7.273 -0.1130  0.3653  0.1401
  249loPI   C6A 3980  10.480  10.378   7.118  0.3463  0.2424  0.0260
  249loPI   C1B 3981   9.804  10.458   8.413  0.1798 -0.0086  0.3398
  249loPI   C2B 3982   9.775  10.647   7.921 -0.2406  0.0235 -0.1120
  249loPI   C3B 3983   9.713  10.988   7.718  0.1525 -0.2558 -0.0993
  249loPI   C4B 3984   9.418  11.314   7.692 -0.2529 -0.1300  0.1528
  250loPI    C1 3985  16.869  10.073   9.976 -0.2682 -0.0940 -0.3409
  250loPI    C2 3986  16.732   9.746  10.162  0.0105 -0.1022 -0.1425
  250loPI    C3 3987  16.673  10.107  10.323  0.0708 -0.0907 -0.1458
  250loPI   PO4 3988  16.895   9.961   9.703 -0.1525 -0.1417  0.0667
  250loPI   GL1 3989  16.965  10.121   9.289 -0.1105 -0.0234 -0.0164
  250loPI   GL2 3990  16.866   9.865   9.150 -0.2142 -0.1376  0.0097
  250loPI   C1A 3991  17.339   9.959   9.195 -0.0401 -0.2291 -0.0544
  250loPI   C2A 3992  17.594   9.823   8.780 -0.0417  0.1330 -0.5327
  250loPI   C3A 3993  17.689   9.949   8.369  0.1492 -0.1116 -0.0712
  250loPI   C4A 3994  17.975  10.274   8.170  0.0494 -0.0538  0.4683
  250loPI   C5A 3995  18.302  10.385   8.186  0.0072  0.0677 -0.1871
  250loPI   C6A 3996  18.609  10.525   8.513  0.0089 -0.1780 -0.0553
  250loPI   C1B 3997  16.997   9.664   8.833 -0.1727  0.0188 -0.0296
  250loPI   C2B 3998  17.221   9.759   8.475 -0.1313  0.0203 -0.1222
  250loPI   C3B 3999  17.453   9.532   8.235 -0.3074 -0.1249  0.4217
  250loPI   C4B 4000  17.594   9.415   7.854  0.0066  0.0600 -0.0651
  251loPI    C1 4001   2.000  18.792  10.137  0.0378  0.2794  0.0294
  251loPI    C2 4002   1.987  18.923  10.515 -0.4313 -0.0733  0.1443
  251loPI    C3 4003   1.673  18.977  10.274 -0.2110 -0.0277 -0.1378
  251loPI   PO4 4004   2.139  18.942   9.951  0.2834  0.4797 -0.3972
  251loPI   GL1 4005   2.298  18.880   9.610  0.3198  0.1816  0.2506
  251loPI   GL2 4006   2.206  19.075   9.429 -0.2920 -0.3205 -0.0964
  251loPI   C1A 4007   2.591  18.767   9.318 -0.1009 -0.1273 -0.1361
  251loPI   C2A 4008   2.639  18.640   8.933  0.2875 -0.0965  0.0352
  251loPI   C3A 4009   2.747  18.659   8.495  0.0851 -0.2222  0.0769
  251loPI   C4A 4010   2.464  18.717   8.238 -0.0094  0.2999  0.3214
  251loPI   C5A 4011   2.101  18.668   8.005  0.1260  0.1446 -0.0575
  251loPI   C6A 4012   2.022  18.242   7.850 -0.1114  0.2808  0.1504
  251loPI   C1B 4013   2.050  19.197   8.997  0.0304  0.3132  0.2557
  251loPI   C2B 4014   1.756  19.419   8.668 -0.0327  0.2018 -0.0464
  251loPI   C3B 4015   1.387  19.448   8.397  0.2209  0.3038 -0.0393
  251loPI   C4B 4016   1.177  19.292   8.073  0.0600  0.1165  0.0119
  252loPI    C1 4017  12.033  15.740   9.659  0.2091 -0.0469  0.0363
  252loPI    C2 4018  12.235  15.576   9.963 -0.0294 -0.0376  0.2029
  252loPI    C3 4019  11.856  15.468   9.893 -0.0237  0.0696 -0.0013
  252loPI   PO4 4020  12.197  15.735   9.498  0.0593  0.1676  0.5528
  252loPI   GL1 4021  12.117  15.586   9.112  0.2206  0.0657  0.0257
  252loPI   GL2 4022  12.382  15.455   8.978 -0.0505  0.2302  0.1454
  252loPI   C1A 4023  11.984  15.621   8.742 -0.1161  0.0240  0.2965
  252loPI   C2A 4024  11.986  15.674   8.290  0.0730 -0.1197  0.1059
  252loPI   C3A 4025  11.898  15.643   7.801  0.1294 -0.0794 -0.3009
  252loPI   C4A 4026  11.522  15.551   7.478 -0.2541  0.1544 -0.0920
  252loPI   C5A 4027  11.289  15.342   7.099 -0.0254 -0.0554  0.3173
  252loPI   C6A 4028  11.100  15.362   6.760  0.1281 -0.1552  0.2086
  252loPI   C1B 4029  12.568  15.640   8.643 -0.1577  0.1808  0.2947
  252loPI   C2B 4030  12.478  15.718   8.160 -0.0157 -0.0602 -0.0927
  252loPI   C3B 4031  12.364  15.668   7.714  0.2897  0.2672  0.0270
  252loPI   C4B 4032  12.263  15.865   7.316  0.1982  0.2013 -0.0923
  253loPI    C1 4033  11.253  14.701  10.209 -0.0155  0.1388  0.0320
  253loPI    C2 4034  11.015  14.379  10.213 -0.0298  0.1504  0.1633
  253loPI    C3 4035  11.408  14.338  10.272 -0.0552  0.1751  0.3558
  253loPI   PO4 4036  11.103  14.908   9.885  0.2706  0.0861 -0.0151
  253loPI   GL1 4037  11.297  14.915   9.438 -0.2738  0.0157 -0.0985
  253loPI   GL2 4038  11.041  14.853   9.394  0.2451 -0.1749 -0.2301
  253loPI   C1A 4039  11.398  15.003   9.056  0.1381 -0.0219 -0.1635
  253loPI   C2A 4040  11.285  14.987   8.556  0.1876  0.0312 -0.0013
  253loPI   C3A 4041  11.225  15.156   8.220  0.1930  0.2361  0.1424
  253loPI   C4A 4042  11.118  15.042   7.828  0.0268 -0.1311  0.6420
  253loPI   C5A 4043  11.023  15.165   7.509  0.3640 -0.0944  0.2181
  253loPI   C6A 4044  10.914  15.558   7.247 -0.1385  0.2948  0.1849
  253loPI   C1B 4045  10.760  14.963   9.144  0.1149 -0.0988 -0.0535
  253loPI   C2B 4046  10.792  14.947   8.663  0.2130 -0.0798  0.1649
  253loPI   C3B 4047  10.657  14.959   8.302  0.1998  0.0118 -0.0181
  253loPI   C4B 4048  10.530  15.248   8.003  0.0282 -0.2229  0.0312
  254loPI    C1 4049   2.132  11.283   9.749  0.0045 -0.1622 -0.1254
  254loPI    C2 4050   2.521  11.347   9.814 -0.0467  0.2084 -0.1667
  254loPI    C3 4051   2.250  11.494  10.068 -0.1765  0.3025 -0.3570
  254loPI   PO4 4052   2.220  11.133   9.494 -0.0791 -0.0483 -0.0520
  254loPI   GL1 4053   2.213  11.192   9.066 -0.0003 -0.0191  0.2825
  254loPI   GL2 4054   1.973  10.958   9.083  0.0027 -0.0380  0.1017
  254loPI   C1A 4055   2.409  10.951   8.729  0.1428  0.0674  0.0138
  254loPI   C2A 4056   2.628  11.005   8.322 -0.2438 -0.2849 -0.2964
  254loPI   C3A 4057   2.679  10.989   7.924  0.1157 -0.2414  0.0956
  254loPI   C4A 4058   2.880  10.968   7.530 -0.3666  0.1028 -0.3036
  254loPI   C5A 4059   2.994  11.198   7.145  0.0778  0.5176  0.0051
  254loPI   C6A 4060   2.814  11.128   6.642  0.0313 -0.0200  0.0339
  254loPI   C1B 4061   1.683  11.122   8.784 -0.2716  0.2915  0.0580
  254loPI   C2B 4062   1.600  11.108   8.192  0.1977  0.2791  0.1154
  254loPI   C3B 4063   1.664  11.419   7.737  0.1007 -0.0221  0.2202
  254loPI   C4B 4064   1.779  11.475   7.279 -0.1188 -0.3621  0.1420
  255loPI    C1 4065  18.611   9.519  10.159 -0.2087 -0.0390  0.2529
  255loPI    C2 4066  18.924   9.503  10.407  0.0975  0.1042 -0.1138
  255loPI    C3 4067  18.713   9.172  10.329 -0.0550  0.0731  0.3924
  255loPI   PO4 4068  18.711   9.616   9.870 -0.0500  0.0721  0.2743
  255loPI   GL1 4069  18.794   9.501   9.532 -0.0947  0.1014 -0.2985
  255loPI   GL2 4070  18.470   9.257   9.282  0.1010 -0.0328 -0.1343
  255loPI   C1A 4071  18.995   9.326   9.159 -0.1623 -0.4238  0.1050
  255loPI   C2A 4072  18.887   9.023   8.910  0.2563  0.1556  0.3227
  255loPI   C3A 4073  18.960   8.899   8.453 -0.0168  0.0490  0.1956
  255loPI   C4A 4074  18.806   9.124   8.078 -0.1237  0.1000 -0.1441
  255loPI   C5A 4075  18.922   9.260   7.595 -0.0396 -0.3435  0.1466
  255loPI   C6A 4076  18.913   9.497   7.182 -0.0550  0.0714 -0.3509
  255loPI   C1B 4077  18.084   9.375   9.145 -0.0251 -0.0578 -0.0187
  255loPI   C2B 4078  18.040   9.479   8.716 -0.2396 -0.0640  0.0796
  255loPI   C3B 4079  17.904   9.379   8.433 -0.1464  0.0933 -0.0203
  255loPI   C4B 4080  17.853   8.984   8.125  0.1588  0.0210  0.0196
  256loPI    C1 4081   4.308   1.513  10.290  0.1787 -0.1100 -0.1978
  256loPI    C2 4082   4.612   1.772  10.317 -0.0952  0.1994 -0.0100
  256loPI    C3 4083   4.650   1.402  10.465  0.2781  0.1467 -0.2257
  256loPI   PO4 4084   4.310   1.545  10.028 -0.1980  0.1747 -0.1305
  256loPI   GL1 4085   4.416   1.502   9.721 -0.1922  0.2803 -0.1399
  256loPI   GL2 4086   4.204   1.301   9.497  0.0097  0.1951 -0.1394
  256loPI   C1A 4087   4.459   1.794   9.378 -0.2498  0.0913 -0.0425
  256loPI   C2A 4088   4.320   1.992   8.953  0.3528  0.1192 -0.0388
  256loPI   C3A 4089   4.263   2.111   8.512  0.0720 -0.1241  0.3329
  256loPI   C4A 4090   4.235   2.088   8.039 -0.2013 -0.2478  0.1655
  256loPI   C5A 4091   4.228   2.005   7.604 -0.0374  0.2004 -0.1749
  256loPI   C6A 4092   4.404   2.137   7.379 -0.4039 -0.0769 -0.3695
  256loPI   C1B 4093   4.280   1.317   9.044 -0.0254  0.0507 -0.0759
  256loPI   C2B 4094   4.388   1.335   8.594 -0.2383  0.0078  0.2482
  256loPI   C3B 4095   4.445   1.678   8.266 -0.4457 -0.1209 -0.1723
  256loPI   C4B 4096   4.608   1.742   7.850  0.0552  0.1993  0.3217
  257loPI    C1 4097  10.171  12.863   9.959 -0.0507  0.0446  0.0930
  257loPI    C2 4098  10.264  12.521   9.772 -0.0514  0.0139  0.1487
  257loPI    C3 4099  10.475  12.639  10.091 -0.0363  0.0772  0.1153
  257loPI   PO4 4100  10.127  13.012   9.699 -0.2093  0.0246  0.0258
  257loPI   GL1 4101   9.961  13.224   9.201  0.0751 -0.2546 -0.0778
  257loPI   GL2 4102   9.848  12.980   8.917  0.0692 -0.0076  0.1874
  257loPI   C1A 4103   9.884  13.537   8.940  0.1134 -0.3072  0.1096
  257loPI   C2A 4104  10.004  13.426   8.580 -0.2215 -0.0480 -0.1034
  257loPI   C3A 4105  10.011  13.117   8.225  0.3247 -0.0858 -0.1166
  257loPI   C4A 4106  10.377  13.128   7.976  0.1520  0.3847 -0.0072
  257loPI   C5A 4107  10.829  12.995   7.991  0.2907 -0.0791 -0.0883
  257loPI   C6A 4108  11.170  13.191   7.885 -0.0031  0.1943  0.0343
  257loPI   C1B 4109   9.680  13.006   8.550 -0.2228 -0.1124 -0.1884
  257loPI   C2B 4110   9.460  13.162   8.184  0.0757 -0.0962  0.2929
  257loPI   C3B 4111   9.472  13.104   7.801  0.1310  0.2492  0.3850
  257loPI   C4B 4112   9.548  12.895   7.338  0.1400  0.0964  0.3336
  258loPI    C1 4113  16.970   2.669  10.163 -0.1174  0.0291  0.0303
  258loPI    C2 4114  16.672   2.423  10.264 -0.0851  0.0181  0.0998
  258loPI    C3 4115  16.695   2.787  10.428 -0.0645  0.0217  0.0889
  258loPI   PO4 4116  17.075   2.513   9.947 -0.0322 -0.0934  0.1285
  258loPI   GL1 4117  17.401   2.358   9.653  0.0340 -0.1371  0.1749
  258loPI   GL2 4118  17.103   2.216   9.514  0.1556 -0.0020 -0.2107
  258loPI   C1A 4119  17.710   2.686   9.436  0.0636 -0.1060 -0.3093
  258loPI   C2A 4120  17.945   2.751   9.014 -0.0885 -0.0679  0.0307
  258loPI   C3A 4121  18.136   2.755   8.549 -0.2114 -0.1014 -0.1803
  258loPI   C4A 4122  18.086   2.477   8.161  0.2890  0.5664  0.1897
  258loPI   C5A 4123  18.328   2.413   7.704 -0.3559 -0.2401 -0.4087
  258loPI   C6A 4124  18.494   2.407   7.311  0.0690 -0.1316 -0.1396
  258loPI   C1B 4125  17.029   2.144   9.100 -0.4582 -0.0219  0.0635
  258loPI   C2B 4126  16.981   2.493   8.921 -0.0713  0.1273 -0.1955
  258loPI   C3B 4127  17.034   2.720   8.581 -0.3092  0.2601 -0.2337
  258loPI   C4B 4128  17.243   2.712   8.114  0.2173 -0.0630 -0.2018
  259loPI    C1 4129  18.158   0.540  10.206 -0.1156  0.1183  0.0148
  259loPI    C2 4130  18.210   0.357  10.558 -0.0212  0.1069 -0.0050
  259loPI    C3 4131  17.897   0.599  10.503 -0.1541 -0.0583  0.0174
  259loPI   PO4 4132  18.166   0.280   9.976 -0.1671  0.0562  0.0591
  259loPI   GL1 4133  18.407   0.233   9.629 -0.1372 -0.1625 -0.3327
  259loPI   GL2 4134  18.081   0.155   9.497  0.3354  0.2215  0.0165
  259loPI   C1A 4135  18.557   0.452   9.257  0.2131  0.1231  0.0348
  259loPI   C2A 4136  18.638   0.596   8.797  0.2163  0.1597 -0.0439
  259loPI   C3A 4137  18.710   0.537   8.352  0.1663 -0.1702 -0.0243
  259loPI   C4A 4138  18.969   0.369   7.965  0.0776  0.2943  0.0350
  259loPI   C5A 4139  19.268   0.178   7.858 -0.0199 -0.1114 -0.0830
  259loPI   C6A 4140  19.615   0.268   7.586 -0.0760 -0.3583  0.1005
  259loPI   C1B 4141  18.255   0.223   9.038  0.0510 -0.0661  0.0133
  259loPI   C2B 4142  18.422   0.102   8.567 -0.1937  0.4492  0.0682
  259loPI   C3B 4143  18.553   0.061   8.157  0.0988  0.1817  0.0534
  259loPI   C4B 4144  18.852  -0.155   8.006  0.0864  0.0123  0.1232
  260loPI    C1 4145   1.320   4.523  10.710 -0.1765 -0.2259  0.0394
  260loPI    C2 4146   1.607   4.404  10.962 -0.0409  0.0622  0.0247
  260loPI    C3 4147   1.628   4.765  10.790 -0.2611 -0.0323 -0.2070
  260loPI   PO4 4148   1.281   4.353  10.610 -0.0642  0.1116  0.0557
  260loPI   GL1 4149   1.278   4.243  10.231 -0.0837  0.1249  0.1718
  260loPI   GL2 4150   0.983   4.381  10.187 -0.0200 -0.2234  0.0258
  260loPI   C1A 4151   1.389   4.442   9.856 -0.0922  0.1601  0.1364
  260loPI   C2A 4152   1.599   4.456   9.365  0.3097  0.2144  0.3569
  260loPI   C3A 4153   1.639   4.456   8.934 -0.1969 -0.2759  0.2214
  260loPI   C4A 4154   1.738   4.415   8.548  0.0219 -0.2148 -0.1443
  260loPI   C5A 4155   1.806   4.268   8.263  0.0761 -0.1278 -0.1000
  260loPI   C6A 4156   1.444   4.015   8.350 -0.1354 -0.0961 -0.0362
  260loPI   C1B 4157   0.955   4.227   9.735  0.1782 -0.1490  0.2352
  260loPI   C2B 4158   1.094   4.535   9.401 -0.1056 -0.2133  0.2645
  260loPI   C3B 4159   1.156   4.786   9.022  0.2872 -0.1472 -0.0862
  260loPI   C4B 4160   1.376   4.833   8.641 -0.1791 -0.0768  0.0237
  261loPI    C1 4161  17.857   5.520  10.608 -0.0720  0.1375 -0.1026
  261loPI    C2 4162  18.004   5.881  10.516 -0.0060  0.1539  0.0644
  261loPI    C3 4163  18.202   5.643  10.770 -0.1664  0.0945  0.1353
  261loPI   PO4 4164  17.794   5.445  10.370 -0.1925  0.2859 -0.0391
  261loPI   GL1 4165  17.654   5.313   9.943 -0.0213  0.0720  0.1267
  261loPI   GL2 4166  17.529   5.609   9.838 -0.1901 -0.0839  0.1542
  261loPI   C1A 4167  17.953   5.084   9.547  0.0106 -0.3380  0.3220
  261loPI   C2A 4168  18.173   4.897   9.248 -0.0122  0.3351 -0.1256
  261loPI   C3A 4169  18.448   4.604   8.935  0.1414 -0.1900 -0.2171
  261loPI   C4A 4170  18.566   4.359   8.522 -0.0330  0.0032 -0.0032
  261loPI   C5A 4171  18.892   4.176   8.351  0.0035 -0.0284  0.1983
  261loPI   C6A 4172  19.021   4.148   7.861 -0.1244 -0.2850 -0.1431
  261loPI   C1B 4173  17.855   5.559   9.497 -0.1484 -0.1151 -0.0366
  261loPI   C2B 4174  18.079   5.961   9.142  0.1029  0.1424  0.2422
  261loPI   C3B 4175  18.158   5.946   8.719  0.0144  0.1103  0.1283
  261loPI   C4B 4176  18.180   6.020   8.300  0.0162 -0.3576  0.0747
  262loPI    C1 4177  10.525   3.691   9.884  0.0615 -0.1400  0.1326
  262loPI    C2 4178  10.398   4.054   9.994 -0.0132 -0.0589 -0.2099
  262loPI    C3 4179  10.679   3.867  10.208 -0.1644  0.0850  0.1211
  262loPI   PO4 4180  10.541   3.757   9.612 -0.0529 -0.1018 -0.2332
  262loPI   GL1 4181  10.760   3.917   9.166  0.1439 -0.0003  0.0341
  262loPI   GL2 4182  10.363   3.886   9.204  0.2132 -0.0510 -0.0206
  262loPI   C1A 4183  10.900   4.026   8.745 -0.0255  0.0578  0.1714
  262loPI   C2A 4184  11.014   4.251   8.350  0.0096  0.1362  0.0112
  262loPI   C3A 4185  11.072   4.551   8.054  0.3198 -0.2906 -0.0657
  262loPI   C4A 4186  11.172   4.749   7.611 -0.1489  0.0053 -0.3110
  262loPI   C5A 4187  11.342   5.074   7.575  0.0470 -0.2959 -0.2275
  262loPI   C6A 4188  11.601   5.090   7.354  0.0194 -0.2067 -0.1214
  262loPI   C1B 4189  10.417   3.920   8.735  0.2596  0.0653 -0.1320
  262loPI   C2B 4190  10.314   3.917   8.268  0.1205 -0.0587 -0.2020
  262loPI   C3B 4191  10.392   3.952   7.852 -0.2175 -0.0434 -0.1488
  262loPI   C4B 4192  10.569   3.970   7.460 -0.0368  0.0358  0.2364
  263loPI    C1 4193   5.815   1.594   9.708 -0.0733 -0.0898 -0.0476
  263loPI    C2 4194   5.912   1.305   9.967  0.1758 -0.0523 -0.0969
  263loPI    C3 4195   5.823   1.671  10.100  0.1589 -0.0719 -0.0543
  263loPI   PO4 4196   5.715   1.494   9.446 -0.2212  0.1767  0.1680
  263loPI   GL1 4197   5.511   1.400   9.137  0.3076 -0.2944  0.0927
  263loPI   GL2 4198   5.600   1.055   9.152 -0.0475 -0.1634  0.0618
  263loPI   C1A 4199   5.360   1.401   8.809 -0.4043  0.0301  0.0663
  263loPI   C2A 4200   5.444   1.425   8.420 -0.0312 -0.1138  0.1699
  263loPI   C3A 4201   5.496   1.620   8.051 -0.0940 -0.4067 -0.1569
  263loPI   C4A 4202   5.402   1.660   7.647  0.2874 -0.3336  0.0865
  263loPI   C5A 4203   5.096   1.540   7.507 -0.1769  0.3532  0.0239
  263loPI   C6A 4204   4.806   1.793   7.352  0.0792 -0.4880 -0.1012
  263loPI   C1B 4205   5.614   0.989   8.711  0.1272  0.2411 -0.1574
  263loPI   C2B 4206   5.646   0.936   8.327  0.0047 -0.2464  0.4418
  263loPI   C3B 4207   5.496   1.117   7.906  0.1644 -0.1037 -0.0510
  263loPI   C4B 4208   5.633   1.251   7.445  0.0617  0.0626  0.4639
  264loPI    C1 4209  14.650   4.171  10.037  0.0604 -0.0541  0.2986
  264loPI    C2 4210  14.477   3.829  10.154  0.1411 -0.2205 -0.0540
  264loPI    C3 4211  14.310   4.049   9.865  0.0525  0.0788  0.2190
  264loPI   PO4 4212  14.968   4.099   9.952 -0.0830  0.0455 -0.1962
  264loPI   GL1 4213  14.961   3.958   9.573  0.3394  0.1092  0.2730
  264loPI   GL2 4214  15.095   3.791   9.381  0.3041  0.2926  0.3723
  264loPI   C1A 4215  14.867   4.208   9.197 -0.1018 -0.2390 -0.1884
  264loPI   C2A 4216  14.793   4.241   8.779  0.1195  0.1197 -0.1337
  264loPI   C3A 4217  15.009   4.307   8.379  0.1282 -0.1942 -0.1485
  264loPI   C4A 4218  15.258   4.373   8.117 -0.0777  0.2555  0.0103
  264loPI   C5A 4219  15.396   4.319   7.718 -0.0676  0.0206 -0.2032
  264loPI   C6A 4220  15.484   4.395   7.394  0.0601  0.2295  0.1880
  264loPI   C1B 4221  15.263   3.925   9.018 -0.4674  0.1445 -0.0033
  264loPI   C2B 4222  15.401   4.029   8.582 -0.5060  0.2480 -0.0975
  264loPI   C3B 4223  15.691   4.045   8.222  0.0455  0.2582 -0.0891
  264loPI   C4B 4224  15.861   4.100   7.890  0.0454 -0.0947  0.1490
  265loPI    C1 4225   3.082   7.366  10.153 -0.2275 -0.2171  0.0828
  265loPI    C2 4226   3.200   7.594  10.460 -0.0041 -0.1867 -0.0237
  265loPI    C3 4227   2.827   7.626  10.320  0.1131  0.3415 -0.2362
  265loPI   PO4 4228   3.336   7.480   9.953 -0.1440  0.2701 -0.1744
  265loPI   GL1 4229   3.408   7.598   9.494 -0.2820  0.3136 -0.1224
  265loPI   GL2 4230   3.618   7.758   9.599 -0.1464 -0.1516  0.1686
  265loPI   C1A 4231   3.172   7.563   9.090  0.2187  0.2451 -0.1078
  265loPI   C2A 4232   2.971   7.446   8.714 -0.0490 -0.3113  0.0583
  265loPI   C3A 4233   2.725   7.590   8.336  0.3157  0.2454 -0.0712
  265loPI   C4A 4234   2.435   7.555   8.067  0.2750 -0.3115  0.2168
  265loPI   C5A 4235   2.100   7.617   7.759  0.0286 -0.1353  0.0842
  265loPI   C6A 4236   1.726   7.822   7.591  0.0455 -0.1321  0.0619
  265loPI   C1B 4237   3.634   7.739   9.035  0.1496  0.0425  0.0371
  265loPI   C2B 4238   3.489   7.597   8.690 -0.0047  0.6512  0.1586
  265loPI   C3B 4239   3.185   7.382   8.219  0.0000  0.0299  0.0588
  265loPI   C4B 4240   3.143   7.298   7.743 -0.1382 -0.2033 -0.2662
  266loPI    C1 4241   9.598  17.945   9.564 -0.1091 -0.1217 -0.1480
  266loPI    C2 4242   9.523  17.655   9.830 -0.0693 -0.1124 -0.1263
  266loPI    C3 4243   9.889  17.693   9.674 -0.0197  0.0563  0.0286
  266loPI   PO4 4244   9.358  17.961   9.416  0.1180 -0.0421 -0.1515
  266loPI   GL1 4245   9.227  18.215   9.049  0.1564 -0.0253  0.1882
  266loPI   GL2 4246   9.422  18.293   8.899 -0.0406  0.1215  0.1537
  266loPI   C1A 4247   8.982  18.283   8.664 -0.1088 -0.0083  0.0665
  266loPI   C2A 4248   8.888  18.274   8.188  0.1007 -0.2324  0.1734
  266loPI   C3A 4249   8.890  18.332   7.700  0.0284 -0.0261  0.3186
  266loPI   C4A 4250   8.761  18.552   7.365 -0.0483  0.0411 -0.3494
  266loPI   C5A 4251   8.510  19.050   7.439 -0.0906  0.1069 -0.1028
  266loPI   C6A 4252   8.643  19.381   7.265  0.1979  0.3393 -0.0405
  266loPI   C1B 4253   9.494  17.943   8.660  0.0116  0.1401  0.3467
  266loPI   C2B 4254   9.632  17.823   8.239 -0.2475 -0.3776 -0.0241
  266loPI   C3B 4255   9.777  17.746   7.921 -0.0717  0.0015  0.3248
  266loPI   C4B 4256   9.877  17.758   7.499  0.0455 -0.0224 -0.0697
  267loPI    C1 4257   3.390  17.529   9.931 -0.0494  0.3406  0.0583
  267loPI    C2 4258   3.312  17.403  10.303 -0.1429 -0.0370 -0.0850
  267loPI    C3 4259   3.270  17.790  10.210 -0.2632  0.0357  0.2579
  267loPI   PO4 4260   3.144  17.348   9.810  0.0619 -0.0215 -0.2563
  267loPI   GL1 4261   2.956  17.373   9.435  0.2242  0.0414 -0.2306
  267loPI   GL2 4262   3.253  17.414   9.307  0.1142 -0.1791  0.2701
  267loPI   C1A 4263   2.871  17.501   8.942 -0.3750  0.0391  0.0754
  267loPI   C2A 4264   2.761  17.460   8.586 -0.3341 -0.1381 -0.0518
  267loPI   C3A 4265   2.617  17.737   8.223 -0.4051 -0.2002  0.4156
  267loPI   C4A 4266   2.683  17.921   7.750  0.3017  0.0419  0.1432
  267loPI   C5A 4267   2.463  17.974   7.451  0.0210 -0.0300 -0.0391
  267loPI   C6A 4268   2.147  18.096   7.160 -0.3284  0.0310 -0.1379
  267loPI   C1B 4269   3.361  17.404   8.828 -0.1779  0.0858 -0.1123
  267loPI   C2B 4270   3.565  17.230   8.468 -0.1260  0.1227  0.0127
  267loPI   C3B 4271   3.737  17.116   8.174 -0.2613 -0.0169 -0.0716
  267loPI   C4B 4272   3.977  16.741   7.975  0.1203 -0.4718  0.1531
  268loPI    C1 4273   1.506  13.006   9.754 -0.2770 -0.0653  0.0945
  268loPI    C2 4274   1.305  13.190  10.046 -0.1522  0.0068  0.1358
  268loPI    C3 4275   1.523  12.865  10.127 -0.1650 -0.0077  0.1119
  268loPI   PO4 4276   1.565  13.150   9.593  0.1076  0.0139 -0.1227
  268loPI   GL1 4277   1.623  13.345   9.183 -0.1305  0.2965 -0.0266
  268loPI   GL2 4278   1.411  13.030   9.080  0.3633 -0.1740 -0.1925
  268loPI   C1A 4279   1.617  13.366   8.758  0.0268  0.1455 -0.2710
  268loPI   C2A 4280   1.543  13.409   8.363  0.1031  0.1185 -0.2181
  268loPI   C3A 4281   1.511  13.435   7.871 -0.1110 -0.0659 -0.0770
  268loPI   C4A 4282   1.694  13.360   7.464  0.1282  0.0593  0.0223
  268loPI   C5A 4283   1.499  13.080   7.101  0.1460  0.3944  0.1463
  268loPI   C6A 4284   1.372  12.631   7.224 -0.0593 -0.2790 -0.2494
  268loPI   C1B 4285   1.273  13.027   8.679  0.3328  0.0831  0.2207
  268loPI   C2B 4286   1.280  12.995   8.221 -0.3126 -0.0660 -0.3863
  268loPI   C3B 4287   1.277  12.924   7.774  0.0215 -0.2464 -0.0081
  268loPI   C4B 4288   1.032  12.774   7.515 -0.1355 -0.3149  0.1671
  269loPI    C1 4289   5.614  13.255   9.834 -0.0563 -0.1392 -0.0155
  269loPI    C2 4290   5.402  12.932   9.730 -0.1675 -0.0656 -0.0183
  269loPI    C3 4291   5.288  13.153  10.043 -0.1577  0.0364 -0.0863
  269loPI   PO4 4292   5.632  13.457   9.654  0.0183 -0.1527  0.0525
  269loPI   GL1 4293   5.522  13.502   9.292  0.4695 -0.0208  0.4015
  269loPI   GL2 4294   5.429  13.192   9.298  0.3899 -0.1432  0.2161
  269loPI   C1A 4295   5.393  13.585   8.929 -0.0017 -0.0928  0.2675
  269loPI   C2A 4296   5.372  13.470   8.442  0.1283 -0.2364 -0.0865
  269loPI   C3A 4297   5.494  13.424   8.043  0.1924 -0.2008 -0.0228
  269loPI   C4A 4298   5.546  13.230   7.620  0.0530 -0.1857 -0.0246
  269loPI   C5A 4299   5.764  13.076   7.255 -0.1701  0.0265 -0.1208
  269loPI   C6A 4300   6.124  12.644   7.161 -0.1436 -0.0682 -0.0398
  269loPI   C1B 4301   5.427  13.031   8.820 -0.0108  0.2445 -0.3344
  269loPI   C2B 4302   5.297  12.950   8.366  0.1274 -0.0592  0.0512
  269loPI   C3B 4303   5.203  12.529   7.985  0.0354 -0.0879 -0.0091
  269loPI   C4B 4304   5.064  12.401   7.531 -0.1919 -0.0141 -0.2652
  270loPI    C1 4305   9.181  15.824   9.535  0.0665  0.2081 -0.2324
  270loPI    C2 4306   9.477  15.857   9.802 -0.2224 -0.1351  0.1424
  270loPI    C3 4307   9.249  16.174   9.716  0.0126  0.0338  0.1335
  270loPI   PO4 4308   9.387  15.560   9.418 -0.1237 -0.0737 -0.0996
  270loPI   GL1 4309   9.227  15.285   9.020  0.1441 -0.0164 -0.0375
  270loPI   GL2 4310   8.952  15.584   8.975 -0.2001 -0.0047  0.0180
  270loPI   C1A 4311   9.142  15.262   8.620 -0.0805  0.1089  0.1110
  270loPI   C2A 4312   9.135  15.483   8.326  0.0513 -0.2063 -0.0251
  270loPI   C3A 4313   9.138  15.613   7.961  0.0393  0.1236  0.1422
  270loPI   C4A 4314   9.165  15.793   7.498  0.2316  0.1042  0.1605
  270loPI   C5A 4315   9.538  15.927   7.216  0.0809 -0.4504 -0.1308
  270loPI   C6A 4316   9.962  15.927   6.899 -0.0108  0.3097  0.0777
  270loPI   C1B 4317   8.960  15.870   8.671  0.0217  0.0981 -0.0338
  270loPI   C2B 4318   8.836  15.900   8.272 -0.0870 -0.2544 -0.0098
  270loPI   C3B 4319   8.970  16.065   7.875  0.0289 -0.0758 -0.2409
  270loPI   C4B 4320   8.867  16.192   7.379 -0.0079 -0.0821  0.0125
  271loPI    C1 4321  16.830  19.347   9.910  0.1815  0.0114 -0.0617
  271loPI    C2 4322  16.919  19.462  10.283 -0.0161 -0.2030  0.0540
  271loPI    C3 4323  16.584  19.593  10.108 -0.1134 -0.3982  0.0927
  271loPI   PO4 4324  16.944  19.415   9.659 -0.0947  0.1097 -0.0174
  271loPI   GL1 4325  16.895  19.296   9.331 -0.0474 -0.0610  0.1211
  271loPI   GL2 4326  16.770  19.576   9.239 -0.1771  0.1059  0.1748
  271loPI   C1A 4327  17.033  19.230   8.811 -0.1959  0.1209 -0.0428
  271loPI   C2A 4328  17.099  19.393   8.368 -0.1444 -0.1921  0.0243
  271loPI   C3A 4329  17.298  19.383   7.976 -0.1892 -0.2448 -0.4118
  271loPI   C4A 4330  17.615  19.450   7.557  0.0079 -0.0758  0.2256
  271loPI   C5A 4331  18.003  19.239   7.360  0.0409 -0.2340 -0.0355
  271loPI   C6A 4332  17.834  18.831   7.239 -0.0788 -0.0711  0.4381
  271loPI   C1B 4333  16.770  19.894   8.878  0.2147  0.0299  0.2135
  271loPI   C2B 4334  16.528  20.112   8.569  0.1187  0.0081 -0.0263
  271loPI   C3B 4335  16.313  20.345   8.232  0.0537 -0.2303  0.0317
  271loPI   C4B 4336  16.012  20.136   7.900 -0.0240 -0.0525  0.1782
  272loPI    C1 4337   1.164  16.338  10.044  0.0641 -0.0128 -0.0700
  272loPI    C2 4338   0.917  16.389  10.354  0.2234 -0.2855  0.1058
  272loPI    C3 4339   1.269  16.578  10.346  0.1534 -0.1577  0.0155
  272loPI   PO4 4340   1.020  16.468   9.791  0.3208  0.2687  0.1610
  272loPI   GL1 4341   0.912  16.384   9.360  0.1257  0.1948  0.0380
  272loPI   GL2 4342   1.022  16.631   9.325  0.2307 -0.1290 -0.0132
  272loPI   C1A 4343   0.855  16.351   8.881 -0.2627  0.0178 -0.1573
  272loPI   C2A 4344   0.693  16.270   8.525 -0.1422  0.1926  0.3145
  272loPI   C3A 4345   0.574  16.394   8.070 -0.3620  0.1818  0.1230
  272loPI   C4A 4346   0.568  16.279   7.586  0.1396 -0.2690  0.1651
  272loPI   C5A 4347   0.923  16.466   7.211 -0.0302 -0.1804  0.0366
  272loPI   C6A 4348   1.005  16.692   6.780  0.1813 -0.2395  0.2286
  272loPI   C1B 4349   1.202  16.739   8.919  0.2264  0.0312 -0.2137
  272loPI   C2B 4350   1.568  16.789   9.188  0.1115  0.1969  0.3544
  272loPI   C3B 4351   1.869  17.070   9.355  0.0102 -0.3368  0.0521
  272loPI   C4B 4352   1.967  17.141   8.927  0.1649 -0.0941 -0.2238
  273loPI    C1 4353   8.749   2.709  10.050  0.1275 -0.1297 -0.0897
  273loPI    C2 4354   8.705   2.536  10.408 -0.0693 -0.0404 -0.0694
  273loPI    C3 4355   9.060   2.685  10.301  0.0114 -0.1408  0.0547
  273loPI   PO4 4356   8.618   2.602   9.783 -0.1579 -0.5197  0.1749
  273loPI   GL1 4357   8.425   2.739   9.481 -0.2035  0.0811  0.1265
  273loPI   GL2 4358   8.469   2.853   9.105 -0.0599  0.1878 -0.4198
  273loPI   C1A 4359   8.042   2.663   9.239 -0.3804  0.2021 -0.2099
  273loPI   C2A 4360   7.885   2.525   8.839 -0.1073  0.4735 -0.1476
  273loPI   C3A 4361   7.584   2.591   8.445  0.1417  0.1259 -0.0672
  273loPI   C4A 4362   7.671   2.368   8.221  0.0991 -0.2123  0.0148
  273loPI   C5A 4363   7.793   2.088   7.959  0.1856 -0.0293 -0.1399
  273loPI   C6A 4364   7.942   1.969   7.612 -0.0864 -0.1638  0.1187
  273loPI   C1B 4365   8.751   2.820   8.727 -0.0035 -0.1879  0.1402
  273loPI   C2B 4366   8.950   2.827   8.366  0.1029 -0.0015 -0.2155
  273loPI   C3B 4367   9.058   2.695   7.942  0.1298  0.0122 -0.0796
  273loPI   C4B 4368   9.186   2.633   7.521 -0.0250  0.0581  0.1389
  274loPI    C1 4369   0.776   9.314  10.047  0.4935  0.1065 -0.0219
  274loPI    C2 4370   1.000   8.988  10.101  0.0026 -0.2182  0.1192
  274loPI    C3 4371   0.676   9.047  10.327  0.0310  0.3245  0.0300
  274loPI   PO4 4372   0.800   9.303   9.716  0.0801 -0.0096  0.0930
  274loPI   GL1 4373   0.609   9.361   9.309  0.1338  0.2703  0.3821
  274loPI   GL2 4374   0.408   9.707   9.439 -0.1450 -0.0401  0.0302
  274loPI   C1A 4375   0.836   9.019   9.080  0.0687 -0.2933  0.3155
  274loPI   C2A 4376   0.969   8.860   8.617 -0.3177 -0.0815 -0.4547
  274loPI   C3A 4377   0.965   9.216   8.310  0.1721 -0.0861 -0.2053
  274loPI   C4A 4378   0.902   9.225   7.820 -0.0156  0.2904 -0.1940
  274loPI   C5A 4379   0.867   8.986   7.473  0.0001  0.2336  0.1418
  274loPI   C6A 4380   1.125   8.592   7.260 -0.2078 -0.0922  0.0077
  274loPI   C1B 4381   0.289   9.844   9.034  0.0070  0.0243 -0.0494
  274loPI   C2B 4382   0.405   9.958   8.649 -0.4119 -0.2607 -0.0464
  274loPI   C3B 4383   0.422  10.054   8.300 -0.0591 -0.0812  0.0055
  274loPI   C4B 4384   0.325  10.002   7.825  0.0558  0.0875  0.3389
  275loPI    C1 4385   0.443   8.460  10.110  0.0230 -0.1622 -0.0255
  275loPI    C2 4386   0.312   8.085  10.163 -0.1177 -0.1001  0.0715
  275loPI    C3 4387   0.460   8.291  10.472 -0.4378  0.0732  0.1139
  275loPI   PO4 4388   0.442   8.433   9.778 -0.2199 -0.1053  0.2381
  275loPI   GL1 4389   0.694   8.536   9.430 -0.0634 -0.0897 -0.1471
  275loPI   GL2 4390   0.744   8.284   9.376  0.0413 -0.1408 -0.3450
  275loPI   C1A 4391   0.436   8.649   9.082 -0.2164  0.2711  0.2970
  275loPI   C2A 4392   0.468   8.643   8.609  0.1249  0.0828  0.1506
  275loPI   C3A 4393   0.287   8.416   8.307  0.1431  0.0213 -0.0627
  275loPI   C4A 4394   0.365   8.185   7.939  0.1303 -0.0373 -0.1544
  275loPI   C5A 4395   0.523   7.927   7.656 -0.3215 -0.0558 -0.0698
  275loPI   C6A 4396   0.728   7.996   7.262  0.0700 -0.3359 -0.2391
  275loPI   C1B 4397   0.969   8.322   9.030 -0.2174 -0.1327  0.0725
  275loPI   C2B 4398   1.073   8.238   8.609  0.0131 -0.0594  0.0161
  275loPI   C3B 4399   0.797   8.387   8.258  0.2629 -0.1452  0.0371
  275loPI   C4B 4400   0.593   8.651   8.056  0.3419  0.1526  0.1583
  276loPI    C1 4401  10.084   5.460   9.984  0.2047 -0.0895 -0.1533
  276loPI    C2 4402   9.963   5.361  10.353  0.0195 -0.2493 -0.2550
  276loPI    C3 4403  10.351   5.429  10.281  0.0360 -0.0544  0.0042
  276loPI   PO4 4404   9.859   5.347   9.866  0.0825  0.0725 -0.2348
  276loPI   GL1 4405   9.789   5.217   9.460 -0.0980  0.2831  0.2700
  276loPI   GL2 4406  10.020   5.067   9.172  0.0365  0.0482 -0.2566
  276loPI   C1A 4407   9.884   5.562   9.054 -0.0402  0.2907  0.3318
  276loPI   C2A 4408   9.971   5.735   8.614 -0.1267 -0.0873 -0.0010
  276loPI   C3A 4409  10.120   5.858   8.172 -0.2734 -0.3641  0.3820
  276loPI   C4A 4410  10.205   5.828   7.730 -0.2072  0.2273  0.0615
  276loPI   C5A 4411  10.118   6.288   7.506  0.2562 -0.0404  0.2593
  276loPI   C6A 4412   9.781   6.399   7.464 -0.0462  0.2586  0.3130
  276loPI   C1B 4413   9.935   5.173   8.717 -0.1082  0.1838 -0.0531
  276loPI   C2B 4414   9.845   5.214   8.278 -0.1260 -0.5389  0.0346
  276loPI   C3B 4415   9.804   5.012   7.716  0.2543  0.2608 -0.3074
  276loPI   C4B 4416  10.137   5.048   7.473  0.0723  0.0934  0.2835
  277loPI    C1 4417  19.379   5.808  10.567  0.0862  0.1090 -0.1721
  277loPI    C2 4418  19.157   6.051  10.340  0.1740  0.1634 -0.2005
  277loPI    C3 4419  19.348   6.196  10.660 -0.2540  0.0145  0.1331
  277loPI   PO4 4420  19.469   5.605  10.329 -0.1779  0.2938  0.1793
  277loPI   GL1 4421  19.564   5.479   9.904 -0.1994 -0.3961 -0.1664
  277loPI   GL2 4422  19.768   5.500   9.569 -0.2229 -0.0969  0.0708
  277loPI   C1A 4423  19.310   5.308   9.539  0.4112 -0.4356  0.0243
  277loPI   C2A 4424  19.161   5.282   9.122 -0.0504 -0.0349 -0.2126
  277loPI   C3A 4425  19.198   5.197   8.627  0.0927 -0.2143  0.4838
  277loPI   C4A 4426  18.992   5.054   8.277 -0.3411  0.0182 -0.0666
  277loPI   C5A 4427  18.602   4.947   8.028 -0.2268 -0.0629  0.3351
  277loPI   C6A 4428  18.357   4.910   7.677  0.4389  0.0125 -0.2822
  277loPI   C1B 4429  19.632   5.402   9.125  0.1180 -0.0997 -0.2649
  277loPI   C2B 4430  19.762   5.227   8.853 -0.2018 -0.0814  0.1167
  277loPI   C3B 4431  19.778   4.906   8.571 -0.3009 -0.1765 -0.0924
  277loPI   C4B 4432  19.690   4.838   8.093 -0.1930  0.0481  0.2470
  278loPI    C1 4433  10.415  16.758   9.087 -0.1171  0.0740 -0.3785
  278loPI    C2 4434  10.806  16.843   9.094 -0.0992 -0.0211  0.0047
  278loPI    C3 4435  10.683  16.476   8.993 -0.0744 -0.0614  0.1194
  278loPI   PO4 4436  10.325  17.030   9.001 -0.1053  0.2415  0.0828
  278loPI   GL1 4437  10.388  17.088   8.653  0.1055  0.2292 -0.0996
  278loPI   GL2 4438  10.520  16.793   8.570  0.1616 -0.1412 -0.2363
  278loPI   C1A 4439  10.255  17.223   8.233  0.0516 -0.2320  0.0106
  278loPI   C2A 4440  10.157  17.366   7.722  0.2008  0.3394 -0.2519
  278loPI   C3A 4441  10.147  17.033   7.404  0.2195  0.3293 -0.1711
  278loPI   C4A 4442  10.165  16.771   7.000 -0.2248  0.0197 -0.0325
  278loPI   C5A 4443  10.292  16.342   6.885  0.1493 -0.0615 -0.0499
  278loPI   C6A 4444  10.587  16.127   6.675  0.0493  0.0352  0.0172
  278loPI   C1B 4445  10.508  16.824   8.186 -0.1206 -0.4337  0.0373
  278loPI   C2B 4446  10.558  17.033   7.807  0.1407  0.0878 -0.0599
  278loPI   C3B 4447  10.677  16.945   7.402  0.0310 -0.2582 -0.1343
  278loPI   C4B 4448  10.882  16.991   6.996  0.0492 -0.0381 -0.0626
  279loPI    C1 4449  16.728   6.684   9.929 -0.2687 -0.1792  0.1803
  279loPI    C2 4450  16.825   6.658  10.316 -0.2146  0.0252  0.1812
  279loPI    C3 4451  16.940   6.976  10.101 -0.2013 -0.1110 -0.0155
  279loPI   PO4 4452  16.375   6.583   9.834  0.0792 -0.6481  0.0757
  279loPI   GL1 4453  16.242   6.408   9.522  0.0462  0.0404  0.0010
  279loPI   GL2 4454  16.170   6.594   9.274  0.4596  0.2253 -0.3236
  279loPI   C1A 4455  16.443   6.227   9.207 -0.1105 -0.3207 -0.0585
  279loPI   C2A 4456  16.646   5.997   8.847 -0.0721 -0.2366  0.0855
  279loPI   C3A 4457  16.636   5.857   8.353 -0.2475  0.2221 -0.1260
  279loPI   C4A 4458  16.706   5.706   7.937  0.4022 -0.0616  0.3683
  279loPI   C5A 4459  16.827   5.434   7.536 -0.2911 -0.3872 -0.2886
  279loPI   C6A 4460  16.761   5.204   7.055 -0.1431 -0.0301 -0.2543
  279loPI   C1B 4461  15.924   6.632   8.864 -0.2923  0.3518 -0.0605
  279loPI   C2B 4462  15.963   6.710   8.355  0.5833  0.1566  0.0661
  279loPI   C3B 4463  16.211   6.677   8.021  0.0180  0.3534 -0.1018
  279loPI   C4B 4464  16.539   6.684   7.699 -0.4136  0.0918  0.0519
  280loPI    C1 4465   4.773   3.253   9.961  0.1358 -0.0574  0.1696
  280loPI    C2 4466   4.862   3.075   9.615  0.0184  0.1241  0.0442
  280loPI    C3 4467   5.155   3.204   9.855  0.0993  0.0748 -0.0274
  280loPI   PO4 4468   4.509   3.439   9.785 -0.0798  0.3424 -0.0972
  280loPI   GL1 4469   4.405   3.787   9.481  0.2357 -0.2888 -0.1350
  280loPI   GL2 4470   4.515   3.480   9.275  0.0798  0.3072 -0.1177
  280loPI   C1A 4471   4.605   3.948   9.150 -0.2182  0.5455 -0.0771
  280loPI   C2A 4472   4.864   4.335   8.978  0.0268  0.0566 -0.2274
  280loPI   C3A 4473   5.122   4.601   8.786 -0.1779 -0.0073 -0.0348
  280loPI   C4A 4474   5.208   4.575   8.269  0.1263  0.0283  0.1176
  280loPI   C5A 4475   5.530   4.762   7.914 -0.3722 -0.0275 -0.2907
  280loPI   C6A 4476   5.905   4.932   7.528 -0.0255 -0.2296 -0.0295
  280loPI   C1B 4477   4.559   3.251   8.922 -0.0782 -0.1256 -0.0923
  280loPI   C2B 4478   4.321   3.396   8.546 -0.0942  0.0344 -0.2712
  280loPI   C3B 4479   4.435   3.611   8.138  0.1058  0.2120  0.3598
  280loPI   C4B 4480   4.471   4.097   7.979  0.0250  0.1068  0.0333
  281loPI    C1 4481   9.166   5.878  10.129 -0.1093  0.0675 -0.0655
  281loPI    C2 4482   9.286   6.246  10.233 -0.1277  0.0104  0.1641
  281loPI    C3 4483   9.351   5.937  10.479 -0.1431 -0.1352 -0.0122
  281loPI   PO4 4484   9.246   5.943   9.893  0.1452 -0.0702 -0.2603
  281loPI   GL1 4485   9.482   6.062   9.523  0.0414  0.0217 -0.0506
  281loPI   GL2 4486   9.622   5.953   9.262 -0.0199 -0.1711 -0.1198
  281loPI   C1A 4487   9.226   6.205   9.124 -0.0216 -0.3043  0.1435
  281loPI   C2A 4488   9.134   6.168   8.692  0.0411 -0.0586  0.0072
  281loPI   C3A 4489   9.223   6.173   8.236  0.0597 -0.2958 -0.1160
  281loPI   C4A 4490   9.207   6.130   7.823 -0.0582  0.0552  0.0649
  281loPI   C5A 4491   9.400   6.084   7.411 -0.3337  0.1171  0.2438
  281loPI   C6A 4492   9.162   5.948   7.049 -0.1031  0.1694  0.2107
  281loPI   C1B 4493   9.421   5.733   8.829 -0.0890  0.2000 -0.1580
  281loPI   C2B 4494   9.228   5.701   8.499  0.1239  0.0887  0.0413
  281loPI   C3B 4495   9.044   5.701   8.113 -0.2737 -0.0027  0.2791
  281loPI   C4B 4496   9.293   5.622   7.709  0.3500  0.0112  0.2580
  282loPI    C1 4497  13.202  18.984   9.257  0.0577 -0.1208  0.0026
  282loPI    C2 4498  12.944  19.033   9.559  0.1540  0.2687  0.0277
  282loPI    C3 4499  13.305  18.873   9.627  0.0002 -0.0866  0.0289
  282loPI   PO4 4500  13.105  18.965   9.090  0.0038 -0.2995  0.2469
  282loPI   GL1 4501  12.942  18.941   8.645  0.2087 -0.1520 -0.1758
  282loPI   GL2 4502  12.851  18.608   8.623 -0.5243 -0.1037 -0.0404
  282loPI   C1A 4503  13.097  19.309   8.490  0.1272 -0.3905  0.3277
  282loPI   C2A 4504  13.108  19.587   8.181 -0.0066 -0.2310 -0.1906
  282loPI   C3A 4505  13.407  19.817   7.921  0.2686  0.1265  0.2046
  282loPI   C4A 4506  13.438  20.032   7.494 -0.5081 -0.0039  0.3442
  282loPI   C5A 4507  13.685  20.237   7.247 -0.1157 -0.2631  0.1179
  282loPI   C6A 4508  13.888  20.274   6.881  0.0713 -0.0691 -0.4655
  282loPI   C1B 4509  13.010  18.724   8.150 -0.0110 -0.1700  0.1447
  282loPI   C2B 4510  13.080  18.714   7.666 -0.2423  0.1991 -0.0954
  282loPI   C3B 4511  13.046  18.601   7.307  0.0209  0.1309 -0.4355
  282loPI   C4B 4512  13.121  18.459   6.930 -0.3805 -0.1792  0.4430
  283loPI    C1 4513   0.138   9.206   9.984  0.0077  0.0362  0.0469
  283loPI    C2 4514  -0.002   9.462   9.710  0.1201 -0.0602 -0.1025
  283loPI    C3 4515   0.359   9.520   9.872  0.2308 -0.2297 -0.2831
  283loPI   PO4 4516   0.067   8.923   9.884  0.1228 -0.0574  0.2288
  283loPI   GL1 4517   0.028   8.634   9.516  0.2401  0.1925 -0.1935
  283loPI   GL2 4518  -0.266   8.493   9.471 -0.0782  0.0605 -0.0384
  283loPI   C1A 4519  -0.059   8.826   9.064 -0.0909  0.0830 -0.1512
  283loPI   C2A 4520  -0.012   8.794   8.637 -0.2999 -0.0756  0.3175
  283loPI   C3A 4521   0.033   8.835   8.122  0.3701 -0.3399 -0.0330
  283loPI   C4A 4522   0.095   8.577   7.852 -0.0362  0.3971  0.0788
  283loPI   C5A 4523   0.036   8.167   7.558  0.0857  0.0721 -0.3984
  283loPI   C6A 4524   0.254   8.140   7.226 -0.1571  0.0734 -0.0918
  283loPI   C1B 4525   0.008   8.301   9.134  0.2854  0.2578  0.1674
  283loPI   C2B 4526  -0.047   8.120   8.752  0.0115 -0.0071  0.1210
  283loPI   C3B 4527   0.038   7.840   8.297 -0.1354  0.1096 -0.0639
  283loPI   C4B 4528  -0.037   7.778   7.843  0.1400 -0.1096  0.2404
  284loPI    C1 4529   8.445  19.397   9.524  0.2441  0.0224  0.1537
  284loPI    C2 4530   8.628  19.665   9.757  0.4281 -0.1248  0.1812
  284loPI    C3 4531   8.304  19.472   9.890  0.2621  0.1205  0.1408
  284loPI   PO4 4532   8.351  19.485   9.238 -0.1182 -0.1236  0.1151
  284loPI   GL1 4533   8.135  19.244   8.920  0.1906  0.3578  0.1548
  284loPI   GL2 4534   7.938  19.497   9.022  0.0005  0.0493  0.2176
  284loPI   C1A 4535   7.906  19.107   8.472 -0.4466 -0.1028 -0.4706
  284loPI   C2A 4536   7.907  19.108   7.951 -0.0287  0.1871 -0.2759
  284loPI   C3A 4537   7.882  19.091   7.507  0.1252  0.1122  0.3404
  284loPI   C4A 4538   8.097  18.746   7.136 -0.1790 -0.3491  0.2682
  284loPI   C5A 4539   8.554  18.821   7.020 -0.0007  0.0637  0.1169
  284loPI   C6A 4540   8.680  19.022   6.680 -0.5695  0.0215 -0.0034
  284loPI   C1B 4541   7.972  19.669   8.505 -0.3031  0.0258 -0.1620
  284loPI   C2B 4542   8.099  19.528   8.185  0.3302 -0.0575  0.0434
  284loPI   C3B 4543   7.978  19.530   7.699 -0.1170 -0.2696 -0.1813
  284loPI   C4B 4544   7.813  19.504   7.217  0.0045  0.0006 -0.3585
  285loPI    C1 4545  14.213   1.998   9.525 -0.2871 -0.0851  0.0709
  285loPI    C2 4546  14.449   1.876   9.824  0.0026  0.1909 -0.0410
  285loPI    C3 4547  14.118   2.086   9.904  0.0593  0.2318  0.0890
  285loPI   PO4 4548  14.219   1.770   9.378 -0.2233  0.2727 -0.1199
  285loPI   GL1 4549  14.440   1.667   9.002 -0.1029  0.2591 -0.0043
  285loPI   GL2 4550  14.554   1.911   8.992  0.0168 -0.0306  0.2806
  285loPI   C1A 4551  14.806   1.577   8.652 -0.0512 -0.2533 -0.3228
  285loPI   C2A 4552  14.810   1.469   8.249 -0.1322  0.0412  0.0151
  285loPI   C3A 4553  14.786   1.519   7.727 -0.1158 -0.0352  0.0937
  285loPI   C4A 4554  15.066   1.837   7.517 -0.0783  0.2552 -0.0299
  285loPI   C5A 4555  15.310   1.986   7.255 -0.2174  0.1543  0.0175
  285loPI   C6A 4556  15.683   1.795   7.320  0.4147 -0.1969  0.1798
  285loPI   C1B 4557  14.536   1.958   8.501  0.1769  0.0156  0.0108
  285loPI   C2B 4558  14.544   1.920   8.007  0.2327  0.2150  0.0239
  285loPI   C3B 4559  14.519   1.882   7.492  0.0077  0.0720  0.0568
  285loPI   C4B 4560  14.287   1.692   7.157 -0.2054 -0.1605  0.3446
  286loPI    C1 4561   3.825  14.238   9.973  0.0976  0.0300  0.0691
  286loPI    C2 4562   3.558  14.344  10.252 -0.1941 -0.1111 -0.1510
  286loPI    C3 4563   3.747  13.993  10.279 -0.2289 -0.1287 -0.1350
  286loPI   PO4 4564   3.679  14.279   9.688 -0.2043  0.0096 -0.2158
  286loPI   GL1 4565   3.450  14.183   9.284 -0.0976  0.1270  0.0854
  286loPI   GL2 4566   3.226  14.229   9.481 -0.1273 -0.0306 -0.0567
  286loPI   C1A 4567   3.330  14.284   8.845 -0.4263  0.0657 -0.0714
  286loPI   C2A 4568   3.371  14.547   8.553 -0.0367  0.0107 -0.1728
  286loPI   C3A 4569   3.606  14.896   8.361 -0.1347  0.0990 -0.2320
  286loPI   C4A 4570   3.702  15.154   7.863 -0.4272  0.0761  0.0562
  286loPI   C5A 4571   3.963  15.259   7.601 -0.1219  0.0049 -0.4406
  286loPI   C6A 4572   4.376  15.385   7.521  0.2164 -0.4286  0.1271
  286loPI   C1B 4573   2.963  14.094   9.118  0.4612 -0.0144 -0.0957
  286loPI   C2B 4574   2.722  14.314   8.775  0.0460  0.1119  0.1856
  286loPI   C3B 4575   2.584  14.332   8.308 -0.0834 -0.2810  0.1646
  286loPI   C4B 4576   2.587  14.637   7.954 -0.0100 -0.0163 -0.0402
  287loPI    C1 4577   4.328   4.612  10.107  0.1749 -0.0533 -0.0112
  287loPI    C2 4578   4.584   4.493  10.391 -0.0592  0.0288  0.2388
  287loPI    C3 4579   4.286   4.252  10.276  0.0456 -0.0116  0.0465
  287loPI   PO4 4580   4.520   4.775   9.906 -0.2069 -0.0876 -0.4113
  287loPI   GL1 4581   4.581   4.682   9.566 -0.2806  0.1206 -0.0326
  287loPI   GL2 4582   4.799   4.384   9.469  0.1034 -0.0525  0.1525
  287loPI   C1A 4583   4.547   4.668   9.136 -0.0500 -0.0614  0.4450
  287loPI   C2A 4584   4.456   4.858   8.653  0.2613  0.1474  0.2987
  287loPI   C3A 4585   4.541   4.649   8.174 -0.0509  0.1982 -0.0096
  287loPI   C4A 4586   4.608   4.772   7.702  0.0283  0.0427 -0.0022
  287loPI   C5A 4587   4.855   5.011   7.499 -0.1701  0.1243 -0.0190
  287loPI   C6A 4588   4.850   5.018   7.057 -0.1588 -0.2384  0.0697
  287loPI   C1B 4589   5.020   4.784   9.283  0.2100  0.0455  0.2999
  287loPI   C2B 4590   5.183   5.250   9.203 -0.1487 -0.0614 -0.2190
  287loPI   C3B 4591   5.123   5.460   8.814  0.1095  0.0149 -0.1260
  287loPI   C4B 4592   5.003   5.453   8.380  0.1205  0.1142  0.0417
  288loPI    C1 4593  17.026  18.533   9.753  0.0378  0.1884 -0.2385
  288loPI    C2 4594  16.951  18.183   9.574 -0.0947  0.1466 -0.1035
  288loPI    C3 4595  17.000  18.198   9.971  0.0293  0.2638 -0.1227
  288loPI   PO4 4596  17.123  18.762   9.553  0.0444  0.0896  0.2274
  288loPI   GL1 4597  17.377  19.013   9.312 -0.3375 -0.1833  0.0079
  288loPI   GL2 4598  17.577  19.344   9.399 -0.2647  0.0098  0.0574
  288loPI   C1A 4599  17.733  18.841   8.918 -0.1304 -0.0262 -0.2543
  288loPI   C2A 4600  17.954  18.807   8.575 -0.2033 -0.0087  0.4983
  288loPI   C3A 4601  17.858  18.626   8.085 -0.0355 -0.0665 -0.0459
  288loPI   C4A 4602  17.844  18.493   7.623 -0.4102 -0.0340  0.0120
  288loPI   C5A 4603  17.667  18.192   7.495  0.3396  0.0395 -0.0808
  288loPI   C6A 4604  17.294  18.272   7.487 -0.3454  0.0654 -0.0141
  288loPI   C1B 4605  17.560  19.292   8.951  0.1362  0.1758  0.1096
  288loPI   C2B 4606  17.523  19.200   8.575 -0.0597 -0.0438  0.1698
  288loPI   C3B 4607  17.653  19.061   8.154 -0.4247 -0.0950  0.1616
  288loPI   C4B 4608  17.610  19.011   7.732 -0.4569  0.0795 -0.2286
  289loPI    C1 4609  11.903   1.429   9.219 -0.0380 -0.1701 -0.2102
  289loPI    C2 4610  11.567   1.216   9.173 -0.1916 -0.0268  0.2022
  289loPI    C3 4611  11.555   1.570   9.359  0.1680  0.0436  0.0983
  289loPI   PO4 4612  12.018   1.414   8.983 -0.0732 -0.0700  0.0143
  289loPI   GL1 4613  12.242   1.773   8.760 -0.1534  0.2974  0.0124
  289loPI   GL2 4614  11.978   1.736   8.611  0.1919 -0.1663 -0.0736
  289loPI   C1A 4615  12.345   2.013   8.289 -0.0355  0.3238  0.1203
  289loPI   C2A 4616  12.310   2.453   8.123  0.0377 -0.0875  0.0005
  289loPI   C3A 4617  12.279   2.732   7.809 -0.1959 -0.0354  0.0106
  289loPI   C4A 4618  12.283   2.837   7.316 -0.1563 -0.0782  0.2235
  289loPI   C5A 4619  12.091   2.768   6.970  0.1863  0.1764  0.3053
  289loPI   C6A 4620  11.626   2.619   7.054  0.0370 -0.1443  0.0003
  289loPI   C1B 4621  12.028   1.667   8.159 -0.0248 -0.1338  0.2199
  289loPI   C2B 4622  12.243   1.916   7.834  0.1976 -0.2607 -0.3395
  289loPI   C3B 4623  12.458   2.283   7.623  0.3928 -0.0029  0.5253
  289loPI   C4B 4624  12.664   2.549   7.493 -0.1492 -0.2371 -0.1086
  290loPI    C1 4625  11.209  15.512  10.004  0.0336  0.1697 -0.0957
  290loPI    C2 4626  11.230  15.195  10.247 -0.0798  0.2057 -0.0384
  290loPI    C3 4627  11.440  15.526  10.331  0.1709  0.0876 -0.1878
  290loPI   PO4 4628  11.238  15.388   9.775 -0.5701 -0.0139  0.1074
  290loPI   GL1 4629  11.546  15.426   9.413  0.3620 -0.1243  0.0785
  290loPI   GL2 4630  11.830  15.139   9.428 -0.1826  0.0363 -0.0128
  290loPI   C1A 4631  11.600  15.458   9.046 -0.0030  0.0818  0.1710
  290loPI   C2A 4632  11.478  15.516   8.621 -0.2025  0.1095 -0.1468
  290loPI   C3A 4633  11.417  15.620   8.225 -0.0478  0.0550  0.0930
  290loPI   C4A 4634  11.373  15.916   7.803 -0.1384  0.0739 -0.3505
  290loPI   C5A 4635  11.176  15.991   7.430 -0.1986 -0.0688  0.1902
  290loPI   C6A 4636  10.820  16.121   7.361 -0.3112  0.0544  0.1041
  290loPI   C1B 4637  11.972  15.127   9.025 -0.2287 -0.0462 -0.3473
  290loPI   C2B 4638  11.872  15.177   8.630  0.2348 -0.4517 -0.2267
  290loPI   C3B 4639  11.696  15.194   8.213  0.2470  0.2306 -0.1700
  290loPI   C4B 4640  11.624  15.094   7.762 -0.0945 -0.0078 -0.0324
  291loPI    C1 4641   1.714  10.827   9.496  0.2024  0.3724  0.1445
  291loPI    C2 4642   1.380  10.954   9.676  0.0147 -0.2621  0.2715
  291loPI    C3 4643   1.736  11.019   9.846 -0.0444  0.3116  0.1960
  291loPI   PO4 4644   1.570  10.697   9.280  0.0218 -0.3253  0.0413
  291loPI   GL1 4645   1.709  10.473   8.899 -0.1377  0.1554 -0.1249
  291loPI   GL2 4646   1.859  10.240   8.601  0.1706  0.0869  0.5531
  291loPI   C1A 4647   1.898  10.799   8.520  0.1757 -0.0069 -0.0638
  291loPI   C2A 4648   1.918  10.726   8.109 -0.0119  0.2181 -0.3133
  291loPI   C3A 4649   1.881  10.936   7.676 -0.0546  0.3230 -0.0704
  291loPI   C4A 4650   1.991  11.026   7.238  0.0663 -0.1737  0.1208
  291loPI   C5A 4651   2.170  11.238   6.973 -0.1451  0.0621 -0.3165
  291loPI   C6A 4652   2.579  11.522   6.918  0.4419  0.3281  0.2743
  291loPI   C1B 4653   2.006  10.261   8.174  0.1325  0.1109 -0.0440
  291loPI   C2B 4654   1.979  10.403   7.739  0.0571 -0.0710  0.3371
  291loPI   C3B 4655   1.926  10.531   7.300  0.0767 -0.0840  0.5085
  291loPI   C4B 4656   1.768  10.727   6.936  0.0151 -0.1430 -0.0928
  292loPI    C1 4657   4.649   3.886   9.971  0.0304  0.1135 -0.0936
  292loPI    C2 4658   4.771   4.005  10.333 -0.1315  0.3306 -0.1086
  292loPI    C3 4659   4.550   3.673  10.296  0.2025  0.0968 -0.0510
  292loPI   PO4 4660   4.486   4.127   9.854 -0.1064 -0.3347 -0.1236
  292loPI   GL1 4661   4.162   4.329   9.747 -0.0012  0.0830 -0.0726
  292loPI   GL2 4662   3.962   4.112   9.589  0.1663 -0.0232  0.5349
  292loPI   C1A 4663   4.302   4.278   9.288 -0.2367  0.0483 -0.2322
  292loPI   C2A 4664   4.412   4.309   8.840 -0.1438  0.0996  0.2938
  292loPI   C3A 4665   4.064   4.375   8.413  0.2513 -0.0553 -0.3091
  292loPI   C4A 4666   4.047   4.654   8.037  0.0661  0.2585  0.0766
  292loPI   C5A 4667   3.772   4.647   7.686 -0.0713 -0.1954 -0.0146
  292loPI   C6A 4668   3.465   4.320   7.494  0.1034 -0.1650 -0.0578
  292loPI   C1B 4669   3.803   4.335   9.234  0.0617 -0.0046 -0.0164
  292loPI   C2B 4670   3.592   4.361   8.844 -0.0757 -0.0886 -0.2160
  292loPI   C3B 4671   3.598   4.163   8.424  0.0849 -0.1145  0.1296
  292loPI   C4B 4672   3.699   4.246   7.961 -0.1293 -0.0499  0.0547
  293loPI    C1 4673  14.707   1.413   9.652  0.2400 -0.0068 -0.0742
  293loPI    C2 4674  14.847   1.578   9.989 -0.1570  0.2886 -0.0468
  293loPI    C3 4675  14.544   1.317  10.005  0.1461 -0.0784 -0.1368
  293loPI   PO4 4676  14.750   1.578   9.451 -0.0169  0.0214 -0.2065
  293loPI   GL1 4677  14.892   1.502   9.127  0.1333  0.1844 -0.0430
  293loPI   GL2 4678  15.100   1.189   9.130 -0.1890  0.0310  0.2381
  293loPI   C1A 4679  15.300   1.582   8.868 -0.4711 -0.0923 -0.0114
  293loPI   C2A 4680  15.473   1.851   8.513  0.5322  0.2201 -0.0765
  293loPI   C3A 4681  15.530   1.903   8.110 -0.0040 -0.2593 -0.2996
  293loPI   C4A 4682  15.498   2.079   7.739  0.1851 -0.0833  0.1327
  293loPI   C5A 4683  15.741   2.351   7.312  0.0821 -0.2229  0.3141
  293loPI   C6A 4684  15.820   2.183   6.923 -0.0371  0.0740  0.1313
  293loPI   C1B 4685  14.890   1.079   8.767 -0.0988  0.0605  0.0077
  293loPI   C2B 4686  14.810   1.045   8.474 -0.2060  0.2307  0.2284
  293loPI   C3B 4687  14.873   1.075   8.001  0.0689  0.1129 -0.0318
  293loPI   C4B 4688  15.042   1.052   7.689  0.2765  0.0076  0.0963
  294loPI    C1 4689  12.339   4.166  10.004 -0.1343  0.0062 -0.0005
  294loPI    C2 4690  12.511   4.418  10.262 -0.0626  0.0688 -0.1081
  294loPI    C3 4691  12.557   4.023  10.307 -0.2041  0.0723  0.0813
  294loPI   PO4 4692  12.369   4.273   9.760  0.0790  0.0815  0.1385
  294loPI   GL1 4693  12.620   4.325   9.414  0.2114  0.2376  0.1751
  294loPI   GL2 4694  12.358   4.390   9.280 -0.3249  0.1194 -0.1377
  294loPI   C1A 4695  12.831   4.261   9.028 -0.0279  0.2113  0.3494
  294loPI   C2A 4696  13.088   3.984   8.712  0.2114 -0.0533 -0.4350
  294loPI   C3A 4697  13.192   4.062   8.333 -0.1383  0.4154 -0.2185
  294loPI   C4A 4698  13.131   3.993   8.007  0.0165 -0.1480  0.1569
  294loPI   C5A 4699  13.272   3.804   7.675  0.1685  0.0969 -0.2321
  294loPI   C6A 4700  13.497   3.934   7.312  0.1680  0.0766 -0.0038
  294loPI   C1B 4701  12.449   4.573   8.864  0.1025  0.0391  0.1032
  294loPI   C2B 4702  12.586   4.776   8.531  0.1291  0.1809 -0.0250
  294loPI   C3B 4703  12.729   4.892   8.222 -0.2574 -0.0067  0.2192
  294loPI   C4B 4704  12.578   4.829   7.802  0.2091  0.0585  0.1999
  295loPI    C1 4705  13.486   4.014   9.933  0.3413 -0.0421  0.1902
  295loPI    C2 4706  13.560   3.675  10.132 -0.0338 -0.4466 -0.3301
  295loPI    C3 4707  13.183   3.796  10.077  0.0969  0.0783 -0.1306
  295loPI   PO4 4708  13.666   3.991   9.708  0.1786  0.1456 -0.1668
  295loPI   GL1 4709  13.642   4.062   9.281 -0.2916 -0.0086  0.0204
  295loPI   GL2 4710  13.425   3.890   9.144 -0.0853  0.3391 -0.0828
  295loPI   C1A 4711  13.846   4.139   8.835  0.2695 -0.1747  0.2624
  295loPI   C2A 4712  13.978   4.126   8.434  0.1198 -0.2801  0.0476
  295loPI   C3A 4713  14.020   3.865   8.086  0.2226 -0.3600 -0.0156
  295loPI   C4A 4714  14.288   4.089   7.754  0.0459 -0.2731 -0.2776
  295loPI   C5A 4715  14.489   4.036   7.329  0.1240 -0.0154  0.1319
  295loPI   C6A 4716  14.687   3.849   7.031  0.1925 -0.1200  0.0121
  295loPI   C1B 4717  13.574   3.711   8.726 -0.0825 -0.0870  0.0176
  295loPI   C2B 4718  13.518   3.710   8.356 -0.0720  0.2220 -0.1121
  295loPI   C3B 4719  13.615   3.579   8.037 -0.0653  0.3790  0.0569
  295loPI   C4B 4720  13.747   3.579   7.618 -0.1287 -0.0939  0.0477
  296loPI    C1 4721   3.931   5.001  10.204  0.3907 -0.1055  0.0957
  296loPI    C2 4722   4.157   4.895  10.516  0.1547 -0.0330  0.2943
  296loPI    C3 4723   3.846   5.140  10.569  0.2043  0.1034 -0.0252
  296loPI   PO4 4724   4.168   5.100  10.004  0.0273 -0.0007  0.0421
  296loPI   GL1 4725   4.113   4.965   9.611  0.0062 -0.2583  0.0037
  296loPI   GL2 4726   4.151   5.235   9.523  0.1497  0.0842 -0.2040
  296loPI   C1A 4727   4.073   4.733   9.343 -0.0981 -0.2490  0.2176
  296loPI   C2A 4728   4.038   4.636   8.901 -0.4460 -0.1810 -0.1319
  296loPI   C3A 4729   3.901   4.913   8.521  0.0428 -0.0064  0.0884
  296loPI   C4A 4730   3.804   5.073   8.122 -0.5155 -0.4166 -0.1971
  296loPI   C5A 4731   3.645   5.120   7.692  0.2282 -0.1695  0.3393
  296loPI   C6A 4732   3.301   4.738   7.711  0.1014 -0.0479 -0.0921
  296loPI   C1B 4733   4.153   5.177   9.096 -0.0117 -0.0464  0.0122
  296loPI   C2B 4734   4.317   5.318   8.789  0.0376  0.0105 -0.0632
  296loPI   C3B 4735   4.258   5.181   8.298  0.1836 -0.3874  0.3983
  296loPI   C4B 4736   4.538   5.243   7.934  0.2022 -0.3257  0.0815
  297loPI    C1 4737   4.445   5.625  10.452  0.0418 -0.3056 -0.3984
  297loPI    C2 4738   4.077   5.638  10.607  0.1383 -0.0604 -0.1823
  297loPI    C3 4739   4.321   5.335  10.699  0.0548 -0.1272 -0.1792
  297loPI   PO4 4740   4.367   5.615  10.107 -0.2410 -0.1612  0.0029
  297loPI   GL1 4741   4.075   5.656   9.830 -0.2216  0.2686 -0.2711
  297loPI   GL2 4742   4.370   5.805   9.661 -0.0748  0.1809  0.3786
  297loPI   C1A 4743   3.782   5.623   9.603  0.4170 -0.2874  0.1971
  297loPI   C2A 4744   3.794   5.531   9.208  0.1122 -0.1806 -0.0101
  297loPI   C3A 4745   3.698   5.303   8.761  0.0057 -0.0236  0.0743
  297loPI   C4A 4746   3.496   5.195   8.499  0.2329  0.1791 -0.4086
  297loPI   C5A 4747   3.161   5.218   8.189  0.0530 -0.0854 -0.1060
  297loPI   C6A 4748   3.136   5.267   7.732 -0.0848 -0.0706 -0.0293
  297loPI   C1B 4749   4.259   5.651   9.257  0.0710 -0.1602 -0.1175
  297loPI   C2B 4750   4.165   5.782   8.852 -0.0024 -0.1685 -0.0372
  297loPI   C3B 4751   4.100   5.708   8.488  0.3829  0.1595  0.1626
  297loPI   C4B 4752   3.750   5.614   8.203  0.4821 -0.0513 -0.4249
  298loPI    C1 4753   9.127   9.302   9.665  0.1488 -0.1305 -0.0286
  298loPI    C2 4754   9.083   9.431  10.041 -0.1236 -0.0356 -0.0903
  298loPI    C3 4755   9.442   9.315   9.910  0.0403  0.2469  0.0988
  298loPI   PO4 4756   8.969   9.485   9.546  0.2288  0.0887 -0.0836
  298loPI   GL1 4757   8.877   9.399   9.191  0.2454  0.1507  0.5960
  298loPI   GL2 4758   9.135   9.513   9.111 -0.3035 -0.0549  0.0127
  298loPI   C1A 4759   9.007   9.102   8.795 -0.2523 -0.0837 -0.2054
  298loPI   C2A 4760   8.832   8.762   8.468 -0.1257 -0.3235 -0.2299
  298loPI   C3A 4761   8.743   8.377   8.215  0.3738 -0.1813  0.0596
  298loPI   C4A 4762   8.655   8.275   7.826 -0.0596 -0.4414  0.2307
  298loPI   C5A 4763   8.368   8.266   7.528 -0.0260 -0.5156  0.2152
  298loPI   C6A 4764   8.147   8.189   7.128 -0.0397 -0.0904 -0.1243
  298loPI   C1B 4765   9.366   9.462   8.717  0.2601  0.0577 -0.3262
  298loPI   C2B 4766   9.323   9.634   8.255  0.3130  0.1453 -0.0580
  298loPI   C3B 4767   9.381   9.762   7.807 -0.1191  0.2426 -0.1766
  298loPI   C4B 4768   9.563   9.768   7.408 -0.1279 -0.3049 -0.4250
  299loPI    C1 4769   5.042   2.798  10.222  0.0251  0.2181 -0.1331
  299loPI    C2 4770   5.428   2.692  10.230 -0.0665 -0.1175  0.0719
  299loPI    C3 4771   5.235   2.770  10.572 -0.2253 -0.1201 -0.0160
  299loPI   PO4 4772   5.014   2.722   9.940  0.0328  0.3303  0.3333
  299loPI   GL1 4773   5.203   2.607   9.543  0.4314  0.2309 -0.1065
  299loPI   GL2 4774   5.326   2.954   9.435  0.0155  0.0053 -0.1605
  299loPI   C1A 4775   4.849   2.762   9.178  0.3242 -0.4927 -0.1100
  299loPI   C2A 4776   4.838   2.872   8.730 -0.1922 -0.0588 -0.0442
  299loPI   C3A 4777   4.848   3.325   8.481 -0.1979  0.2025  0.1319
  299loPI   C4A 4778   4.954   3.621   8.126 -0.2212  0.1924 -0.1325
  299loPI   C5A 4779   4.836   3.715   7.789  0.4095 -0.5006  0.2340
  299loPI   C6A 4780   4.730   4.035   7.474  0.1422 -0.0097 -0.0329
  299loPI   C1B 4781   5.261   3.136   9.059 -0.3512  0.0234  0.4062
  299loPI   C2B 4782   5.259   2.961   8.558 -0.2425 -0.2598  0.5931
  299loPI   C3B 4783   5.393   2.805   8.144 -0.0061  0.0211  0.0549
  299loPI   C4B 4784   5.696   2.908   7.917 -0.1424 -0.2543 -0.1754
  300loPI    C1 4785   5.613   8.586   9.760 -0.0242  0.0783  0.0239
  300loPI    C2 4786   5.376   8.341   9.552 -0.1159  0.0845  0.1205
  300loPI    C3 4787   5.314   8.394   9.944  0.1859 -0.0906  0.1954
  300loPI   PO4 4788   5.896   8.508   9.600  0.2981 -0.0069 -0.2129
  300loPI   GL1 4789   5.949   8.224   9.260 -0.1150 -0.0088 -0.0061
  300loPI   GL2 4790   6.310   8.237   9.397  0.0390 -0.1861  0.2250
  300loPI   C1A 4791   5.534   8.204   9.067  0.2152 -0.2967  0.0947
  300loPI   C2A 4792   5.290   7.940   8.801 -0.4394 -0.0522  0.1819
  300loPI   C3A 4793   5.367   7.720   8.460 -0.1132 -0.3093 -0.3903
  300loPI   C4A 4794   5.390   7.874   8.053 -0.2079  0.0175  0.1099
  300loPI   C5A 4795   5.547   7.810   7.662  0.1338  0.4724 -0.2126
  300loPI   C6A 4796   5.900   7.938   7.327  0.3336 -0.0711  0.0104
  300loPI   C1B 4797   6.334   8.295   8.963 -0.0593 -0.0702 -0.2818
  300loPI   C2B 4798   6.084   8.538   8.630 -0.0189 -0.0455 -0.0680
  300loPI   C3B 4799   5.770   8.609   8.347  0.0111 -0.2047  0.5772
  300loPI   C4B 4800   5.548   8.388   7.996 -0.1324 -0.1958 -0.3430
  301loPI    C1 4801   0.442  14.067   9.793  0.0174  0.0067 -0.0085
  301loPI    C2 4802   0.346  13.757  10.027  0.0647 -0.0338 -0.0426
  301loPI    C3 4803   0.131  13.834   9.699  0.2495 -0.2287 -0.2135
  301loPI   PO4 4804   0.722  14.037   9.731  0.3290  0.0524  0.0052
  301loPI   GL1 4805   0.762  14.201   9.310 -0.3573  0.2739  0.2328
  301loPI   GL2 4806   0.850  14.489   9.261  0.3342  0.0650 -0.1339
  301loPI   C1A 4807   0.545  14.287   8.937  0.0979 -0.0606 -0.1565
  301loPI   C2A 4808   0.552  14.563   8.646 -0.4038 -0.0755 -0.0830
  301loPI   C3A 4809   0.584  14.804   8.155 -0.0266 -0.0650  0.0195
  301loPI   C4A 4810   0.614  14.950   7.720 -0.2535 -0.2071 -0.1868
  301loPI   C5A 4811   0.672  15.089   7.359 -0.4999 -0.1623  0.2759
  301loPI   C6A 4812   0.853  14.874   7.013  0.3327 -0.1361 -0.1674
  301loPI   C1B 4813   0.784  14.881   8.990 -0.0557  0.2495  0.1006
  301loPI   C2B 4814   0.771  15.017   8.567  0.1120  0.0946 -0.0275
  301loPI   C3B 4815   0.896  15.296   8.231  0.0205 -0.2773 -0.6016
  301loPI   C4B 4816   0.900  15.507   7.838  0.1141  0.0341  0.2735
  302loPI    C1 4817  13.435   8.254   9.590  0.0174  0.0407  0.1637
  302loPI    C2 4818  13.715   7.986   9.491 -0.0607  0.0365 -0.0512
  302loPI    C3 4819  13.769   8.225   9.807  0.0662 -0.1450  0.0659
  302loPI   PO4 4820  13.334   8.233   9.341  0.1665 -0.3181  0.2469
  302loPI   GL1 4821  13.402   8.239   8.914  0.2750  0.1164 -0.3987
  302loPI   GL2 4822  13.704   8.147   8.997  0.0121  0.1319  0.0482
  302loPI   C1A 4823  13.315   8.390   8.587 -0.2974  0.0197 -0.3514
  302loPI   C2A 4824  13.183   8.641   8.263 -0.2490  0.2897  0.0908
  302loPI   C3A 4825  12.946   8.869   8.075 -0.2897 -0.0309 -0.2427
  302loPI   C4A 4826  12.792   8.936   7.627  0.3435 -0.0399 -0.0505
  302loPI   C5A 4827  12.941   8.944   7.245 -0.1755 -0.1272 -0.0965
  302loPI   C6A 4828  12.942   8.976   6.790  0.1736 -0.2862  0.1884
  302loPI   C1B 4829  13.805   8.403   8.651 -0.1490 -0.1644  0.2486
  302loPI   C2B 4830  13.749   8.439   8.223 -0.2351  0.0585  0.2554
  302loPI   C3B 4831  13.547   8.638   7.874  0.2295 -0.2260  0.0335
  302loPI   C4B 4832  13.472   8.711   7.438 -0.2279  0.1450 -0.0896
  303loPI    C1 4833   0.810   7.264  10.328 -0.2835  0.0114  0.1053
  303loPI    C2 4834   0.938   7.398  10.682 -0.1123  0.2693 -0.0505
  303loPI    C3 4835   0.813   7.020  10.645  0.0261  0.1908  0.2453
  303loPI   PO4 4836   0.933   7.322  10.175  0.0384 -0.0209  0.2068
  303loPI   GL1 4837   0.783   7.536   9.828 -0.1471 -0.0798 -0.3804
  303loPI   GL2 4838   0.721   7.809   9.858 -0.4945  0.0611 -0.1484
  303loPI   C1A 4839   0.820   7.289   9.444  0.0486 -0.2173 -0.1796
  303loPI   C2A 4840   0.934   7.287   9.041 -0.1754 -0.1305  0.1607
  303loPI   C3A 4841   0.795   7.011   8.706 -0.0305  0.1819 -0.1841
  303loPI   C4A 4842   0.746   6.959   8.344  0.3324  0.0789  0.1601
  303loPI   C5A 4843   0.758   6.805   7.925 -0.0648  0.4991 -0.0530
  303loPI   C6A 4844   0.600   6.663   7.577 -0.1246  0.0446 -0.0513
  303loPI   C1B 4845   0.549   7.806   9.427  0.1088  0.0400  0.1518
  303loPI   C2B 4846   0.427   8.020   9.015  0.2812  0.2898 -0.1544
  303loPI   C3B 4847   0.512   8.109   8.688 -0.1295  0.3263 -0.0703
  303loPI   C4B 4848   0.549   7.885   8.277 -0.1356 -0.0796  0.1969
  304loPI    C1 4849  17.359  13.993   9.103  0.0405  0.0123 -0.0989
  304loPI    C2 4850  17.363  13.965   9.502 -0.0948 -0.0219 -0.0994
  304loPI    C3 4851  17.229  14.298   9.326 -0.1758 -0.0639 -0.1178
  304loPI   PO4 4852  17.618  13.910   9.061  0.0300  0.2738 -0.0680
  304loPI   GL1 4853  17.751  13.765   8.726 -0.0538  0.4326  0.4189
  304loPI   GL2 4854  18.066  13.850   8.723 -0.2786  0.3425 -0.0020
  304loPI   C1A 4855  17.807  13.429   8.489  0.5412  0.2803  0.0471
  304loPI   C2A 4856  17.723  13.234   8.068  0.0818 -0.2338  0.2447
  304loPI   C3A 4857  17.850  13.120   7.663 -0.2169  0.3077  0.2942
  304loPI   C4A 4858  18.035  13.358   7.373  0.2232  0.0076  0.4328
  304loPI   C5A 4859  18.263  13.663   7.061  0.1443 -0.0339 -0.1158
  304loPI   C6A 4860  18.444  13.674   6.695  0.0639  0.0430 -0.0916
  304loPI   C1B 4861  17.975  14.203   8.416  0.2077 -0.1169  0.4173
  304loPI   C2B 4862  17.777  14.602   8.127 -0.1258 -0.1560  0.0190
  304loPI   C3B 4863  17.732  14.901   7.756 -0.3898  0.1462  0.0267
  304loPI   C4B 4864  17.413  15.144   7.740  0.0959  0.1113 -0.0908
  305loPI    C1 4865   8.796  10.924   9.629  0.0305  0.0027  0.0193
  305loPI    C2 4866   9.179  10.980   9.529  0.0734  0.0716  0.2194
  305loPI    C3 4867   9.011  11.208   9.812 -0.1146  0.0390  0.1350
  305loPI   PO4 4868   8.646  10.968   9.402 -0.2318  0.0500 -0.0750
  305loPI   GL1 4869   8.438  11.199   9.099 -0.0783 -0.3157 -0.0459
  305loPI   GL2 4870   8.527  11.433   8.935  0.0667 -0.0406  0.0414
  305loPI   C1A 4871   8.524  10.990   8.740  0.3346  0.3051 -0.1053
  305loPI   C2A 4872   8.504  11.056   8.307  0.1226 -0.2046 -0.1604
  305loPI   C3A 4873   8.672  11.238   7.995  0.1052  0.1575  0.1603
  305loPI   C4A 4874   9.012  11.113   7.511  0.0062  0.0069  0.2589
  305loPI   C5A 4875   9.351  11.088   7.216 -0.2321  0.1209 -0.1631
  305loPI   C6A 4876   9.794  10.961   7.139 -0.0418  0.4950  0.0361
  305loPI   C1B 4877   8.857  11.429   8.575  0.1156  0.3359  0.0114
  305loPI   C2B 4878   9.133  11.263   8.177 -0.3313  0.2214 -0.2542
  305loPI   C3B 4879   9.530  11.130   8.142 -0.1719 -0.0720 -0.1931
  305loPI   C4B 4880   9.936  10.964   8.253 -0.0518 -0.1862  0.2386
  306loPI    C1 4881   7.501  18.293  10.029 -0.0594 -0.1303  0.2594
  306loPI    C2 4882   7.748  18.598  10.109 -0.2535  0.1823 -0.2771
  306loPI    C3 4883   7.524  18.440  10.400  0.3109  0.1231  0.1424
  306loPI   PO4 4884   7.365  18.371   9.848  0.0637  0.1982  0.1797
  306loPI   GL1 4885   7.307  18.503   9.448  0.1640  0.1989 -0.2512
  306loPI   GL2 4886   7.525  18.197   9.334 -0.0106 -0.2395  0.2129
  306loPI   C1A 4887   7.225  18.650   9.073 -0.0712  0.1638 -0.0034
  306loPI   C2A 4888   7.108  19.040   8.861  0.0392 -0.1024  0.4793
  306loPI   C3A 4889   7.044  19.171   8.426  0.2227 -0.1362 -0.3874
  306loPI   C4A 4890   6.981  19.064   7.965  0.5384 -0.2924 -0.0377
  306loPI   C5A 4891   6.910  18.832   7.701 -0.0273 -0.0428  0.1650
  306loPI   C6A 4892   7.025  18.666   7.393  0.1674 -0.4586 -0.0617
  306loPI   C1B 4893   7.479  18.292   8.869 -0.0460  0.1379  0.0210
  306loPI   C2B 4894   7.529  18.145   8.485 -0.1581 -0.0604 -0.3427
  306loPI   C3B 4895   7.557  18.202   8.054 -0.0548 -0.0776 -0.0948
  306loPI   C4B 4896   7.839  18.216   7.627 -0.0932  0.0033 -0.0850
  307loPI    C1 4897   5.344  14.465   9.886  0.1564  0.0758 -0.0037
  307loPI    C2 4898   5.607  14.673   9.669  0.2786 -0.1663 -0.0914
  307loPI    C3 4899   5.442  14.837   9.994 -0.0372  0.2659 -0.4567
  307loPI   PO4 4900   5.137  14.441   9.708  0.2246  0.2414 -0.1260
  307loPI   GL1 4901   5.046  14.326   9.269  0.1112 -0.1433  0.1709
  307loPI   GL2 4902   4.857  14.704   9.153  0.1949 -0.1486 -0.1182
  307loPI   C1A 4903   5.394  14.060   8.999 -0.2032 -0.1717 -0.2880
  307loPI   C2A 4904   5.632  13.910   8.576 -0.0502  0.5017 -0.1905
  307loPI   C3A 4905   5.758  13.913   8.233  0.1630  0.0986 -0.0039
  307loPI   C4A 4906   6.103  13.719   7.991  0.0767  0.4030  0.0675
  307loPI   C5A 4907   6.170  13.601   7.593 -0.0841  0.0928 -0.0068
  307loPI   C6A 4908   5.791  13.604   7.436  0.4330  0.1963  0.3639
  307loPI   C1B 4909   4.624  14.620   8.891  0.1585  0.4125 -0.2435
  307loPI   C2B 4910   4.254  14.578   8.863 -0.3027 -0.0822  0.1238
  307loPI   C3B 4911   4.000  14.902   8.633 -0.1749  0.1423 -0.0081
  307loPI   C4B 4912   4.153  14.955   8.261  0.0397  0.3731 -0.3388
  308loPI    C1 4913   7.469   2.315   9.892  0.0255 -0.3614  0.2447
  308loPI    C2 4914   7.760   2.292   9.618 -0.2081 -0.0580 -0.0376
  308loPI    C3 4915   7.852   2.331  10.006  0.1279  0.1465 -0.1340
  308loPI   PO4 4916   7.223   2.101   9.727 -0.0019 -0.0904  0.1342
  308loPI   GL1 4917   6.936   2.033   9.354 -0.0113  0.1138 -0.0131
  308loPI   GL2 4918   6.852   2.279   9.346  0.0125  0.1001  0.1492
  308loPI   C1A 4919   6.795   2.062   8.846 -0.2401 -0.1543 -0.2146
  308loPI   C2A 4920   6.738   2.187   8.436  0.1835 -0.2226 -0.2891
  308loPI   C3A 4921   6.683   2.319   7.974  0.4533 -0.2017 -0.0904
  308loPI   C4A 4922   6.634   2.372   7.591 -0.1622  0.0604 -0.0682
  308loPI   C5A 4923   6.794   2.409   7.257 -0.0533 -0.0082 -0.2539
  308loPI   C6A 4924   7.031   2.076   7.098  0.0396 -0.2430  0.0401
  308loPI   C1B 4925   6.827   2.554   8.980 -0.0192  0.0946  0.1071
  308loPI   C2B 4926   6.747   2.685   8.602  0.4086 -0.4055  0.3486
  308loPI   C3B 4927   6.984   2.738   8.245 -0.3132 -0.0237  0.0407
  308loPI   C4B 4928   7.161   2.678   7.819  0.2942 -0.0994 -0.1850
  309loPI    C1 4929  16.869  17.667   9.609  0.1885 -0.0789 -0.0921
  309loPI    C2 4930  16.751  17.308   9.740 -0.2769  0.0102 -0.2492
  309loPI    C3 4931  16.520  17.629   9.799  0.0520  0.2558 -0.2673
  309loPI   PO4 4932  16.933  17.607   9.359  0.0056 -0.0772 -0.2078
  309loPI   GL1 4933  17.037  17.780   9.011 -0.1166 -0.0220  0.0632
  309loPI   GL2 4934  17.192  18.013   9.111 -0.1589  0.1605  0.1363
  309loPI   C1A 4935  17.029  17.584   8.632 -0.3065 -0.0871  0.1583
  309loPI   C2A 4936  17.075  17.473   8.217 -0.0570 -0.0596  0.1271
  309loPI   C3A 4937  17.125  17.480   7.901 -0.4385 -0.0401  0.3935
  309loPI   C4A 4938  17.165  17.180   7.453 -0.1692 -0.2354 -0.0121
  309loPI   C5A 4939  17.416  17.312   7.132  0.0713  0.1201  0.3509
  309loPI   C6A 4940  17.294  17.115   6.670 -0.1267  0.1718  0.1929
  309loPI   C1B 4941  17.236  18.107   8.742  0.1350  0.3702 -0.0208
  309loPI   C2B 4942  17.222  17.928   8.354  0.3152  0.1184  0.0182
  309loPI   C3B 4943  17.383  18.030   7.952  0.2078  0.0378 -0.0010
  309loPI   C4B 4944  17.459  18.405   7.902 -0.0532  0.1136 -0.4761
  310loPI    C1 4945  14.217  18.272   9.421 -0.0104 -0.1172 -0.2316
  310loPI    C2 4946  14.082  18.637   9.515  0.0139 -0.1167 -0.1989
  310loPI    C3 4947  14.086  18.347   9.791  0.0146 -0.1358 -0.2189
  310loPI   PO4 4948  14.181  18.251   9.211  0.1463  0.3494 -0.0699
  310loPI   GL1 4949  14.252  18.435   8.790  0.0261  0.0127  0.3182
  310loPI   GL2 4950  14.330  18.763   8.863  0.2345 -0.1650  0.2272
  310loPI   C1A 4951  14.506  18.501   8.381  0.0823  0.1245 -0.2494
  310loPI   C2A 4952  14.500  18.382   8.007  0.0035  0.0248  0.1674
  310loPI   C3A 4953  14.325  18.465   7.594  0.2712 -0.0276 -0.2370
  310loPI   C4A 4954  14.254  18.309   7.235  0.0291  0.1202  0.1397
  310loPI   C5A 4955  14.083  18.237   6.874  0.3337 -0.1944 -0.0157
  310loPI   C6A 4956  13.851  18.287   6.507 -0.3246 -0.2706 -0.0949
  310loPI   C1B 4957  14.235  18.923   8.409  0.3300 -0.2301 -0.1031
  310loPI   C2B 4958  14.451  18.908   7.955 -0.3395  0.0083 -0.1518
  310loPI   C3B 4959  14.612  18.962   7.600  0.1230 -0.0095 -0.1941
  310loPI   C4B 4960  14.468  18.848   7.287 -0.1343 -0.5814 -0.2002
  311loPI    C1 4961  10.036   2.190   9.438  0.0289 -0.1369 -0.1153
  311loPI    C2 4962  10.392   2.120   9.605  0.0183 -0.0068 -0.0372
  311loPI    C3 4963  10.255   2.495   9.577 -0.3380 -0.0951  0.4036
  311loPI   PO4 4964  10.107   1.857   9.237  0.1372 -0.2166  0.2143
  311loPI   GL1 4965  10.285   1.816   8.765  0.1243 -0.1324  0.0277
  311loPI   GL2 4966   9.892   1.717   8.749 -0.2934 -0.1652 -0.2451
  311loPI   C1A 4967  10.550   1.793   8.383  0.2376 -0.0865  0.1698
  311loPI   C2A 4968  10.872   1.668   8.093  0.0642 -0.0326 -0.1428
  311loPI   C3A 4969  11.056   1.432   7.710  0.0916  0.0936  0.0127
  311loPI   C4A 4970  11.177   1.559   7.342  0.0968  0.1130 -0.1049
  311loPI   C5A 4971  11.313   1.907   7.231 -0.1618 -0.1752  0.0339
  311loPI   C6A 4972  11.381   2.293   7.348  0.2099 -0.1871  0.1601
  311loPI   C1B 4973  10.048   1.732   8.283 -0.2474  0.4463 -0.0159
  311loPI   C2B 4974   9.924   1.703   7.840  0.0362 -0.1236  0.2299
  311loPI   C3B 4975   9.882   1.664   7.344  0.1015  0.2647 -0.3827
  311loPI   C4B 4976   9.732   1.546   6.918  0.1879 -0.1461 -0.2765
  312loPI    C1 4977  16.554  13.824   9.188 -0.0995  0.1098  0.0941
  312loPI    C2 4978  16.739  14.075   9.438  0.1086 -0.0874  0.1415
  312loPI    C3 4979  16.890  14.008   9.073 -0.0717  0.0286  0.0441
  312loPI   PO4 4980  16.373  13.931   9.081 -0.1438  0.0515  0.0910
  312loPI   GL1 4981  16.283  14.211   8.719 -0.1030  0.0501 -0.0043
  312loPI   GL2 4982  16.534  14.239   8.739  0.1026  0.4334 -0.0429
  312loPI   C1A 4983  16.157  13.926   8.351 -0.2261  0.2427 -0.0604
  312loPI   C2A 4984  16.125  13.843   7.879 -0.3698 -0.0077 -0.3815
  312loPI   C3A 4985  15.971  13.775   7.607  0.2733  0.2811  0.2316
  312loPI   C4A 4986  15.988  13.866   7.176  0.0042 -0.2976  0.1943
  312loPI   C5A 4987  16.132  14.003   6.743 -0.1516  0.1273  0.0032
  312loPI   C6A 4988  16.050  14.143   6.381  0.0527  0.2044  0.0146
  312loPI   C1B 4989  16.606  14.213   8.225 -0.0739 -0.0610 -0.1694
  312loPI   C2B 4990  16.688  14.187   7.765 -0.0906  0.2886 -0.3546
  312loPI   C3B 4991  16.376  13.955   7.457 -0.0330 -0.1381  0.0200
  312loPI   C4B 4992  16.330  13.516   7.260  0.3222  0.1180 -0.0891
  313loPI    C1 4993   4.974  16.038   9.813 -0.2210 -0.1710  0.0873
  313loPI    C2 4994   4.958  16.013  10.212  0.1818 -0.2491  0.1032
  313loPI    C3 4995   5.221  15.791  10.008  0.2815  0.1104 -0.1715
  313loPI   PO4 4996   4.935  16.275   9.740 -0.1633 -0.2212 -0.1555
  313loPI   GL1 4997   4.949  16.431   9.324 -0.0911 -0.0180  0.1325
  313loPI   GL2 4998   4.629  16.317   9.372 -0.0767 -0.1762  0.2885
  313loPI   C1A 4999   5.060  16.261   8.906  0.0075 -0.1011 -0.0603
  313loPI   C2A 5000   4.907  16.029   8.728  0.0230  0.2786 -0.0196
  313loPI   C3A 5001   5.006  15.808   8.240 -0.0945  0.0584  0.2663
  313loPI   C4A 5002   5.072  15.877   7.822 -0.0050  0.1396 -0.1168
  313loPI   C5A 5003   5.192  15.800   7.322 -0.1513  0.0913 -0.0362
  313loPI   C6A 5004   5.517  15.950   7.152  0.2401  0.1086  0.0773
  313loPI   C1B 5005   4.408  16.555   9.242  0.2499 -0.4519 -0.3099
  313loPI   C2B 5006   4.083  16.441   8.969 -0.1601 -0.2083  0.2493
  313loPI   C3B 5007   4.143  16.400   8.451 -0.4780 -0.2244 -0.1497
  313loPI   C4B 5008   3.789  16.369   8.268  0.1915 -0.0342  0.2835
  314loPI    C1 5009  11.968   8.976   9.958 -0.0798  0.0190 -0.1096
  314loPI    C2 5010  11.654   9.144  10.139  0.0431  0.0792  0.0500
  314loPI    C3 5011  11.614   8.790   9.958 -0.0313 -0.0886  0.3856
  314loPI   PO4 5012  12.077   9.089   9.780 -0.0091  0.0874 -0.0333
  314loPI   GL1 5013  12.014   8.946   9.408 -0.1824 -0.3546  0.1289
  314loPI   GL2 5014  11.757   9.034   9.184 -0.1194  0.2956 -0.0705
  314loPI   C1A 5015  12.348   8.832   8.986  0.3012  0.2496  0.0484
  314loPI   C2A 5016  12.448   8.501   8.673  0.0536  0.0494 -0.1180
  314loPI   C3A 5017  12.332   8.512   8.272 -0.1860 -0.0192 -0.1640
  314loPI   C4A 5018  12.251   8.455   7.777  0.3505  0.3376 -0.0220
  314loPI   C5A 5019  12.424   8.487   7.416 -0.0212  0.2997 -0.2128
  314loPI   C6A 5020  12.716   8.556   7.036 -0.0551  0.0236 -0.2219
  314loPI   C1B 5021  11.626   8.887   8.760  0.1062 -0.0117  0.1946
  314loPI   C2B 5022  11.563   8.920   8.371 -0.1221 -0.2224 -0.2936
  314loPI   C3B 5023  11.502   9.005   7.923 -0.1647 -0.1675  0.2671
  314loPI   C4B 5024  11.371   8.930   7.570 -0.0153  0.1286  0.1502
  315loPI    C1 5025   5.849   3.771  10.129  0.0626 -0.1467 -0.0413
  315loPI    C2 5026   6.177   3.952  10.269  0.0198 -0.1273  0.0346
  315loPI    C3 5027   5.936   3.755  10.520 -0.1531  0.0592  0.0174
  315loPI   PO4 5028   6.002   3.649   9.862  0.2034 -0.2542  0.2207
  315loPI   GL1 5029   6.113   3.904   9.482 -0.0653  0.0960  0.3749
  315loPI   GL2 5030   5.829   3.995   9.481 -0.3304  0.1275  0.0900
  315loPI   C1A 5031   6.223   4.071   9.088  0.1323 -0.0238 -0.0075
  315loPI   C2A 5032   6.167   4.196   8.651 -0.2752 -0.2163  0.1195
  315loPI   C3A 5033   6.305   4.160   8.259 -0.1651 -0.0237 -0.2047
  315loPI   C4A 5034   6.303   4.162   7.806  0.0891  0.3980  0.1046
  315loPI   C5A 5035   6.266   4.017   7.290 -0.0678 -0.2223 -0.2480
  315loPI   C6A 5036   6.124   3.704   7.099  0.2795 -0.0915 -0.0157
  315loPI   C1B 5037   5.677   4.003   9.007 -0.2831 -0.3000  0.2195
  315loPI   C2B 5038   5.743   4.013   8.637  0.2200  0.1945  0.5728
  315loPI   C3B 5039   5.809   4.132   8.225 -0.1714 -0.0175 -0.0629
  315loPI   C4B 5040   5.477   4.296   7.965 -0.0914 -0.1543 -0.0103
  316loPI    C1 5041   4.304  11.056  10.024 -0.2137  0.1088 -0.3097
  316loPI    C2 5042   4.308  11.455   9.994  0.1861  0.1638  0.2940
  316loPI    C3 5043   4.094  11.278  10.282 -0.2338 -0.0863 -0.1555
  316loPI   PO4 5044   4.335  10.987   9.738  0.2071 -0.1726 -0.0233
  316loPI   GL1 5045   4.061  10.753   9.281  0.0012  0.1375 -0.2698
  316loPI   GL2 5046   3.923  10.962   9.157 -0.0506  0.0647 -0.3871
  316loPI   C1A 5047   3.876  10.514   8.821  0.0934  0.2860  0.4761
  316loPI   C2A 5048   3.822  10.534   8.385 -0.0981  0.1438  0.1759
  316loPI   C3A 5049   3.736  10.453   7.954 -0.1977  0.5085  0.1187
  316loPI   C4A 5050   3.924  10.579   7.611  0.1195 -0.0819 -0.3675
  316loPI   C5A 5051   4.112  10.897   7.503 -0.0316 -0.0134 -0.1535
  316loPI   C6A 5052   4.585  10.932   7.513 -0.1575  0.1084 -0.1170
  316loPI   C1B 5053   3.773  11.061   8.731 -0.0321 -0.1937  0.2273
  316loPI   C2B 5054   3.514  10.921   8.217 -0.0371 -0.1745 -0.1496
  316loPI   C3B 5055   3.626  11.110   7.794  0.0352  0.1444  0.3047
  316loPI   C4B 5056   3.498  11.111   7.389  0.1132  0.3002  0.1435
  317loPI    C1 5057  12.825  15.111   9.646 -0.1315  0.0407  0.2729
  317loPI    C2 5058  13.218  15.076   9.712  0.0175  0.1309 -0.4775
  317loPI    C3 5059  12.983  14.754   9.735  0.0780  0.1207  0.2294
  317loPI   PO4 5060  12.762  15.124   9.422 -0.4009 -0.2907  0.0086
  317loPI   GL1 5061  12.750  15.055   9.016  0.2650 -0.0070  0.2386
  317loPI   GL2 5062  13.006  15.184   8.909 -0.1324  0.2852  0.1983
  317loPI   C1A 5063  12.414  14.907   8.811  0.0319  0.1705 -0.1477
  317loPI   C2A 5064  12.151  14.798   8.374 -0.0690  0.3739  0.2448
  317loPI   C3A 5065  12.002  14.680   7.920  0.0050  0.1617 -0.2934
  317loPI   C4A 5066  11.817  14.683   7.572 -0.0838  0.1146 -0.2704
  317loPI   C5A 5067  11.811  14.947   7.229 -0.1079  0.1195  0.0178
  317loPI   C6A 5068  11.619  15.005   6.899 -0.3161  0.0289  0.0589
  317loPI   C1B 5069  12.802  15.151   8.553 -0.0498  0.1547  0.1101
  317loPI   C2B 5070  12.372  15.207   8.401 -0.1667 -0.4602 -0.3732
  317loPI   C3B 5071  12.144  15.210   7.956 -0.2948 -0.2780  0.1006
  317loPI   C4B 5072  12.080  15.284   7.511  0.1723 -0.2924  0.2174
  318loPI    C1 5073  16.808   1.815   9.757  0.1390  0.0295 -0.0876
  318loPI    C2 5074  16.885   1.662  10.118  0.3796 -0.0417 -0.1673
  318loPI    C3 5075  16.937   2.053  10.051  0.2392 -0.0106 -0.0990
  318loPI   PO4 5076  16.534   1.642   9.706 -0.1890 -0.2892  0.0388
  318loPI   GL1 5077  16.316   1.636   9.260 -0.0298  0.0311 -0.2027
  318loPI   GL2 5078  16.311   1.355   9.131  0.1131  0.1449 -0.3296
  318loPI   C1A 5079  16.573   1.799   8.926 -0.1678  0.1893 -0.1152
  318loPI   C2A 5080  16.675   1.688   8.498  0.1308 -0.1341 -0.0573
  318loPI   C3A 5081  16.787   1.922   8.176  0.0989 -0.0192  0.0623
  318loPI   C4A 5082  16.859   2.073   7.801  0.0641 -0.0135  0.0525
  318loPI   C5A 5083  16.967   2.148   7.325  0.1956 -0.0556 -0.0647
  318loPI   C6A 5084  17.372   1.958   6.958  0.0132 -0.1737 -0.1495
  318loPI   C1B 5085  16.251   1.359   8.735 -0.0870  0.1520 -0.0090
  318loPI   C2B 5086  16.337   1.489   8.223  0.1771  0.1105  0.0586
  318loPI   C3B 5087  16.422   1.719   7.814 -0.2404 -0.3740 -0.1903
  318loPI   C4B 5088  16.631   1.816   7.415  0.1028  0.1196  0.1529
  319loPI    C1 5089  15.997  10.977   9.603 -0.0060  0.1899  0.0558
  319loPI    C2 5090  16.050  10.873   9.986  0.1384 -0.0674 -0.0320
  319loPI    C3 5091  15.884  11.225   9.896  0.1494  0.0167  0.2663
  319loPI   PO4 5092  16.165  10.977   9.493  0.1826  0.0190  0.0783
  319loPI   GL1 5093  16.219  10.681   9.157  0.1490 -0.0089  0.1713
  319loPI   GL2 5094  15.925  10.516   9.150  0.1500  0.0609  0.1677
  319loPI   C1A 5095  16.142  10.923   8.730 -0.0447 -0.1840 -0.2605
  319loPI   C2A 5096  15.972  10.944   8.179  0.2074  0.3033 -0.2237
  319loPI   C3A 5097  16.093  11.012   7.726  0.0683  0.3565  0.0113
  319loPI   C4A 5098  16.040  11.220   7.325  0.1110  0.1158  0.1327
  319loPI   C5A 5099  15.992  11.377   6.871 -0.1321 -0.0939 -0.1707
  319loPI   C6A 5100  16.059  11.746   6.667  0.1108  0.0528 -0.2057
  319loPI   C1B 5101  15.878  10.354   8.684 -0.1328 -0.1300  0.2183
  319loPI   C2B 5102  16.132  10.473   8.466 -0.0981  0.2154  0.1120
  319loPI   C3B 5103  16.312  10.548   8.166 -0.1442 -0.0904  0.1342
  319loPI   C4B 5104  16.371  10.604   7.724  0.1197 -0.2412  0.0692
  320loPI    C1 5105   2.757   3.153  10.729 -0.0692  0.0316  0.1507
  320loPI    C2 5106   2.786   2.754  10.741  0.0895  0.0303 -0.1584
  320loPI    C3 5107   3.102   2.980  10.834  0.0499  0.0820 -0.1487
  320loPI   PO4 5108   2.815   3.351  10.422 -0.0182  0.2517  0.2695
  320loPI   GL1 5109   2.816   3.265  10.001 -0.3809 -0.4435  0.2058
  320loPI   GL2 5110   2.731   3.012   9.827 -0.1924  0.3034  0.2255
  320loPI   C1A 5111   2.482   3.412   9.733  0.1153 -0.2179 -0.0310
  320loPI   C2A 5112   2.216   3.445   9.337 -0.2815 -0.2941 -0.5645
  320loPI   C3A 5113   1.968   3.574   9.051 -0.2383  0.0621 -0.0283
  320loPI   C4A 5114   1.763   3.408   8.687 -0.2654 -0.0184 -0.3853
  320loPI   C5A 5115   1.368   3.101   8.506 -0.0763  0.0048  0.0459
  320loPI   C6A 5116   1.389   3.037   8.043  0.4586 -0.1627  0.0078
  320loPI   C1B 5117   2.548   2.929   9.446 -0.2204  0.0563  0.1612
  320loPI   C2B 5118   2.505   2.924   9.053 -0.0435  0.2151  0.0552
  320loPI   C3B 5119   2.454   2.825   8.642 -0.0002 -0.0467 -0.0938
  320loPI   C4B 5120   2.331   2.716   8.337  0.1876 -0.1857 -0.0184
  321loPI    C1 5121  12.977   5.155   9.697  0.0048 -0.0461 -0.0659
  321loPI    C2 5122  12.874   5.295  10.057 -0.0238 -0.1566 -0.0304
  321loPI    C3 5123  12.598   5.125   9.823  0.0096 -0.1499 -0.0748
  321loPI   PO4 5124  13.179   4.967   9.763  0.5762  0.1112  0.0375
  321loPI   GL1 5125  13.244   4.731   9.356  0.0077  0.3567  0.0887
  321loPI   GL2 5126  13.127   4.405   9.494 -0.1455 -0.2641 -0.1677
  321loPI   C1A 5127  12.958   4.806   8.951 -0.0534  0.2051  0.1114
  321loPI   C2A 5128  13.071   4.658   8.576 -0.1279  0.0514 -0.1674
  321loPI   C3A 5129  13.117   4.523   8.171 -0.2701 -0.1067  0.1901
  321loPI   C4A 5130  13.358   4.384   7.746  0.0790  0.1680  0.0098
  321loPI   C5A 5131  13.627   4.435   7.367 -0.0651 -0.1446 -0.1738
  321loPI   C6A 5132  13.982   4.145   7.246 -0.0545  0.0614  0.1721
  321loPI   C1B 5133  13.374   4.389   8.990 -0.1779  0.0147  0.3533
  321loPI   C2B 5134  13.493   4.374   8.588 -0.1157 -0.0198  0.1436
  321loPI   C3B 5135  13.618   4.209   8.130  0.0149  0.0911  0.2488
  321loPI   C4B 5136  13.720   4.060   7.737  0.0792 -0.0364  0.1277
  322loPI    C1 5137  16.070   1.784   9.962  0.1115 -0.0426  0.1269
  322loPI    C2 5138  16.356   2.051  10.045  0.0110  0.0712  0.1097
  322loPI    C3 5139  16.345   1.702  10.241  0.2355  0.0132  0.0221
  322loPI   PO4 5140  16.107   1.952   9.642 -0.5320 -0.0400 -0.3651
  322loPI   GL1 5141  15.968   2.145   9.206 -0.0099 -0.3340  0.2749
  322loPI   GL2 5142  15.816   1.864   9.183 -0.0523  0.1055 -0.0588
  322loPI   C1A 5143  16.322   2.274   8.871  0.3580  0.1203 -0.4031
  322loPI   C2A 5144  16.651   2.282   8.543 -0.0892 -0.1196  0.2961
  322loPI   C3A 5145  16.760   2.509   8.185 -0.3303  0.0714  0.2682
  322loPI   C4A 5146  16.920   2.583   7.711  0.1959  0.1439 -0.0128
  322loPI   C5A 5147  16.824   2.918   7.470 -0.1753  0.1655 -0.0776
  322loPI   C6A 5148  16.669   3.111   7.122  0.1021  0.2310 -0.2927
  322loPI   C1B 5149  16.062   1.861   8.802 -0.5510 -0.0418  0.0693
  322loPI   C2B 5150  16.239   2.007   8.343  0.0638  0.0906 -0.0977
  322loPI   C3B 5151  16.310   2.213   8.006 -0.0220  0.2098 -0.1138
  322loPI   C4B 5152  16.480   2.330   7.589  0.2239  0.0170 -0.0041
  323loPI    C1 5153   0.075  13.216   9.641 -0.0745  0.0490 -0.1029
  323loPI    C2 5154   0.091  13.331  10.023 -0.1302 -0.0616 -0.0668
  323loPI    C3 5155   0.361  13.073   9.881 -0.2492 -0.2014 -0.0408
  323loPI   PO4 5156   0.014  13.399   9.438 -0.0205 -0.0582 -0.0229
  323loPI   GL1 5157  -0.150  13.748   9.238 -0.2520  0.2043  0.1539
  323loPI   GL2 5158  -0.276  13.993   9.395 -0.2441  0.2879 -0.2431
  323loPI   C1A 5159  -0.399  13.629   8.829 -0.3329  0.0404  0.1788
  323loPI   C2A 5160  -0.427  13.595   8.434 -0.2571 -0.0203 -0.0451
  323loPI   C3A 5161  -0.352  13.709   7.984 -0.1196  0.0618 -0.0155
  323loPI   C4A 5162  -0.435  13.586   7.503  0.2210 -0.1041  0.1577
  323loPI   C5A 5163  -0.663  13.761   7.151 -0.4083  0.0522 -0.0369
  323loPI   C6A 5164  -0.773  14.100   6.909 -0.1584  0.1445 -0.4527
  323loPI   C1B 5165  -0.005  14.161   9.049  0.0366  0.1535  0.3035
  323loPI   C2B 5166   0.242  14.166   8.575  0.0209  0.1034 -0.1599
  323loPI   C3B 5167   0.349  14.362   8.230  0.0744 -0.1238 -0.1946
  323loPI   C4B 5168   0.569  14.419   7.763  0.0508  0.2898  0.0505
  324loPI    C1 5169   2.748  11.640   9.434 -0.0926 -0.0752  0.2315
  324loPI    C2 5170   2.678  11.287   9.260  0.3239  0.0900 -0.3014
  324loPI    C3 5171   2.387  11.561   9.281  0.0675 -0.1902 -0.0966
  324loPI   PO4 5172   2.873  11.907   9.213 -0.0107  0.0187 -0.0914
  324loPI   GL1 5173   2.774  12.153   8.959  0.1386 -0.3269  0.0874
  324loPI   GL2 5174   2.909  12.397   8.640 -0.2025  0.2215  0.1394
  324loPI   C1A 5175   2.635  12.007   8.552 -0.2056  0.2006  0.2999
  324loPI   C2A 5176   2.166  11.923   8.330  0.0288 -0.2458 -0.0983
  324loPI   C3A 5177   2.258  12.075   7.921  0.0536  0.1113  0.0359
  324loPI   C4A 5178   1.861  12.192   7.576 -0.0364  0.0975  0.1953
  324loPI   C5A 5179   1.570  11.886   7.386  0.0586 -0.0314 -0.1227
  324loPI   C6A 5180   1.561  11.856   6.961  0.2748 -0.1129  0.1062
  324loPI   C1B 5181   2.576  12.459   8.274  0.1414 -0.2483 -0.0049
  324loPI   C2B 5182   2.420  12.505   7.735  0.1362 -0.1274 -0.1231
  324loPI   C3B 5183   2.206  12.417   7.329  0.1946  0.1494 -0.0381
  324loPI   C4B 5184   1.852  12.302   7.034 -0.3563  0.1162  0.0215
  325loPI    C1 5185  15.681   3.921   9.746  0.2131  0.2062  0.0341
  325loPI    C2 5186  15.433   3.991  10.052  0.0577  0.3114 -0.1142
  325loPI    C3 5187  15.450   4.248   9.746  0.0094  0.0678 -0.3249
  325loPI   PO4 5188  15.717   3.683   9.683 -0.1835  0.0378  0.0082
  325loPI   GL1 5189  15.653   3.580   9.295  0.0063 -0.0254  0.1088
  325loPI   GL2 5190  15.775   3.892   9.261 -0.2027  0.3778 -0.2152
  325loPI   C1A 5191  15.623   3.604   8.780  0.1641  0.0061 -0.2099
  325loPI   C2A 5192  15.927   3.641   8.534 -0.1693  0.0749  0.0640
  325loPI   C3A 5193  16.119   3.743   8.207  0.0801 -0.1035  0.0667
  325loPI   C4A 5194  16.332   3.833   7.827 -0.0436  0.1410 -0.0558
  325loPI   C5A 5195  16.217   3.997   7.418 -0.1006 -0.1855 -0.3049
  325loPI   C6A 5196  16.049   4.168   7.128 -0.0558 -0.0053  0.2799
  325loPI   C1B 5197  15.805   4.076   8.813 -0.0239 -0.2371 -0.0736
  325loPI   C2B 5198  16.016   4.364   8.465  0.1326  0.2818 -0.1087
  325loPI   C3B 5199  16.247   4.221   8.181  0.0782 -0.0072  0.1049
  325loPI   C4B 5200  16.475   4.316   7.781  0.1391 -0.0694  0.3801
  326loPI    C1 5201   2.492  16.819  10.125 -0.0714 -0.1352  0.0139
  326loPI    C2 5202   2.201  16.690  10.367 -0.0046 -0.1569  0.0832
  326loPI    C3 5203   2.569  16.748  10.511  0.0680 -0.2979 -0.0429
  326loPI   PO4 5204   2.387  16.673   9.878 -0.2253 -0.1959 -0.0902
  326loPI   GL1 5205   2.281  16.768   9.445 -0.0798 -0.3676 -0.3214
  326loPI   GL2 5206   2.657  16.546   9.391 -0.2486  0.2535 -0.1520
  326loPI   C1A 5207   2.179  16.717   9.010 -0.0179  0.0164 -0.1563
  326loPI   C2A 5208   1.949  16.684   8.606 -0.0529 -0.0301  0.1313
  326loPI   C3A 5209   1.945  16.849   8.243  0.0724 -0.0025 -0.0004
  326loPI   C4A 5210   1.952  16.974   7.816 -0.1154 -0.2926 -0.1228
  326loPI   C5A 5211   2.266  17.072   7.510 -0.1906 -0.1420  0.0499
  326loPI   C6A 5212   2.361  16.778   7.100 -0.1666  0.2127  0.0443
  326loPI   C1B 5213   2.649  16.434   8.958  0.0086  0.3911 -0.1418
  326loPI   C2B 5214   2.531  16.626   8.618 -0.2989 -0.1625  0.1024
  326loPI   C3B 5215   2.411  16.836   8.224  0.1900 -0.0721 -0.0355
  326loPI   C4B 5216   2.452  16.736   7.832  0.1107  0.2825  0.0966
  327loPI    C1 5217   8.989  16.682   9.863 -0.0658  0.0719 -0.0867
  327loPI    C2 5218   8.842  17.049   9.926 -0.0438  0.0997 -0.1946
  327loPI    C3 5219   8.786  16.761  10.198  0.1350  0.2429 -0.0024
  327loPI   PO4 5220   8.950  16.624   9.557  0.2384 -0.1209 -0.2160
  327loPI   GL1 5221   8.981  16.239   9.299  0.1803  0.1321  0.0947
  327loPI   GL2 5222   8.675  15.943   9.187  0.1145 -0.0820  0.4660
  327loPI   C1A 5223   8.756  16.355   8.772  0.2951 -0.5808 -0.0795
  327loPI   C2A 5224   8.659  16.426   8.293  0.1140 -0.3537 -0.1572
  327loPI   C3A 5225   8.558  16.411   7.856  0.0704 -0.0517  0.1536
  327loPI   C4A 5226   8.506  16.476   7.378  0.1168 -0.0417 -0.0510
  327loPI   C5A 5227   8.486  16.486   6.897  0.0022 -0.0906  0.1022
  327loPI   C6A 5228   8.321  16.647   6.551 -0.1124  0.2104  0.1452
  327loPI   C1B 5229   8.343  15.880   8.913 -0.0098  0.0954 -0.0106
  327loPI   C2B 5230   8.419  15.901   8.466 -0.0745  0.2151  0.3179
  327loPI   C3B 5231   8.419  15.947   8.014  0.1147  0.0095 -0.4148
  327loPI   C4B 5232   8.298  15.879   7.544  0.2564 -0.0211 -0.0990
  328loPI    C1 5233   6.902  17.292   9.716 -0.2729 -0.0056  0.0570
  328loPI    C2 5234   6.796  17.433  10.076  0.1416  0.0674  0.1551
  328loPI    C3 5235   7.162  17.506   9.931  0.1686 -0.4211 -0.0454
  328loPI   PO4 5236   6.655  17.030   9.713  0.1703  0.0591  0.0147
  328loPI   GL1 5237   6.461  16.860   9.336 -0.1642  0.1653  0.1079
  328loPI   GL2 5238   6.664  16.667   9.197  0.0621  0.1318  0.3145
  328loPI   C1A 5239   6.564  17.142   8.894 -0.1037 -0.1958 -0.0513
  328loPI   C2A 5240   6.781  17.289   8.672 -0.0119 -0.0360  0.1230
  328loPI   C3A 5241   6.940  17.349   8.270  0.0579 -0.0833 -0.2068
  328loPI   C4A 5242   6.912  17.549   7.841 -0.3922 -0.0103 -0.1265
  328loPI   C5A 5243   7.106  17.373   7.447  0.3216  0.3723 -0.1539
  328loPI   C6A 5244   7.272  17.281   7.143 -0.1118 -0.0146  0.3363
  328loPI   C1B 5245   6.639  16.685   8.707  0.1879 -0.3107  0.1493
  328loPI   C2B 5246   6.667  16.873   8.399 -0.1698  0.0780 -0.2278
  328loPI   C3B 5247   6.753  16.787   7.967  0.0557 -0.2389  0.1084
  328loPI   C4B 5248   6.918  16.318   7.791  0.1157  0.0872 -0.1075
  329loPI    C1 5249   2.287   2.667  10.179 -0.1353  0.0056  0.1964
  329loPI    C2 5250   2.266   3.024   9.999 -0.0796 -0.0619  0.0547
  329loPI    C3 5251   2.544   2.957  10.279 -0.1641  0.0421  0.1646
  329loPI   PO4 5252   2.210   2.533   9.992 -0.0995  0.1508 -0.0947
  329loPI   GL1 5253   2.094   2.221   9.688  0.0657 -0.4789 -0.2123
  329loPI   GL2 5254   2.048   1.801   9.673 -0.0238 -0.2343 -0.0071
  329loPI   C1A 5255   1.997   2.018   9.259  0.3141  0.0121 -0.3526
  329loPI   C2A 5256   2.089   1.912   8.854 -0.2584 -0.0733 -0.0698
  329loPI   C3A 5257   1.999   1.976   8.495  0.0833  0.2856  0.2398
  329loPI   C4A 5258   1.760   1.857   8.108  0.4346  0.4613  0.1259
  329loPI   C5A 5259   1.595   1.765   7.730 -0.0096  0.1062  0.1414
  329loPI   C6A 5260   1.458   1.537   7.341  0.1826  0.2897  0.1563
  329loPI   C1B 5261   1.955   1.577   9.350 -0.1127  0.1532 -0.0568
  329loPI   C2B 5262   1.945   1.418   8.962  0.0415  0.2517 -0.1716
  329loPI   C3B 5263   2.042   1.415   8.528 -0.0363 -0.1679 -0.2831
  329loPI   C4B 5264   2.311   1.631   8.247 -0.0090  0.1613 -0.0608
  330loPI    C1 5265   6.636  15.213   9.803 -0.0273  0.0022 -0.0455
  330loPI    C2 5266   6.383  15.436  10.018  0.0485  0.0100  0.0361
  330loPI    C3 5267   6.629  15.178  10.201  0.0875 -0.0102 -0.0440
  330loPI   PO4 5268   6.678  15.358   9.558  0.1742  0.3271  0.0447
  330loPI   GL1 5269   6.838  15.247   9.184  0.0224 -0.1900 -0.1792
  330loPI   GL2 5270   6.810  15.187   8.879 -0.2617  0.1544 -0.1088
  330loPI   C1A 5271   7.083  15.608   9.050 -0.1031 -0.0277 -0.4456
  330loPI   C2A 5272   7.458  15.732   8.905 -0.2758 -0.0482  0.0126
  330loPI   C3A 5273   7.544  15.783   8.479  0.1180 -0.2191  0.0697
  330loPI   C4A 5274   7.431  15.859   8.043  0.1789 -0.0371 -0.4247
  330loPI   C5A 5275   7.245  15.938   7.639 -0.2184  0.2755  0.1503
  330loPI   C6A 5276   7.269  15.680   7.208  0.1087  0.2589  0.1345
  330loPI   C1B 5277   6.745  15.087   8.459 -0.2622  0.2370  0.0296
  330loPI   C2B 5278   6.651  14.915   8.147  0.2254 -0.4258 -0.3293
  330loPI   C3B 5279   6.733  15.111   7.739 -0.3637 -0.0074  0.1532
  330loPI   C4B 5280   6.799  15.213   7.227 -0.1657  0.1936 -0.1251
  331loPI    C1 5281   2.953  11.120   9.939 -0.0130  0.1328 -0.0868
  331loPI    C2 5282   3.327  10.988   9.990 -0.1369 -0.1841  0.0245
  331loPI    C3 5283   3.139  11.175  10.289 -0.0015  0.1516 -0.0958
  331loPI   PO4 5284   3.061  11.178   9.639 -0.1599 -0.2532 -0.0670
  331loPI   GL1 5285   3.122  11.088   9.106 -0.0303 -0.0777  0.0784
  331loPI   GL2 5286   3.419  11.126   9.053  0.0967  0.1833 -0.1861
  331loPI   C1A 5287   2.910  11.083   8.741 -0.1221 -0.3228  0.0292
  331loPI   C2A 5288   3.069  11.219   8.378  0.2294 -0.0137 -0.0045
  331loPI   C3A 5289   3.133  11.242   7.970 -0.4534 -0.2596  0.1296
  331loPI   C4A 5290   3.158  11.417   7.644  0.0436 -0.0482  0.2218
  331loPI   C5A 5291   3.269  11.611   7.270 -0.1892  0.0808  0.2502
  331loPI   C6A 5292   3.190  11.675   6.926 -0.2298  0.1473 -0.2813
  331loPI   C1B 5293   3.369  10.683   8.827  0.3394  0.0898 -0.0925
  331loPI   C2B 5294   3.349  10.383   8.483  0.0044 -0.0705  0.0920
  331loPI   C3B 5295   3.292  10.490   8.067 -0.3371 -0.2710 -0.2311
  331loPI   C4B 5296   3.288  10.766   7.715 -0.0891  0.1706  0.2386
  332loPI    C1 5297  18.658   7.587  10.105  0.0132  0.1855  0.2895
  332loPI    C2 5298  18.987   7.619  10.331  0.0647  0.2305  0.2082
  332loPI    C3 5299  18.667   7.845  10.410  0.0829  0.2460  0.2364
  332loPI   PO4 5300  18.825   7.490   9.824  0.0608  0.0621 -0.1666
  332loPI   GL1 5301  18.854   7.221   9.511 -0.1022 -0.1098 -0.3126
  332loPI   GL2 5302  19.089   7.474   9.396 -0.4767  0.4217 -0.1922
  332loPI   C1A 5303  18.798   7.209   9.074 -0.3383 -0.0301  0.0503
  332loPI   C2A 5304  18.668   7.256   8.605  0.0478 -0.0224 -0.4366
  332loPI   C3A 5305  18.467   7.218   8.255  0.1516  0.0214 -0.0669
  332loPI   C4A 5306  18.277   7.334   7.801  0.0287 -0.0761 -0.0877
  332loPI   C5A 5307  18.471   7.593   7.481  0.1464 -0.1091 -0.1545
  332loPI   C6A 5308  18.497   7.956   7.191 -0.0126 -0.2400  0.0431
  332loPI   C1B 5309  19.101   7.560   8.947 -0.4855 -0.0906  0.0158
  332loPI   C2B 5310  19.054   7.594   8.530  0.0956  0.1439 -0.0479
  332loPI   C3B 5311  19.083   7.598   8.128 -0.1540 -0.2077 -0.1434
  332loPI   C4B 5312  18.749   7.454   7.935  0.0766 -0.0401 -0.2593
  333loPI    C1 5313  17.980   8.537  10.450  0.2331 -0.0006  0.0372
  333loPI    C2 5314  18.011   8.837  10.713  0.1206 -0.1104  0.1772
  333loPI    C3 5315  18.159   8.476  10.803  0.1705 -0.1223  0.0486
  333loPI   PO4 5316  18.071   8.498  10.171 -0.4769 -0.2937  0.1961
  333loPI   GL1 5317  18.177   8.353   9.776  0.0901  0.2422 -0.2408
  333loPI   GL2 5318  18.490   8.372   9.746  0.1147 -0.0571 -0.0317
  333loPI   C1A 5319  17.958   8.427   9.447 -0.2438  0.2436 -0.2537
  333loPI   C2A 5320  17.980   8.456   9.112  0.0037  0.0316  0.0632
  333loPI   C3A 5321  18.091   8.484   8.685  0.0562 -0.0077 -0.0104
  333loPI   C4A 5322  18.158   8.574   8.131  0.1255 -0.2250 -0.0515
  333loPI   C5A 5323  18.066   8.415   7.825 -0.2976 -0.4889 -0.1790
  333loPI   C6A 5324  18.498   8.300   7.622  0.2359  0.0107  0.1506
  333loPI   C1B 5325  18.631   8.679   9.503  0.2169 -0.0492 -0.0053
  333loPI   C2B 5326  18.836   8.533   9.071 -0.1508  0.0745 -0.0505
  333loPI   C3B 5327  18.938   8.450   8.658 -0.0277  0.1335 -0.1871
  333loPI   C4B 5328  19.285   8.412   8.375  0.1713 -0.1134 -0.0920
  334loPI    C1 5329   1.800   9.713   9.791 -0.0118 -0.0136  0.0524
  334loPI    C2 5330   1.684  10.076   9.913 -0.1439 -0.0490  0.0344
  334loPI    C3 5331   1.596   9.753  10.133  0.0142 -0.0660  0.0741
  334loPI   PO4 5332   1.742   9.776   9.478 -0.1850 -0.2979 -0.1049
  334loPI   GL1 5333   1.398   9.544   9.199  0.0291  0.2213 -0.0385
  334loPI   GL2 5334   1.144   9.335   9.363  0.1997 -0.3405 -0.2594
  334loPI   C1A 5335   1.294   9.273   8.760 -0.0251 -0.0712  0.0590
  334loPI   C2A 5336   1.336   9.626   8.341 -0.3288 -0.0670 -0.2224
  334loPI   C3A 5337   1.225   9.669   8.007 -0.1220 -0.1841 -0.0835
  334loPI   C4A 5338   1.359   9.553   7.629  0.1715 -0.1755 -0.0428
  334loPI   C5A 5339   1.356   9.168   7.410 -0.1695  0.0032 -0.1046
  334loPI   C6A 5340   1.564   8.809   7.192  0.0389  0.2991 -0.2593
  334loPI   C1B 5341   0.944   9.533   8.994 -0.2842 -0.1023 -0.1067
  334loPI   C2B 5342   0.636   9.500   8.779  0.2905  0.0140  0.3397
  334loPI   C3B 5343   0.215   9.516   8.648  0.0010 -0.0965  0.0095
  334loPI   C4B 5344  -0.089   9.277   8.495 -0.2779  0.0812  0.0867
  335loPI    C1 5345   3.800   6.944  10.449  0.0282 -0.2895  0.1507
  335loPI    C2 5346   3.500   6.922  10.185  0.0096 -0.2116  0.1650
  335loPI    C3 5347   3.446   7.110  10.534 -0.0328 -0.5007  0.3174
  335loPI   PO4 5348   3.941   7.068  10.214 -0.2083  0.0242 -0.7070
  335loPI   GL1 5349   4.002   6.943   9.870  0.1930 -0.0063  0.2355
  335loPI   GL2 5350   3.849   7.315   9.769  0.1907 -0.4113  0.0354
  335loPI   C1A 5351   3.849   6.737   9.494  0.1347  0.1068 -0.1952
  335loPI   C2A 5352   4.077   6.504   9.272 -0.0246 -0.2721  0.0188
  335loPI   C3A 5353   4.113   6.352   8.824  0.0284 -0.1035 -0.0959
  335loPI   C4A 5354   4.002   6.246   8.495  0.0549 -0.1072  0.0715
  335loPI   C5A 5355   3.857   6.068   8.141  0.0105 -0.2769  0.1076
  335loPI   C6A 5356   3.826   6.044   7.782 -0.1092 -0.1516 -0.0485
  335loPI   C1B 5357   3.747   7.246   9.464  0.0442  0.0429  0.2829
  335loPI   C2B 5358   3.503   7.193   9.246 -0.1396  0.3323  0.2778
  335loPI   C3B 5359   3.455   7.146   8.851 -0.0110 -0.0705  0.2101
  335loPI   C4B 5360   3.350   6.915   8.468  0.0311 -0.0693  0.0925
  336loPI    C1 5361  11.002   1.545   9.458 -0.1866  0.4580  0.1924
  336loPI    C2 5362  11.105   1.269   9.728  0.2005 -0.0713 -0.4636
  336loPI    C3 5363  11.245   1.642   9.760  0.0223 -0.0488  0.1971
  336loPI   PO4 5364  11.046   1.489   9.248  0.1553  0.0043  0.0467
  336loPI   GL1 5365  11.030   1.754   8.947  0.0585  0.1832 -0.0872
  336loPI   GL2 5366  10.785   1.577   8.802 -0.0067  0.1012 -0.1060
  336loPI   C1A 5367  11.038   1.926   8.514 -0.1759 -0.1747 -0.3012
  336loPI   C2A 5368  10.914   2.169   8.109 -0.0639  0.1644  0.0020
  336loPI   C3A 5369  10.900   2.352   7.634 -0.2400  0.1803 -0.0624
  336loPI   C4A 5370  10.889   2.516   7.282  0.1645 -0.0950  0.0850
  336loPI   C5A 5371  10.806   2.439   6.889 -0.2797 -0.1827  0.0504
  336loPI   C6A 5372  11.017   2.254   6.450  0.2569 -0.0962  0.0893
  336loPI   C1B 5373  11.100   1.404   8.374 -0.0984 -0.0664 -0.2202
  336loPI   C2B 5374  11.402   1.269   8.073 -0.0089 -0.1062 -0.1471
  336loPI   C3B 5375  11.541   1.320   7.672 -0.0856 -0.2352  0.0930
  336loPI   C4B 5376  11.293   1.056   7.415  0.0064 -0.2735  0.2338
  337loPI    C1 5377   1.649   7.916  10.296 -0.1241 -0.1862  0.1665
  337loPI    C2 5378   1.384   8.210  10.349  0.2717  0.1646  0.2522
  337loPI    C3 5379   1.761   8.257  10.472  0.3328 -0.3993  0.3039
  337loPI   PO4 5380   1.664   7.834  10.179  0.1095 -0.0066  0.3316
  337loPI   GL1 5381   1.717   7.801   9.664 -0.3611 -0.0817 -0.0574
  337loPI   GL2 5382   1.897   7.488   9.571 -0.2677  0.2713 -0.1318
  337loPI   C1A 5383   1.712   7.625   9.148  0.2842  0.1090 -0.1010
  337loPI   C2A 5384   1.735   7.382   8.665  0.1896 -0.0847 -0.1033
  337loPI   C3A 5385   1.635   7.014   8.276  0.1016  0.0914 -0.0468
  337loPI   C4A 5386   1.733   6.999   7.877  0.1763  0.0961 -0.2447
  337loPI   C5A 5387   1.736   7.256   7.505 -0.0081  0.0555  0.1051
  337loPI   C6A 5388   1.541   7.528   7.205 -0.0667  0.0257 -0.4483
  337loPI   C1B 5389   1.922   7.186   9.287 -0.1350  0.2555 -0.0143
  337loPI   C2B 5390   2.025   6.885   9.028 -0.0528 -0.0599 -0.0154
  337loPI   C3B 5391   2.039   6.854   8.602  0.1267 -0.2498  0.2158
  337loPI   C4B 5392   2.306   6.780   8.269 -0.1081  0.1501  0.1599
  338loPI    C1 5393  16.521  18.504   9.607 -0.3280 -0.1724 -0.2693
  338loPI    C2 5394  16.501  18.148   9.788 -0.3076 -0.0784 -0.0795
  338loPI    C3 5395  16.165  18.343   9.692 -0.3203  0.0529  0.2215
  338loPI   PO4 5396  16.604  18.500   9.398  0.0833  0.2697  0.3512
  338loPI   GL1 5397  16.823  18.400   9.079 -0.1539 -0.0726  0.5626
  338loPI   GL2 5398  17.053  18.472   9.168 -0.0672 -0.1747  0.2761
  338loPI   C1A 5399  16.772  18.598   8.671 -0.0685  0.1615  0.0616
  338loPI   C2A 5400  16.547  19.027   8.510 -0.1522 -0.0242  0.2565
  338loPI   C3A 5401  16.434  19.308   8.161  0.1663  0.1906 -0.0639
  338loPI   C4A 5402  16.481  19.355   7.679 -0.0246 -0.2181 -0.0904
  338loPI   C5A 5403  16.795  19.294   7.391 -0.0411 -0.2787  0.2430
  338loPI   C6A 5404  16.846  18.969   7.249 -0.0034  0.1113  0.4695
  338loPI   C1B 5405  17.271  18.754   8.923  0.0058 -0.0930  0.0832
  338loPI   C2B 5406  17.225  18.827   8.539 -0.3768 -0.4129 -0.0371
  338loPI   C3B 5407  17.163  18.864   8.123  0.1017  0.2186 -0.3649
  338loPI   C4B 5408  16.892  19.065   7.840 -0.1027 -0.0491 -0.1432
  339loPI    C1 5409   3.800   0.506  10.368  0.1495 -0.1580 -0.0116
  339loPI    C2 5410   4.091   0.376  10.610  0.1825  0.2500  0.1756
  339loPI    C3 5411   3.723   0.437  10.754  0.0990  0.1058  0.0272
  339loPI   PO4 5412   3.980   0.705  10.175  0.0765  0.2768 -0.0404
  339loPI   GL1 5413   3.793   0.787   9.759  0.0577  0.1875 -0.1145
  339loPI   GL2 5414   3.381   0.729   9.707  0.2066  0.1576  0.0345
  339loPI   C1A 5415   3.764   0.865   9.367  0.0727 -0.0144  0.1531
  339loPI   C2A 5416   3.862   1.025   8.990 -0.1049 -0.3560 -0.1452
  339loPI   C3A 5417   3.952   1.177   8.565 -0.1556  0.1779 -0.4679
  339loPI   C4A 5418   3.820   0.977   8.184  0.0700  0.2142  0.0045
  339loPI   C5A 5419   4.090   1.021   7.877  0.1391 -0.2080  0.0063
  339loPI   C6A 5420   4.173   1.459   7.936  0.0820  0.0333  0.0134
  339loPI   C1B 5421   3.326   0.607   9.262  0.1454  0.1639  0.2867
  339loPI   C2B 5422   3.402   0.571   8.953 -0.0022  0.3631 -0.1526
  339loPI   C3B 5423   3.307   0.401   8.580  0.0943 -0.3890 -0.2352
  339loPI   C4B 5424   3.181   0.309   8.149  0.0119  0.0335  0.1647
  340loPI    C1 5425  11.956  16.716   9.719 -0.0138 -0.0864 -0.1739
  340loPI    C2 5426  11.692  16.747  10.018 -0.1567 -0.0416 -0.3034
  340loPI    C3 5427  12.083  16.792  10.091 -0.2013  0.1067 -0.1472
  340loPI   PO4 5428  11.810  16.823   9.472  0.0364 -0.1726  0.3221
  340loPI   GL1 5429  11.872  16.811   8.991  0.0595  0.1732  0.2137
  340loPI   GL2 5430  11.955  16.551   9.011  0.0649  0.2370  0.1483
  340loPI   C1A 5431  12.224  16.923   8.764  0.1485 -0.0473 -0.0753
  340loPI   C2A 5432  12.112  17.030   8.418 -0.0652 -0.2670 -0.1160
  340loPI   C3A 5433  12.092  16.946   7.976  0.1169 -0.0970 -0.0638
  340loPI   C4A 5434  12.004  17.070   7.606 -0.1522 -0.3133  0.1059
  340loPI   C5A 5435  12.145  16.995   7.322  0.0705  0.3271 -0.2189
  340loPI   C6A 5436  11.801  17.008   7.100  0.2198  0.2966 -0.1270
  340loPI   C1B 5437  11.996  16.547   8.554 -0.0278  0.2910  0.2466
  340loPI   C2B 5438  11.930  16.527   8.108  0.1005  0.3373 -0.1058
  340loPI   C3B 5439  12.008  16.502   7.705 -0.0969 -0.2512  0.2260
  340loPI   C4B 5440  11.827  16.536   7.292 -0.0770 -0.1910  0.4561
  341loPI    C1 5441  15.165   7.580   9.693 -0.0778 -0.0389 -0.0009
  341loPI    C2 5442  14.821   7.381   9.740 -0.0637 -0.0094  0.2397
  341loPI    C3 5443  14.922   7.671   9.998  0.0456  0.1225  0.0512
  341loPI   PO4 5444  15.140   7.739   9.483  0.1699 -0.1057  0.2372
  341loPI   GL1 5445  15.372   7.752   9.091 -0.1477  0.0504 -0.0889
  341loPI   GL2 5446  15.075   7.796   9.037 -0.3613 -0.1976 -0.0878
  341loPI   C1A 5447  15.390   7.704   8.670  0.0284  0.2129  0.2042
  341loPI   C2A 5448  15.671   7.650   8.377 -0.0893  0.0444 -0.0578
  341loPI   C3A 5449  15.583   7.531   8.023  0.0432  0.2083  0.2495
  341loPI   C4A 5450  15.700   7.429   7.611 -0.0646  0.0780  0.0139
  341loPI   C5A 5451  15.760   7.406   7.189 -0.1256 -0.2116  0.1005
  341loPI   C6A 5452  16.035   7.525   6.904  0.0278 -0.0210  0.0169
  341loPI   C1B 5453  14.884   7.772   8.555  0.2696 -0.0799  0.0632
  341loPI   C2B 5454  14.686   8.095   8.261 -0.1109 -0.2237 -0.0080
  341loPI   C3B 5455  14.598   7.938   7.831  0.2811  0.0048  0.0694
  341loPI   C4B 5456  14.422   7.793   7.419  0.3754 -0.0275  0.0768
  342loPI    C1 5457   5.411   3.208  10.294  0.0897 -0.0321  0.2417
  342loPI    C2 5458   5.487   3.587  10.397  0.0453  0.0097  0.1220
  342loPI    C3 5459   5.372   3.323  10.675 -0.0143  0.1066  0.1899
  342loPI   PO4 5460   5.630   3.169  10.018 -0.2101  0.0040  0.0609
  342loPI   GL1 5461   5.721   3.236   9.550 -0.1060 -0.4808  0.0031
  342loPI   GL2 5462   5.831   2.879   9.381 -0.1861 -0.1662  0.0331
  342loPI   C1A 5463   5.602   3.595   9.227  0.1482  0.0212 -0.0974
  342loPI   C2A 5464   5.436   3.564   8.835  0.0110  0.0560  0.2495
  342loPI   C3A 5465   5.377   3.677   8.444  0.1016 -0.2028 -0.3670
  342loPI   C4A 5466   5.485   3.761   7.963  0.0860 -0.0702  0.0855
  342loPI   C5A 5467   5.293   4.054   7.606  0.0887  0.0646 -0.0139
  342loPI   C6A 5468   5.330   4.255   7.176 -0.0477  0.0156 -0.0589
  342loPI   C1B 5469   5.730   2.783   8.909 -0.1642 -0.3488 -0.1512
  342loPI   C2B 5470   5.756   2.762   8.462 -0.0135  0.1472  0.0455
  342loPI   C3B 5471   5.941   2.543   8.118 -0.2658 -0.1288  0.1385
  342loPI   C4B 5472   5.608   2.424   7.749 -0.2668  0.2022 -0.3203
  343loPI    C1 5473   9.275  10.438   9.923 -0.0492 -0.0741  0.0514
  343loPI    C2 5474   9.513  10.120   9.876 -0.0535 -0.0588 -0.0771
  343loPI    C3 5475   9.246  10.127  10.173 -0.0403 -0.1670 -0.0619
  343loPI   PO4 5476   9.093  10.468   9.626  0.0829 -0.2808  0.0282
  343loPI   GL1 5477   9.184  10.492   9.185  0.0608  0.0545 -0.2083
  343loPI   GL2 5478   9.045  10.824   9.064 -0.1119  0.3390  0.2245
  343loPI   C1A 5479   9.422  10.427   8.783 -0.0923  0.1195  0.1481
  343loPI   C2A 5480   9.342  10.615   8.238  0.1751 -0.0029 -0.0479
  343loPI   C3A 5481   9.200  10.773   7.856  0.4272 -0.3108 -0.0152
  343loPI   C4A 5482   9.270  10.596   7.422 -0.2762  0.0123 -0.0337
  343loPI   C5A 5483   9.221  10.687   6.941 -0.2109 -0.2066  0.1992
  343loPI   C6A 5484   9.477  10.887   6.587 -0.0420  0.1400  0.2351
  343loPI   C1B 5485   8.929  10.430   8.746 -0.0726 -0.1919  0.1934
  343loPI   C2B 5486   8.963  10.191   8.421  0.2955 -0.0566 -0.3962
  343loPI   C3B 5487   9.021  10.280   7.948 -0.3521  0.1039  0.4125
  343loPI   C4B 5488   8.999   9.950   7.519  0.1912 -0.2749 -0.0479
  344loPI    C1 5489  10.259  12.098   9.420 -0.1625  0.0224  0.2442
  344loPI    C2 5490   9.978  12.351   9.290 -0.2293 -0.0161  0.3127
  344loPI    C3 5491   9.910  12.127   9.614 -0.3410 -0.4373  0.0062
  344loPI   PO4 5492  10.487  12.201   9.327  0.2005 -0.2085 -0.4000
  344loPI   GL1 5493  10.516  12.512   9.017  0.2759  0.1906 -0.3343
  344loPI   GL2 5494  10.779  12.726   8.978  0.4629 -0.0455 -0.0498
  344loPI   C1A 5495  10.715  12.406   8.593  0.1002 -0.1514 -0.0097
  344loPI   C2A 5496  10.842  12.519   8.264  0.3532 -0.0449 -0.0568
  344loPI   C3A 5497  10.664  12.528   7.863 -0.2457  0.2778  0.2231
  344loPI   C4A 5498  10.307  12.801   7.627 -0.1885  0.2995  0.0263
  344loPI   C5A 5499  10.203  12.859   7.205  0.0119  0.1488  0.1846
  344loPI   C6A 5500  10.453  13.013   6.901 -0.0319 -0.4515 -0.1959
  344loPI   C1B 5501  11.012  12.917   8.497  0.1098 -0.0906 -0.1135
  344loPI   C2B 5502  11.385  13.072   8.376  0.4044 -0.1665 -0.3184
  344loPI   C3B 5503  11.686  13.218   8.153 -0.2311  0.1298 -0.1974
  344loPI   C4B 5504  11.712  13.317   7.793 -0.3936  0.3000  0.1302
  345loPI    C1 5505  18.676  11.690   9.597  0.1188  0.0712  0.1291
  345loPI    C2 5506  18.640  11.847   9.963 -0.0831  0.4013 -0.0277
  345loPI    C3 5507  18.314  11.734   9.761  0.0481 -0.0772  0.0154
  345loPI   PO4 5508  18.750  11.839   9.398 -0.1234 -0.0060 -0.1163
  345loPI   GL1 5509  18.764  11.732   8.978 -0.3501  0.0173 -0.2450
  345loPI   GL2 5510  18.780  11.395   8.848 -0.1518 -0.2016  0.0415
  345loPI   C1A 5511  18.657  11.790   8.536  0.1198  0.0761  0.3748
  345loPI   C2A 5512  18.761  11.536   8.148  0.1942 -0.3031 -0.0187
  345loPI   C3A 5513  18.560  11.214   7.785 -0.0222 -0.0675  0.2390
  345loPI   C4A 5514  18.542  10.795   7.548  0.3668 -0.0989  0.5224
  345loPI   C5A 5515  18.602  10.549   7.210  0.0465  0.0437 -0.1236
  345loPI   C6A 5516  18.559  10.644   6.800  0.2994 -0.1720 -0.3444
  345loPI   C1B 5517  19.093  11.182   8.611  0.1607  0.3713 -0.2158
  345loPI   C2B 5518  18.981  11.110   8.152  0.0409 -0.1031  0.2668
  345loPI   C3B 5519  18.591  11.057   8.346  0.2634 -0.2737 -0.1729
  345loPI   C4B 5520  18.432  10.913   8.705  0.5668 -0.1315 -0.2287
  346loPI    C1 5521  17.649   3.017  10.238 -0.0642  0.0319  0.0528
  346loPI    C2 5522  17.437   2.691  10.329  0.0694  0.0210  0.3348
  346loPI    C3 5523  17.251   3.040  10.270 -0.0686 -0.0908  0.0955
  346loPI   PO4 5524  17.828   2.937  10.061 -0.1201 -0.0157 -0.1288
  346loPI   GL1 5525  18.102   2.629   9.841 -0.3235 -0.0352  0.2632
  346loPI   GL2 5526  18.259   2.324   9.702 -0.0685 -0.0098 -0.1471
  346loPI   C1A 5527  18.257   2.732   9.439 -0.0039 -0.0052 -0.2334
  346loPI   C2A 5528  18.434   2.714   9.043  0.0395  0.0490  0.2592
  346loPI   C3A 5529  18.671   2.852   8.687 -0.1035 -0.0635 -0.2402
  346loPI   C4A 5530  19.038   3.085   8.348  0.0342  0.0164 -0.0535
  346loPI   C5A 5531  19.292   3.223   7.897  0.0279 -0.1980 -0.0414
  346loPI   C6A 5532  19.351   2.977   7.484  0.1847  0.2730 -0.1984
  346loPI   C1B 5533  17.877   2.183   9.537 -0.3692  0.0062  0.4694
  346loPI   C2B 5534  17.540   2.393   9.095  0.2029  0.4455  0.1966
  346loPI   C3B 5535  17.321   2.322   8.643  0.0691 -0.2351 -0.0637
  346loPI   C4B 5536  17.197   2.090   8.359  0.1077 -0.0200  0.1057
  347loPI    C1 5537   9.171   1.189   9.266 -0.2404  0.0598  0.0135
  347loPI    C2 5538   8.911   0.887   9.297 -0.0594 -0.0862  0.1264
  347loPI    C3 5539   9.303   0.812   9.272 -0.0344  0.1264 -0.1728
  347loPI   PO4 5540   9.068   1.295   9.079 -0.0193 -0.1857  0.1154
  347loPI   GL1 5541   8.790   1.334   8.789  0.0526 -0.0107 -0.1996
  347loPI   GL2 5542   8.670   1.003   8.862  0.2312  0.0696  0.0424
  347loPI   C1A 5543   9.106   1.567   8.446  0.0719  0.0461  0.0564
  347loPI   C2A 5544   8.980   1.724   8.107 -0.1777  0.0550  0.0637
  347loPI   C3A 5545   9.023   1.864   7.698 -0.1401  0.1102  0.2586
  347loPI   C4A 5546   9.101   2.164   7.374 -0.0518 -0.0939  0.1962
  347loPI   C5A 5547   9.257   2.411   7.050 -0.2537  0.0556  0.2728
  347loPI   C6A 5548   9.523   2.803   7.155  0.3335 -0.2922  0.0232
  347loPI   C1B 5549   8.496   1.075   8.531  0.1646  0.0319  0.1763
  347loPI   C2B 5550   8.570   0.904   8.140 -0.1184  0.3212 -0.0681
  347loPI   C3B 5551   8.637   0.789   7.724  0.1845 -0.1246 -0.2311
  347loPI   C4B 5552   8.727   0.917   7.345 -0.3749  0.1093  0.0453
  348loPI    C1 5553  10.204  11.584   9.530 -0.1056 -0.0688 -0.4265
  348loPI    C2 5554  10.379  11.229   9.588  0.0287  0.0607 -0.0011
  348loPI    C3 5555  10.125  11.374   9.861  0.1713  0.4045 -0.0461
  348loPI   PO4 5556   9.973  11.578   9.197 -0.2087 -0.0856  0.1803
  348loPI   GL1 5557  10.067  11.555   8.786  0.1842  0.0407  0.3258
  348loPI   GL2 5558   9.796  11.288   8.806  0.0694  0.0087 -0.0562
  348loPI   C1A 5559   9.893  11.475   8.336  0.3152  0.2511  0.0558
  348loPI   C2A 5560   9.934  11.405   7.929  0.1025  0.2653  0.3109
  348loPI   C3A 5561   9.840  11.382   7.453  0.0820  0.0313  0.1384
  348loPI   C4A 5562   9.670  11.818   7.279  0.0850  0.0129  0.1261
  348loPI   C5A 5563   9.491  12.139   6.980 -0.1431  0.0895 -0.1208
  348loPI   C6A 5564   9.351  12.237   6.518 -0.1328 -0.0011 -0.2361
  348loPI   C1B 5565   9.590  11.013   8.603  0.0475 -0.3217 -0.0515
  348loPI   C2B 5566   9.153  11.044   8.587 -0.1345 -0.3496 -0.1052
  348loPI   C3B 5567   8.947  10.877   8.415  0.0936 -0.3805 -0.1176
  348loPI   C4B 5568   8.714  10.575   8.222  0.0266 -0.3113 -0.0099
  349loPI    C1 5569   1.664   9.081  10.074 -0.1536 -0.1229 -0.0204
  349loPI    C2 5570   1.728   9.337  10.374 -0.1874 -0.1965  0.0500
  349loPI    C3 5571   1.715   8.944  10.446  0.1779 -0.2415 -0.1059
  349loPI   PO4 5572   1.783   9.101   9.904 -0.0198  0.0649  0.0004
  349loPI   GL1 5573   1.808   9.239   9.461 -0.5219 -0.2975  0.0374
  349loPI   GL2 5574   1.605   9.122   9.369 -0.1368  0.1916 -0.2774
  349loPI   C1A 5575   2.109   8.987   9.144 -0.0792  0.0404 -0.0991
  349loPI   C2A 5576   2.273   8.882   8.664  0.2089 -0.2537  0.0666
  349loPI   C3A 5577   2.135   8.829   8.251 -0.0520  0.0100 -0.0047
  349loPI   C4A 5578   1.986   8.900   7.925 -0.1619 -0.1012 -0.1688
  349loPI   C5A 5579   1.585   8.849   7.731 -0.1153  0.1634 -0.1700
  349loPI   C6A 5580   1.105   8.687   7.837  0.1603  0.1679 -0.2073
  349loPI   C1B 5581   1.394   8.779   8.940 -0.1544  0.2434 -0.0776
  349loPI   C2B 5582   1.391   8.653   8.499  0.1761 -0.2515 -0.1669
  349loPI   C3B 5583   1.524   8.558   8.124  0.0929  0.0909  0.4470
  349loPI   C4B 5584   1.525   8.362   7.633  0.3558 -0.1259  0.1458
  350loPI    C1 5585   4.969   9.704  10.308 -0.0813  0.0912 -0.0348
  350loPI    C2 5586   5.327   9.762  10.479 -0.1286 -0.0123  0.1015
  350loPI    C3 5587   5.065  10.064  10.455 -0.1436 -0.0115  0.2655
  350loPI   PO4 5588   5.096   9.569  10.075  0.2197  0.0231 -0.0699
  350loPI   GL1 5589   5.244   9.370   9.654  0.2685 -0.0778  0.1547
  350loPI   GL2 5590   5.347   9.034   9.768 -0.1358 -0.0869  0.1330
  350loPI   C1A 5591   4.982   9.624   9.290  0.2824  0.1975 -0.0655
  350loPI   C2A 5592   5.128   9.592   8.854  0.2387  0.1925 -0.0586
  350loPI   C3A 5593   5.344   9.545   8.486  0.1520 -0.0466  0.3505
  350loPI   C4A 5594   5.529   9.453   8.035 -0.1803 -0.0590 -0.0288
  350loPI   C5A 5595   5.803   9.318   7.789  0.0937 -0.0324  0.1780
  350loPI   C6A 5596   6.179   9.250   7.594  0.2975  0.2194  0.2162
  350loPI   C1B 5597   5.352   8.850   9.374  0.0036 -0.2000  0.1222
  350loPI   C2B 5598   5.057   8.622   9.174  0.2840 -0.0467  0.3409
  350loPI   C3B 5599   5.044   8.340   8.796  0.1766 -0.0932  0.0366
  350loPI   C4B 5600   5.300   8.224   8.373  0.2219  0.0267  0.0325
  351loPI    C1 5601  15.490   4.736   9.795  0.1109 -0.0602 -0.0948
  351loPI    C2 5602  15.719   5.062   9.829 -0.0059  0.0090  0.0333
  351loPI    C3 5603  15.539   4.909  10.152  0.0710 -0.1992 -0.0212
  351loPI   PO4 5604  15.392   4.761   9.511  0.1450  0.0584  0.3780
  351loPI   GL1 5605  15.384   5.174   9.371  0.1277 -0.1425  0.0824
  351loPI   GL2 5606  15.544   5.517   9.336 -0.1942  0.1111 -0.1987
  351loPI   C1A 5607  15.336   5.297   8.944  0.0389 -0.4264 -0.2735
  351loPI   C2A 5608  15.270   5.395   8.498  0.1678 -0.0665  0.0357
  351loPI   C3A 5609  15.211   5.470   8.030  0.2377 -0.0187  0.0731
  351loPI   C4A 5610  15.176   5.526   7.619  0.0774 -0.1559 -0.0208
  351loPI   C5A 5611  15.141   5.346   7.367  0.2878 -0.1445 -0.0777
  351loPI   C6A 5612  14.744   5.400   7.094 -0.0945 -0.0443 -0.1148
  351loPI   C1B 5613  15.551   5.784   8.937  0.2685 -0.2415 -0.2867
  351loPI   C2B 5614  15.594   5.782   8.530  0.1568 -0.2493 -0.0853
  351loPI   C3B 5615  15.720   5.723   8.071 -0.0508  0.3170 -0.2700
  351loPI   C4B 5616  15.826   5.912   7.734 -0.3938  0.1604  0.2445
  352loPI    C1 5617   6.655   1.021   9.829 -0.0188 -0.0282 -0.2190
  352loPI    C2 5618   6.743   0.649   9.947  0.2251  0.1606  0.2174
  352loPI    C3 5619   7.015   0.940   9.983 -0.0161  0.4155  0.0245
  352loPI   PO4 5620   6.486   0.969   9.495 -0.2279  0.0532 -0.2698
  352loPI   GL1 5621   6.505   1.102   9.004 -0.1350  0.0204 -0.1571
  352loPI   GL2 5622   6.637   0.807   8.963 -0.4497  0.2343 -0.0652
  352loPI   C1A 5623   6.445   1.029   8.549  0.0789  0.1545 -0.0381
  352loPI   C2A 5624   6.449   1.179   8.081  0.0285 -0.2065 -0.0109
  352loPI   C3A 5625   6.609   1.337   7.723  0.1398 -0.0138  0.1214
  352loPI   C4A 5626   6.600   1.174   7.317 -0.1239 -0.0804  0.0913
  352loPI   C5A 5627   6.536   1.346   6.984  0.1780 -0.0972 -0.1943
  352loPI   C6A 5628   6.196   1.427   6.708  0.4653  0.1750 -0.2380
  352loPI   C1B 5629   6.629   0.492   8.536  0.1898  0.0542  0.1029
  352loPI   C2B 5630   6.423   0.409   8.173  0.1877 -0.0337  0.1377
  352loPI   C3B 5631   6.107   0.342   7.997 -0.1750 -0.0120  0.3894
  352loPI   C4B 5632   5.871   0.180   7.645  0.0617  0.2289  0.0823
  353loPI    C1 5633   9.776  16.383   9.783  0.0476 -0.2025  0.1847
  353loPI    C2 5634   9.511  16.670   9.870  0.2269 -0.1012  0.4077
  353loPI    C3 5635   9.864  16.660  10.058  0.3129 -0.3373  0.2390
  353loPI   PO4 5636   9.763  16.179   9.583  0.0704  0.1391 -0.0294
  353loPI   GL1 5637   9.511  16.051   9.242  0.4002  0.0473  0.0337
  353loPI   GL2 5638   9.344  16.185   8.944  0.5254 -0.4579  0.1118
  353loPI   C1A 5639   9.772  16.145   8.791 -0.0152 -0.3088 -0.1246
  353loPI   C2A 5640   9.621  16.284   8.439  0.0528 -0.0949  0.4733
  353loPI   C3A 5641   9.744  16.413   8.039  0.0689  0.1377 -0.1497
  353loPI   C4A 5642   9.886  16.134   7.698 -0.1905 -0.1478  0.2392
  353loPI   C5A 5643  10.195  15.979   7.385  0.0027 -0.1162  0.3874
  353loPI   C6A 5644  10.404  15.792   7.116 -0.1428 -0.1939 -0.1255
  353loPI   C1B 5645   9.172  16.378   8.495  0.2864 -0.0782 -0.0467
  353loPI   C2B 5646   9.114  16.530   8.068 -0.0407 -0.1871 -0.1201
  353loPI   C3B 5647   8.965  16.639   7.605  0.0411  0.2334  0.0004
  353loPI   C4B 5648   8.711  16.956   7.448  0.2509 -0.0777  0.1060
  354loPI    C1 5649  12.031  10.187   9.963 -0.0734  0.0871  0.0765
  354loPI    C2 5650  11.989  10.020  10.324 -0.3679 -0.0030  0.0029
  354loPI    C3 5651  11.988  10.418  10.286 -0.1729  0.0097  0.1191
  354loPI   PO4 5652  12.238  10.144   9.737  0.0791 -0.0077 -0.2908
  354loPI   GL1 5653  12.149  10.293   9.274  0.4802  0.2164 -0.1271
  354loPI   GL2 5654  11.973  10.566   9.165 -0.1611 -0.0893  0.1763
  354loPI   C1A 5655  12.203  10.265   8.789  0.4420  0.2262  0.2903
  354loPI   C2A 5656  12.325  10.196   8.361  0.0446 -0.5143  0.0898
  354loPI   C3A 5657  12.200  10.108   7.867  0.0238 -0.1123  0.1605
  354loPI   C4A 5658  11.966   9.917   7.572  0.2514  0.2724 -0.0132
  354loPI   C5A 5659  11.931   9.952   7.185 -0.1078  0.2055  0.0523
  354loPI   C6A 5660  11.774   9.778   6.859  0.0353  0.4237  0.5063
  354loPI   C1B 5661  12.049  10.718   8.762  0.4380 -0.1171 -0.0060
  354loPI   C2B 5662  12.244  10.656   8.444 -0.1826  0.2127 -0.2359
  354loPI   C3B 5663  12.350  10.569   7.996 -0.3175  0.2939 -0.0249
  354loPI   C4B 5664  12.520  10.419   7.626 -0.1258 -0.0358  0.2241
  355loPI    C1 5665   2.900  17.106  10.304 -0.3226 -0.3138  0.1461
  355loPI    C2 5666   2.671  17.292  10.035 -0.0629 -0.2562 -0.0395
  355loPI    C3 5667   2.801  17.490  10.357  0.0307 -0.1795 -0.1238
  355loPI   PO4 5668   3.017  16.954  10.158  0.0049  0.4406 -0.0309
  355loPI   GL1 5669   3.102  16.887   9.688 -0.0228  0.0882  0.3691
  355loPI   GL2 5670   2.706  16.982   9.640  0.1704 -0.1402  0.0043
  355loPI   C1A 5671   3.150  16.588   9.299 -0.1072  0.2093  0.0282
  355loPI   C2A 5672   3.183  16.478   8.896  0.1146 -0.3235 -0.0404
  355loPI   C3A 5673   2.958  16.529   8.450 -0.0827 -0.1486  0.3536
  355loPI   C4A 5674   2.752  16.470   8.089  0.0153  0.0528  0.0933
  355loPI   C5A 5675   2.555  16.130   7.934  0.0230 -0.0845 -0.4218
  355loPI   C6A 5676   2.322  15.949   7.681 -0.0097 -0.3387  0.0866
  355loPI   C1B 5677   2.822  16.914   9.227 -0.0484  0.1228  0.2277
  355loPI   C2B 5678   2.853  17.005   8.784  0.0879 -0.3269  0.0236
  355loPI   C3B 5679   2.987  17.058   8.347  0.0925 -0.1202  0.0545
  355loPI   C4B 5680   3.292  17.171   8.052  0.0549 -0.1894  0.2586
  356loPI    C1 5681   5.447  19.423   9.679  0.0710  0.0313  0.0619
  356loPI    C2 5682   5.796  19.438   9.485  0.0548  0.0003  0.0300
  356loPI    C3 5683   5.602  19.776   9.574 -0.0714  0.0040 -0.2511
  356loPI   PO4 5684   5.330  19.337   9.579  0.2191 -0.2500  0.3361
  356loPI   GL1 5685   5.470  19.282   9.165  0.3035 -0.0325  0.1317
  356loPI   GL2 5686   5.097  19.200   9.163 -0.0366  0.1313  0.0160
  356loPI   C1A 5687   5.626  19.197   8.718  0.2525  0.1953 -0.2183
  356loPI   C2A 5688   5.804  18.898   8.293 -0.0245 -0.2390  0.0213
  356loPI   C3A 5689   6.163  18.646   8.119  0.0388 -0.1190 -0.1755
  356loPI   C4A 5690   6.267  18.641   7.724  0.1924  0.1428  0.1243
  356loPI   C5A 5691   6.465  18.806   7.367 -0.1288  0.2445  0.1893
  356loPI   C6A 5692   6.371  18.972   6.992 -0.0854 -0.0068  0.2319
  356loPI   C1B 5693   5.097  19.180   8.719  0.4012 -0.1086  0.0224
  356loPI   C2B 5694   4.921  19.221   8.330  0.1258  0.1311 -0.2304
  356loPI   C3B 5695   4.879  19.234   7.891 -0.0412 -0.3515 -0.0895
  356loPI   C4B 5696   4.815  18.921   7.517 -0.1020  0.1503 -0.0563
  357loPI    C1 5697   7.171   9.157   9.923 -0.2618 -0.1075  0.0172
  357loPI    C2 5698   7.042   9.393  10.219 -0.4049 -0.1244 -0.0309
  357loPI    C3 5699   6.971   9.000  10.231 -0.2054 -0.1602  0.0273
  357loPI   PO4 5700   7.132   9.264   9.723  0.2035 -0.2569 -0.0343
  357loPI   GL1 5701   6.917   9.167   9.407 -0.0456  0.1356 -0.1292
  357loPI   GL2 5702   6.745   9.486   9.254  0.0018  0.1278 -0.3555
  357loPI   C1A 5703   7.094   8.926   9.014  0.0605 -0.0104 -0.2774
  357loPI   C2A 5704   7.203   8.911   8.585 -0.0226  0.2096  0.1100
  357loPI   C3A 5705   6.903   8.926   8.174 -0.0453  0.0108 -0.0445
  357loPI   C4A 5706   6.774   8.529   7.961  0.2289 -0.2170  0.2543
  357loPI   C5A 5707   6.764   8.189   7.580 -0.0368  0.1269  0.3609
  357loPI   C6A 5708   7.156   8.029   7.467 -0.0941  0.0333 -0.0402
  357loPI   C1B 5709   6.858   9.320   8.821  0.0512 -0.2343  0.2106
  357loPI   C2B 5710   7.002   9.366   8.376 -0.2354 -0.1035 -0.1101
  357loPI   C3B 5711   7.046   9.342   7.970  0.0026 -0.1502  0.0346
  357loPI   C4B 5712   7.094   9.053   7.652 -0.3660 -0.0496 -0.0289
  358loPI    C1 5713   6.977  11.433   9.484  0.0044 -0.1413  0.0915
  358loPI    C2 5714   7.186  11.703   9.692 -0.0608 -0.0697  0.0641
  358loPI    C3 5715   7.029  11.385   9.878  0.3220 -0.2803  0.0356
  358loPI   PO4 5716   6.842  11.636   9.380  0.1276 -0.0114  0.3539
  358loPI   GL1 5717   6.568  11.738   9.017  0.0725  0.1904  0.0729
  358loPI   GL2 5718   6.890  11.950   8.951 -0.2016  0.2026  0.2753
  358loPI   C1A 5719   6.449  11.359   8.659 -0.1146  0.1819 -0.1266
  358loPI   C2A 5720   6.516  11.372   8.222  0.3307 -0.1329 -0.0731
  358loPI   C3A 5721   6.616  11.266   7.720  0.3010 -0.2544  0.0324
  358loPI   C4A 5722   6.684  11.415   7.350 -0.1913  0.3411  0.1631
  358loPI   C5A 5723   6.407  11.297   7.027  0.1349  0.2810 -0.4178
  358loPI   C6A 5724   6.136  11.397   6.666 -0.0497  0.4291 -0.0008
  358loPI   C1B 5725   6.883  11.724   8.536 -0.1195 -0.3831  0.1530
  358loPI   C2B 5726   6.945  11.716   8.060 -0.0444  0.1551 -0.1874
  358loPI   C3B 5727   7.090  11.723   7.574  0.0235 -0.4059 -0.0381
  358loPI   C4B 5728   6.928  11.936   7.270  0.0336 -0.0295  0.0432
  359loPI    C1 5729   2.505   1.603  10.164 -0.1067 -0.0531  0.1484
  359loPI    C2 5730   2.904   1.621  10.133 -0.1016 -0.1121  0.1798
  359loPI    C3 5731   2.716   1.829  10.419 -0.1398  0.3432 -0.1659
  359loPI   PO4 5732   2.429   1.564   9.862 -0.1229 -0.2095 -0.1539
  359loPI   GL1 5733   2.490   1.568   9.485  0.4341 -0.1050  0.1843
  359loPI   GL2 5734   2.475   1.939   9.419  0.0688  0.0317 -0.2798
  359loPI   C1A 5735   2.415   1.637   9.089  0.1438 -0.2879 -0.1466
  359loPI   C2A 5736   2.528   1.637   8.696  0.1518  0.2369  0.0414
  359loPI   C3A 5737   2.822   1.696   8.276 -0.2268 -0.0864 -0.1942
  359loPI   C4A 5738   3.231   1.931   8.022 -0.0522 -0.0006  0.1771
  359loPI   C5A 5739   3.346   2.104   7.636 -0.0029 -0.1291 -0.3065
  359loPI   C6A 5740   3.404   1.934   7.186  0.1021 -0.0673 -0.6565
  359loPI   C1B 5741   2.480   2.161   9.134  0.0305  0.1709  0.0907
  359loPI   C2B 5742   2.382   2.329   8.664  0.1948  0.2616 -0.0423
  359loPI   C3B 5743   2.426   2.238   8.250  0.0743 -0.0226  0.0452
  359loPI   C4B 5744   2.725   2.007   7.954 -0.0136 -0.3001 -0.0367
  360loPI    C1 5745  15.448  14.235   9.452 -0.1125 -0.1940  0.0614
  360loPI    C2 5746  15.722  13.959   9.550  0.2688  0.1641  0.0318
  360loPI    C3 5747  15.523  14.155   9.837 -0.0528 -0.1827  0.0523
  360loPI   PO4 5748  15.381  14.095   9.215  0.0621 -0.0398 -0.1153
  360loPI   GL1 5749  15.440  14.144   8.815 -0.0365  0.2551  0.0245
  360loPI   GL2 5750  15.681  14.037   8.576 -0.1255 -0.2180  0.1007
  360loPI   C1A 5751  15.492  14.495   8.397 -0.1471 -0.2069 -0.0665
  360loPI   C2A 5752  15.337  14.431   7.957  0.0356 -0.1539 -0.0221
  360loPI   C3A 5753  15.022  14.526   7.714  0.0735  0.3609 -0.1002
  360loPI   C4A 5754  14.775  14.351   7.493  0.0432 -0.3127 -0.5414
  360loPI   C5A 5755  14.642  14.258   7.031 -0.1330 -0.0188 -0.0355
  360loPI   C6A 5756  14.529  13.974   6.748  0.3669  0.0642 -0.1714
  360loPI   C1B 5757  15.665  14.001   8.176 -0.1731 -0.3340  0.0485
  360loPI   C2B 5758  15.564  14.057   7.746 -0.0552 -0.1433  0.0659
  360loPI   C3B 5759  15.356  14.275   7.412 -0.2187 -0.1572  0.0296
  360loPI   C4B 5760  15.106  14.379   7.084  0.1201  0.2625 -0.0015
  361loPI    C1 5761  15.274   7.062   9.875  0.0490 -0.0152 -0.0520
  361loPI    C2 5762  15.577   6.815   9.957  0.1175  0.0524 -0.0996
  361loPI    C3 5763  15.222   6.761  10.133  0.1329 -0.0774 -0.1071
  361loPI   PO4 5764  15.289   7.004   9.566  0.0566 -0.0477 -0.1617
  361loPI   GL1 5765  15.084   7.282   9.229 -0.1540  0.0365 -0.2984
  361loPI   GL2 5766  15.400   7.234   9.046 -0.0772  0.1353 -0.2634
  361loPI   C1A 5767  15.018   7.296   8.774 -0.0550  0.0908 -0.0540
  361loPI   C2A 5768  15.147   7.382   8.318  0.1309  0.0747 -0.3429
  361loPI   C3A 5769  15.158   7.125   7.919 -0.1225 -0.0078  0.1667
  361loPI   C4A 5770  15.214   7.245   7.464  0.1001 -0.1701  0.1900
  361loPI   C5A 5771  15.141   7.567   7.073  0.0605  0.0044 -0.1131
  361loPI   C6A 5772  15.064   7.747   6.714  0.0716  0.3675  0.1670
  361loPI   C1B 5773  15.603   7.098   8.722 -0.2049 -0.2326 -0.0891
  361loPI   C2B 5774  15.549   7.106   8.336  0.0710  0.1863  0.0364
  361loPI   C3B 5775  15.545   6.881   7.984 -0.0025  0.3073 -0.0171
  361loPI   C4B 5776  15.648   6.482   7.741  0.1834  0.1053 -0.2634
  362loPI    C1 5777   2.950  18.665  10.330  0.0067 -0.2668  0.0149
  362loPI    C2 5778   3.029  18.801  10.698 -0.1865  0.1581 -0.0940
  362loPI    C3 5779   3.207  18.468  10.565  0.3178  0.3086  0.1769
  362loPI   PO4 5780   3.021  18.875  10.204  0.0923 -0.0898 -0.1430
  362loPI   GL1 5781   3.162  18.820   9.732  0.0337  0.1575 -0.2266
  362loPI   GL2 5782   3.081  18.457   9.723  0.2128  0.2746 -0.0841
  362loPI   C1A 5783   3.134  18.841   9.288 -0.3980  0.2959 -0.1137
  362loPI   C2A 5784   3.151  18.828   8.837  0.0187  0.1547  0.1955
  362loPI   C3A 5785   3.324  18.785   8.420  0.1014 -0.1737  0.0309
  362loPI   C4A 5786   3.237  18.978   7.982 -0.0094 -0.2641 -0.1625
  362loPI   C5A 5787   3.119  19.317   7.891 -0.2242 -0.1992  0.1068
  362loPI   C6A 5788   2.858  19.533   7.629  0.1793 -0.2652  0.0458
  362loPI   C1B 5789   3.131  18.280   9.273 -0.0821 -0.0920  0.1593
  362loPI   C2B 5790   3.337  18.094   8.835  0.1812  0.2015 -0.1876
  362loPI   C3B 5791   3.340  17.824   8.520  0.1252  0.1307  0.0190
  362loPI   C4B 5792   3.170  17.584   8.257 -0.1286 -0.1601  0.3002
  363loPI    C1 5793  17.539  13.434   9.469  0.0826  0.0470 -0.0041
  363loPI    C2 5794  17.796  13.319   9.753 -0.1616 -0.1948  0.1242
  363loPI    C3 5795  17.441  13.139   9.721 -0.2961  0.0997 -0.0841
  363loPI   PO4 5796  17.653  13.383   9.173 -0.2262 -0.1653 -0.4364
  363loPI   GL1 5797  17.556  13.182   8.831 -0.1479 -0.2167  0.3824
  363loPI   GL2 5798  17.907  13.023   8.737 -0.1388 -0.0425 -0.0473
  363loPI   C1A 5799  17.341  13.204   8.431 -0.0971 -0.2207  0.2716
  363loPI   C2A 5800  17.182  13.195   7.960  0.2206  0.0037 -0.1543
  363loPI   C3A 5801  17.055  13.290   7.522 -0.0541  0.1798 -0.0952
  363loPI   C4A 5802  17.196  13.619   7.160 -0.2715 -0.2023  0.0175
  363loPI   C5A 5803  17.460  13.962   7.208 -0.1461  0.1159 -0.0875
  363loPI   C6A 5804  17.389  14.411   7.213 -0.1639  0.0229 -0.1549
  363loPI   C1B 5805  18.032  12.906   8.240  0.0470  0.2374  0.1859
  363loPI   C2B 5806  18.369  13.047   7.877 -0.1731 -0.0944 -0.3201
  363loPI   C3B 5807  18.716  12.857   7.870 -0.2269  0.0383  0.3481
  363loPI   C4B 5808  18.996  12.770   7.828 -0.1978  0.1842  0.0191
  364loPI    C1 5809  18.283   3.705  10.428  0.0057  0.1633 -0.1045
  364loPI    C2 5810  18.670   3.753  10.519  0.0491  0.0903 -0.2470
  364loPI    C3 5811  18.417   3.602  10.790  0.1051  0.2085 -0.1281
  364loPI   PO4 5812  18.185   3.924  10.343 -0.1813  0.2539  0.1935
  364loPI   GL1 5813  18.292   4.289  10.133  0.1152 -0.0738 -0.1423
  364loPI   GL2 5814  18.644   4.253  10.278  0.1126 -0.2773 -0.1111
  364loPI   C1A 5815  18.152   4.439   9.721 -0.2248  0.0628  0.1533
  364loPI   C2A 5816  18.198   4.360   9.283 -0.1332 -0.1914  0.1383
  364loPI   C3A 5817  18.448   4.083   9.037 -0.0274 -0.1386 -0.4162
  364loPI   C4A 5818  18.514   3.833   8.597 -0.1517  0.1011 -0.1266
  364loPI   C5A 5819  18.610   3.800   8.180 -0.0276 -0.0299 -0.0402
  364loPI   C6A 5820  18.795   3.711   7.715 -0.1158 -0.2782  0.5135
  364loPI   C1B 5821  18.728   4.274   9.859 -0.1316  0.0178  0.0457
  364loPI   C2B 5822  18.524   4.038   9.606  0.1137  0.2803  0.1899
  364loPI   C3B 5823  18.607   3.567   9.383  0.0356  0.0739  0.1783
  364loPI   C4B 5824  18.812   3.100   9.357 -0.2470  0.2892 -0.0306
  365loPI    C1 5825  13.990  10.786   9.725 -0.0204  0.0941 -0.1124
  365loPI    C2 5826  13.668  10.664   9.522  0.1420 -0.1302 -0.2396
  365loPI    C3 5827  13.628  10.928   9.820 -0.1816 -0.2888 -0.1374
  365loPI   PO4 5828  14.132  10.719   9.508  0.1066  0.0880 -0.0996
  365loPI   GL1 5829  14.175  10.766   9.078  0.0904 -0.1888 -0.1892
  365loPI   GL2 5830  14.319  11.115   8.959 -0.3182  0.1485 -0.0413
  365loPI   C1A 5831  14.174  10.670   8.652  0.0679  0.1849  0.0772
  365loPI   C2A 5832  14.223  10.767   8.181  0.3702 -0.2224 -0.1230
  365loPI   C3A 5833  14.217  10.771   7.710 -0.4958 -0.0241 -0.0405
  365loPI   C4A 5834  14.253  10.821   7.320 -0.0047 -0.0602 -0.0358
  365loPI   C5A 5835  14.594  10.814   7.050 -0.3281 -0.2425 -0.3190
  365loPI   C6A 5836  14.730  10.486   6.914 -0.0057 -0.0818  0.0755
  365loPI   C1B 5837  14.237  11.182   8.555  0.1133 -0.2163  0.3088
  365loPI   C2B 5838  14.384  11.242   8.264 -0.0302 -0.1327 -0.0222
  365loPI   C3B 5839  14.508  11.086   7.857 -0.1608 -0.1361  0.2671
  365loPI   C4B 5840  14.640  11.147   7.427  0.1323  0.4122 -0.2536
  366loPI    C1 5841   9.223  14.574   9.763  0.1513  0.0279  0.0128
  366loPI    C2 5842   9.332  14.191   9.804  0.0149 -0.0108  0.0166
  366loPI    C3 5843   9.046  14.344  10.038 -0.1423  0.0110 -0.1862
  366loPI   PO4 5844   9.196  14.611   9.484 -0.1061 -0.1692  0.4097
  366loPI   GL1 5845   9.025  14.676   9.225 -0.3039  0.2990 -0.0753
  366loPI   GL2 5846   8.874  14.985   9.248 -0.1958  0.2131  0.0841
  366loPI   C1A 5847   9.370  14.871   8.899 -0.2303  0.1666  0.0440
  366loPI   C2A 5848   9.610  14.765   8.534  0.0153 -0.2729  0.2095
  366loPI   C3A 5849   9.740  14.805   7.993 -0.1674 -0.1015 -0.2420
  366loPI   C4A 5850   9.559  14.991   7.656 -0.1112  0.1594  0.0976
  366loPI   C5A 5851   9.478  15.095   7.216  0.0245 -0.2215  0.1565
  366loPI   C6A 5852   9.564  15.450   6.989 -0.2047 -0.1004  0.4671
  366loPI   C1B 5853   8.698  14.926   8.889  0.0461  0.0716  0.1869
  366loPI   C2B 5854   8.585  14.593   8.649  0.0880 -0.0003 -0.2597
  366loPI   C3B 5855   8.584  14.568   8.198  0.1161  0.0855  0.0275
  366loPI   C4B 5856   8.489  14.631   7.717  0.2840 -0.3341 -0.3244
  367loPI    C1 5857  15.034  17.171   9.109 -0.0653  0.0429 -0.3840
  367loPI    C2 5858  14.939  17.089   9.489  0.1885  0.1754 -0.2887
  367loPI    C3 5859  14.650  17.153   9.219  0.0062  0.0363 -0.1296
  367loPI   PO4 5860  15.238  17.391   9.053  0.2304  0.0706  0.1104
  367loPI   GL1 5861  15.624  17.211   8.863  0.2027 -0.2132 -0.0331
  367loPI   GL2 5862  15.609  17.027   8.738 -0.1215  0.3638 -0.1768
  367loPI   C1A 5863  15.699  17.406   8.482  0.0698  0.1406  0.0044
  367loPI   C2A 5864  15.683  17.320   8.106 -0.0558 -0.1449 -0.2454
  367loPI   C3A 5865  15.547  17.375   7.653 -0.1839 -0.0959  0.1570
  367loPI   C4A 5866  15.590  17.351   7.140 -0.1139  0.0754  0.0414
  367loPI   C5A 5867  15.515  17.539   6.756 -0.3297  0.3370  0.0839
  367loPI   C6A 5868  15.402  17.573   6.281 -0.1792  0.0119 -0.0526
  367loPI   C1B 5869  15.465  16.855   8.313  0.4452 -0.1003 -0.0242
  367loPI   C2B 5870  15.416  16.839   7.826 -0.1031  0.1217  0.0740
  367loPI   C3B 5871  15.530  16.957   7.383 -0.3637 -0.1770 -0.1857
  367loPI   C4B 5872  15.631  16.785   7.003 -0.3169 -0.0978 -0.1224
  368loPI    C1 5873  11.737   6.984  10.132 -0.0210  0.0796 -0.1150
  368loPI    C2 5874  12.075   7.150  10.266 -0.1036 -0.0216  0.2285
  368loPI    C3 5875  11.743   7.165  10.488 -0.2846 -0.0661 -0.0341
  368loPI   PO4 5876  11.728   7.080   9.904 -0.0272  0.2399 -0.0387
  368loPI   GL1 5877  11.657   6.999   9.432 -0.2923  0.5611 -0.1252
  368loPI   GL2 5878  11.762   7.297   9.390 -0.0261 -0.2104  0.0620
  368loPI   C1A 5879  11.418   6.981   8.978  0.0665 -0.1066  0.1811
  368loPI   C2A 5880  11.303   6.818   8.732 -0.1986 -0.3163 -0.1277
  368loPI   C3A 5881  11.230   6.580   8.361  0.1031  0.0298 -0.0198
  368loPI   C4A 5882  11.332   6.535   7.921 -0.0008  0.0944 -0.3594
  368loPI   C5A 5883  11.282   6.588   7.542  0.1697 -0.3288 -0.0278
  368loPI   C6A 5884  11.066   6.815   7.433 -0.2305 -0.3046  0.2505
  368loPI   C1B 5885  11.855   7.302   8.980  0.1720 -0.1334 -0.1726
  368loPI   C2B 5886  11.860   7.544   8.663 -0.1027  0.1369  0.2508
  368loPI   C3B 5887  11.737   7.627   8.308 -0.1420  0.1627 -0.0326
  368loPI   C4B 5888  11.406   7.420   8.014  0.1217  0.1633 -0.5517
  369loPI    C1 5889   3.177   2.144  10.282  0.5191  0.2028  0.1073
  369loPI    C2 5890   3.345   1.792  10.368  0.0862  0.0149  0.2123
  369loPI    C3 5891   3.173   2.007  10.658 -0.2389 -0.0066  0.0390
  369loPI   PO4 5892   3.027   2.105  10.009 -0.2732 -0.0596 -0.3597
  369loPI   GL1 5893   2.943   1.997   9.612  0.0076 -0.3246  0.0094
  369loPI   GL2 5894   2.947   1.628   9.654  0.0278  0.3423  0.0681
  369loPI   C1A 5895   2.887   1.913   9.194 -0.0468  0.3456  0.1345
  369loPI   C2A 5896   2.953   2.000   8.716  0.0376 -0.1919  0.0538
  369loPI   C3A 5897   2.996   2.204   8.316 -0.0263  0.2706  0.1074
  369loPI   C4A 5898   3.060   2.455   7.941  0.0502  0.1311  0.0910
  369loPI   C5A 5899   3.086   2.656   7.572 -0.1656  0.2400 -0.0760
  369loPI   C6A 5900   3.010   2.672   7.134  0.3756 -0.1764  0.2600
  369loPI   C1B 5901   2.884   1.402   9.190  0.0135 -0.1498 -0.3511
  369loPI   C2B 5902   2.902   1.353   8.746 -0.2024 -0.3364  0.0911
  369loPI   C3B 5903   3.062   1.263   8.321 -0.0414  0.1857 -0.1120
  369loPI   C4B 5904   2.940   1.003   7.942 -0.2228 -0.0433 -0.1109
  370loPI    C1 5905   5.985   6.935  10.235  0.1872 -0.1755  0.2729
  370loPI    C2 5906   5.820   7.288  10.327 -0.0333 -0.1884 -0.0532
  370loPI    C3 5907   6.191   7.273  10.177 -0.1945 -0.0498 -0.4798
  370loPI   PO4 5908   5.761   6.758   9.984  0.0595 -0.4514 -0.0410
  370loPI   GL1 5909   5.539   6.814   9.524  0.2216 -0.0475 -0.1641
  370loPI   GL2 5910   5.723   7.132   9.319  0.5808  0.0241 -0.1323
  370loPI   C1A 5911   5.352   6.801   9.062 -0.0005 -0.0672 -0.0813
  370loPI   C2A 5912   5.139   6.889   8.643  0.0293 -0.0501  0.2900
  370loPI   C3A 5913   5.193   6.971   8.217  0.1626 -0.2188 -0.1519
  370loPI   C4A 5914   5.459   6.836   7.914  0.3702 -0.2560  0.0697
  370loPI   C5A 5915   5.225   6.952   7.477  0.0542  0.0538  0.2709
  370loPI   C6A 5916   5.363   7.388   7.319  0.4991 -0.0527 -0.1669
  370loPI   C1B 5917   5.824   7.162   8.897  0.2104 -0.0121  0.2694
  370loPI   C2B 5918   6.056   7.258   8.471  0.2869  0.1063 -0.0110
  370loPI   C3B 5919   6.297   7.598   8.424 -0.3605 -0.3098 -0.2320
  370loPI   C4B 5920   6.574   7.902   8.066 -0.0264 -0.0757  0.0545
  371loPI    C1 5921   8.956  13.042   9.439  0.0559 -0.0645 -0.0893
  371loPI    C2 5922   9.109  13.329   9.671 -0.0293  0.0246 -0.1425
  371loPI    C3 5923   8.840  13.074   9.821  0.0147 -0.0013 -0.1071
  371loPI   PO4 5924   8.953  13.163   9.196 -0.1007 -0.0699  0.0036
  371loPI   GL1 5925   8.796  13.014   8.793 -0.0864  0.3217 -0.0587
  371loPI   GL2 5926   8.542  13.279   8.688 -0.1125 -0.1406 -0.0978
  371loPI   C1A 5927   8.987  12.982   8.406 -0.0389 -0.3778  0.0852
  371loPI   C2A 5928   8.997  13.285   8.002 -0.4083  0.1258 -0.0609
  371loPI   C3A 5929   9.046  13.251   7.628  0.0606 -0.0573  0.1901
  371loPI   C4A 5930   8.919  13.112   7.227  0.0657 -0.1313 -0.3592
  371loPI   C5A 5931   8.886  12.721   6.845  0.0420  0.0462 -0.3753
  371loPI   C6A 5932   8.668  12.601   6.478 -0.1638 -0.0326 -0.1316
  371loPI   C1B 5933   8.473  13.364   8.276  0.0877  0.1092 -0.1569
  371loPI   C2B 5934   8.527  13.278   7.829 -0.1730  0.1740 -0.2555
  371loPI   C3B 5935   8.552  13.027   7.497 -0.0721 -0.5814 -0.1795
  371loPI   C4B 5936   8.492  13.246   7.087 -0.1590  0.2769 -0.0326
  372loPI    C1 5937  12.725  11.700   9.577  0.1960  0.2594  0.2907
  372loPI    C2 5938  12.481  11.804   9.876 -0.0860 -0.0727  0.1823
  372loPI    C3 5939  12.731  11.495   9.920  0.0521  0.0354  0.1619
  372loPI   PO4 5940  12.493  11.684   9.325  0.0225 -0.3313 -0.2263
  372loPI   GL1 5941  12.294  11.683   8.932 -0.1933  0.0963 -0.1177
  372loPI   GL2 5942  12.093  12.021   8.977  0.1280  0.0730  0.2688
  372loPI   C1A 5943  12.275  11.626   8.535 -0.1516 -0.0300 -0.1449
  372loPI   C2A 5944  12.358  11.652   8.083  0.1774 -0.1131  0.1808
  372loPI   C3A 5945  12.351  11.632   7.562  0.2096  0.4358 -0.1907
  372loPI   C4A 5946  12.140  11.393   7.344  0.1837  0.0329 -0.1019
  372loPI   C5A 5947  11.954  11.104   7.024  0.1444 -0.2456  0.0450
  372loPI   C6A 5948  11.771  10.791   6.745 -0.2570 -0.1770  0.1100
  372loPI   C1B 5949  12.146  12.095   8.547  0.0496 -0.4612  0.0378
  372loPI   C2B 5950  12.080  12.019   8.110  0.4106  0.1724 -0.3482
  372loPI   C3B 5951  11.749  12.154   7.819  0.0102  0.1026  0.0082
  372loPI   C4B 5952  11.623  12.423   7.444  0.1204 -0.5009  0.1487
  373loPI    C1 5953   2.213   3.855  10.628  0.2369 -0.1015 -0.1166
  373loPI    C2 5954   2.090   3.496  10.756  0.0597 -0.0025 -0.0056
  373loPI    C3 5955   2.472   3.605  10.804  0.0686 -0.0967  0.1435
  373loPI   PO4 5956   2.062   3.860  10.373 -0.0970 -0.0451  0.1543
  373loPI   GL1 5957   2.112   4.020   9.955  0.4910  0.1996 -0.3896
  373loPI   GL2 5958   1.846   4.252   9.960  0.0611  0.1224 -0.1160
  373loPI   C1A 5959   2.400   3.954   9.589  0.2839 -0.0244 -0.1719
  373loPI   C2A 5960   2.352   3.889   9.113  0.1946  0.1097 -0.1148
  373loPI   C3A 5961   2.326   3.770   8.721 -0.6016  0.0334 -0.2260
  373loPI   C4A 5962   2.373   3.768   8.190 -0.0454 -0.1438 -0.0545
  373loPI   C5A 5963   2.478   3.449   7.998  0.0235 -0.1958  0.1782
  373loPI   C6A 5964   2.359   3.101   7.875  0.0616  0.1887  0.0647
  373loPI   C1B 5965   2.165   4.521   9.833 -0.2163  0.2540  0.2494
  373loPI   C2B 5966   2.363   4.576   9.517 -0.2556 -0.1892 -0.1955
  373loPI   C3B 5967   2.637   4.715   9.316 -0.2664  0.1320  0.0387
  373loPI   C4B 5968   3.079   4.884   9.546 -0.1856  0.3403  0.1673
  374loPI    C1 5969  13.137  15.483   9.407  0.0854  0.0785 -0.1427
  374loPI    C2 5970  13.489  15.624   9.535  0.0692 -0.0219  0.0141
  374loPI    C3 5971  13.474  15.280   9.332  0.0308 -0.1822  0.2831
  374loPI   PO4 5972  12.940  15.582   9.154 -0.1183  0.0488  0.0274
  374loPI   GL1 5973  13.076  15.678   8.728 -0.1271 -0.0967  0.2845
  374loPI   GL2 5974  12.957  15.996   8.787  0.1425 -0.1348 -0.1854
  374loPI   C1A 5975  13.007  15.794   8.282  0.1146 -0.1052  0.0236
  374loPI   C2A 5976  12.934  15.747   7.897 -0.1369 -0.0673  0.0103
  374loPI   C3A 5977  13.109  15.406   7.600 -0.1232 -0.0768 -0.0000
  374loPI   C4A 5978  13.089  15.411   7.178 -0.0692  0.1042 -0.4318
  374loPI   C5A 5979  13.117  15.395   6.708  0.2752  0.0381 -0.0615
  374loPI   C6A 5980  12.985  15.182   6.230  0.1303  0.2142  0.0359
  374loPI   C1B 5981  12.866  16.238   8.480  0.1015 -0.0162  0.0246
  374loPI   C2B 5982  12.747  16.279   8.063 -0.0905  0.4156 -0.0780
  374loPI   C3B 5983  13.031  16.290   7.742  0.2426  0.0378  0.1182
  374loPI   C4B 5984  13.354  16.379   7.509  0.0348 -0.0382 -0.1920
  375loPI    C1 5985  17.350   1.655  10.281  0.2677 -0.0299 -0.0216
  375loPI    C2 5986  17.180   1.492  10.605 -0.0429 -0.1417 -0.2361
  375loPI    C3 5987  17.247   1.886  10.590  0.2703 -0.1777  0.0913
  375loPI   PO4 5988  17.416   1.380  10.063 -0.1319  0.1643 -0.0711
  375loPI   GL1 5989  17.541   1.272   9.666  0.0709 -0.1536 -0.0251
  375loPI   GL2 5990  17.674   0.935   9.587  0.2309 -0.0041 -0.2425
  375loPI   C1A 5991  17.731   1.379   9.283  0.1221 -0.0947  0.0320
  375loPI   C2A 5992  17.870   1.385   8.870  0.2121 -0.3474 -0.2993
  375loPI   C3A 5993  17.893   1.349   8.421 -0.0729 -0.1543 -0.0893
  375loPI   C4A 5994  17.849   1.303   7.960  0.0587  0.1802 -0.0774
  375loPI   C5A 5995  18.072   1.198   7.685 -0.1683  0.0748 -0.1291
  375loPI   C6A 5996  18.037   1.136   7.227  0.0227 -0.0398 -0.3071
  375loPI   C1B 5997  17.499   0.735   9.200  0.0614 -0.1245  0.1914
  375loPI   C2B 5998  17.612   0.726   8.855 -0.0596 -0.0526  0.1892
  375loPI   C3B 5999  17.806   0.806   8.399 -0.1654 -0.0013  0.1857
  375loPI   C4B 6000  17.942   0.764   7.955  0.2141  0.1808 -0.1410
  376loPI    C1 6001  10.289  17.933   9.429 -0.0164  0.2642 -0.0637
  376loPI    C2 6002  10.641  18.048   9.580 -0.0345  0.3092 -0.0554
  376loPI    C3 6003  10.393  17.823   9.799  0.0900  0.0790 -0.1477
  376loPI   PO4 6004  10.348  17.910   9.191  0.1375 -0.2749 -0.1265
  376loPI   GL1 6005  10.331  17.623   8.787 -0.1083 -0.0010 -0.0930
  376loPI   GL2 6006  10.502  17.911   8.729  0.2535 -0.0664  0.1366
  376loPI   C1A 6007  10.153  17.652   8.285  0.0884 -0.0966 -0.4313
  376loPI   C2A 6008  10.284  17.828   7.817  0.0188  0.1167 -0.2389
  376loPI   C3A 6009  10.137  18.133   7.419 -0.1174 -0.2077 -0.1159
  376loPI   C4A 6010   9.801  18.319   7.192 -0.2156 -0.0391 -0.1463
  376loPI   C5A 6011   9.582  18.257   6.749 -0.1139  0.1436 -0.0265
  376loPI   C6A 6012   9.302  18.368   6.375  0.1411 -0.2297  0.0334
  376loPI   C1B 6013  10.253  18.097   8.375 -0.0965 -0.2964  0.1693
  376loPI   C2B 6014   9.920  18.193   8.039  0.4350 -0.2619 -0.0879
  376loPI   C3B 6015   9.758  18.260   7.694  0.1021 -0.0808 -0.0557
  376loPI   C4B 6016   9.383  18.487   7.549  0.0709  0.0328  0.0167
  377loPI    C1 6017  15.373   5.424   9.931 -0.0066  0.0021 -0.0863
  377loPI    C2 6018  15.220   5.263  10.264  0.1037  0.0640 -0.0051
  377loPI    C3 6019  15.171   5.079   9.912 -0.0623  0.0275  0.0365
  377loPI   PO4 6020  15.370   5.744   9.747  0.1481  0.2494  0.2911
  377loPI   GL1 6021  15.208   5.932   9.343  0.0245 -0.1842 -0.0692
  377loPI   GL2 6022  14.865   6.011   9.311 -0.1312  0.1973  0.0728
  377loPI   C1A 6023  15.038   5.794   8.882 -0.0285 -0.0277 -0.0930
  377loPI   C2A 6024  14.764   5.671   8.553  0.0303 -0.2864 -0.0512
  377loPI   C3A 6025  14.777   5.767   8.163  0.2597 -0.1207 -0.0182
  377loPI   C4A 6026  14.714   5.578   7.711 -0.1121  0.1193  0.0223
  377loPI   C5A 6027  14.429   5.675   7.345  0.1517 -0.1677 -0.2678
  377loPI   C6A 6028  14.139   6.025   7.293 -0.1425 -0.0561 -0.2394
  377loPI   C1B 6029  14.964   6.313   8.918 -0.1650  0.1542  0.2794
  377loPI   C2B 6030  14.996   6.222   8.498 -0.0028  0.0667 -0.1469
  377loPI   C3B 6031  15.218   5.915   8.263  0.0546 -0.2907 -0.0879
  377loPI   C4B 6032  15.359   6.106   7.965  0.0655  0.1000 -0.1496
  378loPI    C1 6033  12.780   6.404   9.534  0.0051 -0.1548 -0.0832
  378loPI    C2 6034  12.772   6.174   9.861  0.0847  0.0212  0.0446
  378loPI    C3 6035  12.617   6.542   9.872  0.0317  0.0053 -0.1348
  378loPI   PO4 6036  13.015   6.395   9.430  0.2343  0.2120 -0.0865
  378loPI   GL1 6037  13.140   6.368   9.074  0.1141 -0.2977 -0.2928
  378loPI   GL2 6038  13.271   6.509   8.839  0.0760 -0.1191  0.0294
  378loPI   C1A 6039  12.806   6.361   8.698 -0.0623  0.1370 -0.4195
  378loPI   C2A 6040  12.600   6.518   8.375 -0.1210  0.1924 -0.0638
  378loPI   C3A 6041  12.700   6.676   8.048  0.0936  0.2311 -0.1998
  378loPI   C4A 6042  12.721   6.617   7.575 -0.0335 -0.3303  0.1012
  378loPI   C5A 6043  12.507   6.701   7.172  0.1712  0.1475 -0.2279
  378loPI   C6A 6044  12.406   6.507   6.795 -0.0602  0.0142  0.2458
  378loPI   C1B 6045  13.151   6.476   8.375  0.2055 -0.0408  0.4632
  378loPI   C2B 6046  13.142   6.520   7.923 -0.0022 -0.2719 -0.1450
  378loPI   C3B 6047  13.461   6.480   7.527 -0.5202 -0.0199 -0.1475
  378loPI   C4B 6048  13.645   6.314   7.155 -0.0315 -0.2063  0.2505
  379loPI    C1 6049   2.169  10.638   9.555  0.0260 -0.1373  0.1775
  379loPI    C2 6050   1.892  10.527   9.822 -0.1995  0.0382  0.0203
  379loPI    C3 6051   2.167  10.801   9.920 -0.4536  0.3100 -0.0130
  379loPI   PO4 6052   2.191  10.568   9.306 -0.1742  0.0876 -0.3983
  379loPI   GL1 6053   2.297  10.484   8.852 -0.0323  0.3211 -0.4346
  379loPI   GL2 6054   2.596  10.240   9.004  0.0852 -0.1242  0.2452
  379loPI   C1A 6055   2.344  10.564   8.406 -0.1997 -0.1708  0.0452
  379loPI   C2A 6056   2.371  10.597   7.957  0.2533 -0.1505 -0.0325
  379loPI   C3A 6057   2.340  10.773   7.558 -0.2313  0.2090  0.4568
  379loPI   C4A 6058   2.440  10.724   7.204 -0.1437 -0.3784 -0.2331
  379loPI   C5A 6059   2.248  10.732   6.748  0.2463 -0.0453 -0.0302
  379loPI   C6A 6060   2.131  10.421   6.461 -0.2476  0.2729  0.2059
  379loPI   C1B 6061   2.733  10.049   8.568  0.0900 -0.0395 -0.0310
  379loPI   C2B 6062   2.659  10.180   8.111  0.1239  0.0596 -0.0950
  379loPI   C3B 6063   2.525  10.121   7.751 -0.2191  0.0256  0.1347
  379loPI   C4B 6064   2.308  10.112   7.378  0.2065 -0.0816 -0.1842
  380loPI    C1 6065   7.257  13.955   9.535 -0.1240  0.0958  0.1207
  380loPI    C2 6066   7.250  13.604   9.343  0.2280  0.1436  0.0140
  380loPI    C3 6067   6.927  13.729   9.544  0.0765 -0.2077 -0.0044
  380loPI   PO4 6068   7.408  14.086   9.374  0.1176  0.0510  0.0428
  380loPI   GL1 6069   7.305  14.391   9.094  0.0646  0.2834  0.0440
  380loPI   GL2 6070   7.522  14.520   9.018 -0.0714  0.3378 -0.1154
  380loPI   C1A 6071   7.269  14.237   8.626 -0.1028  0.0957  0.1202
  380loPI   C2A 6072   7.288  14.226   8.279  0.0074  0.0675 -0.0857
  380loPI   C3A 6073   7.504  14.396   7.908 -0.1336  0.2693  0.0155
  380loPI   C4A 6074   7.477  14.280   7.460  0.0256  0.2399 -0.0099
  380loPI   C5A 6075   7.218  14.224   7.241  0.0120  0.0537  0.0462
  380loPI   C6A 6076   6.835  14.277   6.936  0.2787 -0.0200  0.0293
  380loPI   C1B 6077   7.673  14.615   8.556  0.1718  0.1523 -0.3152
  380loPI   C2B 6078   7.684  14.821   8.188 -0.0617  0.2127 -0.1641
  380loPI   C3B 6079   7.637  14.886   7.830  0.2283 -0.1397 -0.0886
  380loPI   C4B 6080   7.730  14.882   7.393  0.0653  0.2816  0.2825
  381loPI    C1 6081  16.376   3.389   9.834  0.1962  0.3969 -0.2273
  381loPI    C2 6082  16.063   3.337   9.590  0.1638  0.3910 -0.1844
  381loPI    C3 6083  16.009   3.343   9.987  0.2618  0.0674 -0.1637
  381loPI   PO4 6084  16.602   3.516   9.726  0.1980 -0.5189 -0.2450
  381loPI   GL1 6085  16.479   3.721   9.380 -0.0135 -0.0837 -0.1970
  381loPI   GL2 6086  16.239   3.673   9.282  0.3506  0.0225 -0.1771
  381loPI   C1A 6087  16.797   3.825   8.950  0.0695  0.0176 -0.3748
  381loPI   C2A 6088  17.042   3.821   8.691 -0.5451  0.0320  0.5949
  381loPI   C3A 6089  17.261   3.932   8.362 -0.2416 -0.0867  0.2714
  381loPI   C4A 6090  17.737   3.936   8.168  0.3643  0.2135 -0.0357
  381loPI   C5A 6091  18.034   3.580   8.165 -0.0511  0.0384 -0.1220
  381loPI   C6A 6092  18.316   3.254   8.399 -0.0230  0.1627 -0.1126
  381loPI   C1B 6093  16.355   3.565   8.823 -0.0106 -0.4034 -0.0962
  381loPI   C2B 6094  16.616   3.583   8.444 -0.1587  0.2064  0.0909
  381loPI   C3B 6095  16.967   3.549   8.224 -0.1197 -0.1106 -0.1629
  381loPI   C4B 6096  17.321   3.819   7.870  0.0354 -0.2206 -0.2017
  382loPI    C1 6097   5.856   2.083   9.780 -0.1311 -0.0064 -0.0435
  382loPI    C2 6098   5.767   2.311  10.097  0.0468 -0.0388  0.0312
  382loPI    C3 6099   6.121   2.127  10.076 -0.0732 -0.2647 -0.0545
  382loPI   PO4 6100   5.662   2.170   9.631 -0.0923  0.0987  0.2688
  382loPI   GL1 6101   5.585   2.454   9.305  0.2356 -0.1265  0.0830
  382loPI   GL2 6102   5.793   2.309   9.018  0.2819 -0.3297  0.1361
  382loPI   C1A 6103   5.303   2.615   9.002 -0.0359 -0.1008 -0.3262
  382loPI   C2A 6104   5.208   2.465   8.696  0.0171  0.0812 -0.0364
  382loPI   C3A 6105   5.006   2.612   8.285  0.1135 -0.1055 -0.0847
  382loPI   C4A 6106   5.094   2.586   7.804  0.0563  0.1958  0.0081
  382loPI   C5A 6107   4.852   2.553   7.373 -0.2479 -0.0984  0.0396
  382loPI   C6A 6108   4.655   2.694   7.009  0.0662  0.2310  0.1353
  382loPI   C1B 6109   5.735   2.242   8.607  0.2844  0.1348  0.0053
  382loPI   C2B 6110   5.501   2.262   8.279  0.0425 -0.2771  0.0367
  382loPI   C3B 6111   5.319   2.074   7.942 -0.0624 -0.1900 -0.1179
  382loPI   C4B 6112   5.203   2.140   7.484 -0.0799  0.4902 -0.1237
  383loPI    C1 6113   8.861   8.093   9.938  0.1658  0.1322  0.1911
  383loPI    C2 6114   8.814   7.800  10.207  0.0713  0.0077  0.0404
  383loPI    C3 6115   8.811   8.182  10.325 -0.0655 -0.0425  0.2034
  383loPI   PO4 6116   8.689   7.944   9.714 -0.1964 -0.3045 -0.0557
  383loPI   GL1 6117   8.761   7.878   9.242 -0.0388 -0.2598 -0.1093
  383loPI   GL2 6118   8.598   7.858   8.976  0.1567  0.0452  0.0356
  383loPI   C1A 6119   9.145   7.871   8.924  0.5418  0.2396 -0.0939
  383loPI   C2A 6120   9.311   7.832   8.496 -0.0441 -0.0879  0.0623
  383loPI   C3A 6121   9.437   7.898   8.064  0.2784  0.0584  0.3638
  383loPI   C4A 6122   9.563   7.741   7.635  0.1241 -0.2087  0.0587
  383loPI   C5A 6123   9.281   7.767   7.296  0.0897 -0.0803 -0.0097
  383loPI   C6A 6124   9.081   8.014   6.968  0.2820  0.2642 -0.1917
  383loPI   C1B 6125   8.824   7.830   8.544 -0.2255 -0.0838  0.0393
  383loPI   C2B 6126   8.874   7.879   8.062  0.1755 -0.1026  0.1849
  383loPI   C3B 6127   8.639   7.720   7.651  0.0107  0.0006  0.0571
  383loPI   C4B 6128   8.209   7.529   7.541  0.2341 -0.0857  0.1479
  384loPI    C1 6129   0.371   7.458  10.207  0.0876 -0.1273  0.0930
  384loPI    C2 6130   0.035   7.414  10.420  0.0737 -0.3219  0.0321
  384loPI    C3 6131   0.392   7.372  10.597  0.0708  0.0386  0.1316
  384loPI   PO4 6132   0.334   7.525  10.003 -0.2176 -0.0066  0.1044
  384loPI   GL1 6133   0.373   7.220   9.712  0.1359  0.1299  0.2177
  384loPI   GL2 6134   0.633   7.094   9.875 -0.1584 -0.2386 -0.0025
  384loPI   C1A 6135   0.332   7.307   9.374 -0.0837 -0.0913 -0.1661
  384loPI   C2A 6136   0.482   7.462   9.070 -0.1484  0.3636  0.0468
  384loPI   C3A 6137   0.696   7.539   8.691 -0.1301 -0.0811 -0.2369
  384loPI   C4A 6138   1.012   7.404   8.426 -0.1748 -0.0651  0.0165
  384loPI   C5A 6139   1.205   7.229   8.013 -0.0310 -0.4100 -0.0581
  384loPI   C6A 6140   1.278   7.413   7.665  0.1418 -0.2513 -0.2311
  384loPI   C1B 6141   0.602   6.824   9.486 -0.0758 -0.1130  0.0919
  384loPI   C2B 6142   0.345   6.946   9.056 -0.1545 -0.2085  0.0425
  384loPI   C3B 6143   0.316   6.982   8.569 -0.0353  0.3971  0.1396
  384loPI   C4B 6144   0.214   6.799   8.075  0.0566  0.0382 -0.0661
  385loPI    C1 6145   4.305  16.088   9.772  0.0171  0.0521 -0.2335
  385loPI    C2 6146   4.482  16.129  10.128 -0.0130 -0.1779 -0.1905
  385loPI    C3 6147   4.447  16.445   9.885 -0.2052  0.0376  0.1086
  385loPI   PO4 6148   4.468  15.886   9.663 -0.3043 -0.1937 -0.1335
  385loPI   GL1 6149   4.173  15.846   9.363  0.0166  0.0134  0.1768
  385loPI   GL2 6150   4.092  16.196   9.349  0.0489 -0.0175  0.0454
  385loPI   C1A 6151   4.366  16.039   9.017  0.0564 -0.4175  0.1429
  385loPI   C2A 6152   4.423  16.001   8.579 -0.3591  0.0684 -0.0516
  385loPI   C3A 6153   4.565  16.194   8.282 -0.0383  0.2931  0.0848
  385loPI   C4A 6154   4.845  16.341   8.008 -0.0320 -0.1382 -0.0633
  385loPI   C5A 6155   4.954  16.680   7.662  0.2935  0.1430  0.5416
  385loPI   C6A 6156   4.770  16.772   7.262 -0.1916  0.1727  0.5335
  385loPI   C1B 6157   3.701  16.350   9.287  0.0364 -0.2055 -0.1809
  385loPI   C2B 6158   3.656  16.346   8.747 -0.2679 -0.0811  0.0491
  385loPI   C3B 6159   3.341  16.167   8.448  0.0126 -0.2845  0.0457
  385loPI   C4B 6160   3.148  16.134   8.037  0.1508 -0.0454 -0.1745
  386loPI    C1 6161   8.383   4.541   9.413  0.1318  0.1455  0.1626
  386loPI    C2 6162   8.372   4.645   9.799 -0.1457  0.2292  0.1345
  386loPI    C3 6163   8.200   4.879   9.523  0.0308  0.1583 -0.0382
  386loPI   PO4 6164   8.320   4.314   9.434 -0.2508  0.2008  0.2917
  386loPI   GL1 6165   8.599   4.036   9.063  0.0696  0.1600 -0.2172
  386loPI   GL2 6166   8.902   4.207   9.092  0.2263  0.0278 -0.0092
  386loPI   C1A 6167   8.226   4.034   8.815  0.0935 -0.3837  0.2457
  386loPI   C2A 6168   8.020   4.236   8.380  0.1138 -0.1314 -0.1280
  386loPI   C3A 6169   7.906   4.132   7.951  0.2300  0.1384  0.1541
  386loPI   C4A 6170   7.503   4.029   7.724 -0.0991 -0.2456 -0.1827
  386loPI   C5A 6171   7.218   4.098   7.406  0.1922  0.0123  0.1611
  386loPI   C6A 6172   6.866   3.930   7.097  0.1604  0.4597 -0.1690
  386loPI   C1B 6173   8.680   4.244   8.676  0.0547  0.1338 -0.1727
  386loPI   C2B 6174   8.497   4.373   8.279  0.1513 -0.3029  0.1762
  386loPI   C3B 6175   8.441   4.498   7.834  0.0900 -0.2866 -0.2564
  386loPI   C4B 6176   8.135   4.450   7.512  0.0932  0.0897  0.0130
  387loPI    C1 6177   0.883   2.426  10.873 -0.3028  0.3214  0.3929
  387loPI    C2 6178   0.772   2.075  11.028  0.2805 -0.0172  0.0771
  387loPI    C3 6179   0.928   2.357  11.264 -0.0244 -0.0321  0.3028
  387loPI   PO4 6180   0.911   2.396  10.535 -0.1234  0.2816  0.0156
  387loPI   GL1 6181   1.017   2.421  10.101 -0.3377  0.2902  0.0742
  387loPI   GL2 6182   1.352   2.475  10.108  0.0550 -0.0676 -0.1454
  387loPI   C1A 6183   1.248   2.183   9.734  0.0143  0.1121  0.2135
  387loPI   C2A 6184   1.285   2.433   9.388  0.3570  0.2072  0.1190
  387loPI   C3A 6185   1.267   2.544   8.977 -0.2850 -0.1222 -0.0056
  387loPI   C4A 6186   1.312   2.528   8.552 -0.1472  0.0916 -0.1863
  387loPI   C5A 6187   1.423   2.516   8.125 -0.1114 -0.1736 -0.0670
  387loPI   C6A 6188   1.725   2.341   7.849  0.3379  0.3498 -0.1249
  387loPI   C1B 6189   1.293   2.697   9.769 -0.3872  0.0172  0.2371
  387loPI   C2B 6190   1.409   2.916   9.394  0.1561 -0.0675 -0.1103
  387loPI   C3B 6191   1.652   2.881   8.897 -0.1233  0.1838 -0.1032
  387loPI   C4B 6192   1.817   2.899   8.432 -0.1375 -0.1252 -0.2487
  388loPI    C1 6193  15.495  11.174   9.433  0.2070 -0.0393  0.0211
  388loPI    C2 6194  15.739  11.030   9.152  0.2140 -0.2185  0.1178
  388loPI    C3 6195  15.532  10.779   9.385  0.1736 -0.0708  0.2424
  388loPI   PO4 6196  15.480  11.419   9.375 -0.2378 -0.0531  0.0000
  388loPI   GL1 6197  15.583  11.468   9.007 -0.0684  0.1558  0.1123
  388loPI   GL2 6198  15.342  11.367   8.895  0.2095 -0.0837  0.0314
  388loPI   C1A 6199  15.770  11.319   8.708 -0.4619  0.0995 -0.2559
  388loPI   C2A 6200  15.634  11.489   8.374  0.0917 -0.0723 -0.0213
  388loPI   C3A 6201  15.693  11.466   7.920  0.3430  0.1535 -0.0508
  388loPI   C4A 6202  15.663  11.880   7.560  0.0266  0.0220  0.1602
  388loPI   C5A 6203  15.626  11.829   7.130 -0.2520  0.2216  0.2142
  388loPI   C6A 6204  15.711  12.062   6.856 -0.0463 -0.0286  0.1275
  388loPI   C1B 6205  15.233  11.228   8.517 -0.1390  0.2435 -0.0981
  388loPI   C2B 6206  15.438  11.073   8.137 -0.0036  0.0926  0.3248
  388loPI   C3B 6207  15.480  11.035   7.702 -0.3528  0.3406 -0.1482
  388loPI   C4B 6208  15.584  11.392   7.391  0.3834  0.3065 -0.2523
  389loPI    C1 6209   2.067   2.991  10.508  0.3032  0.0684 -0.0159
  389loPI    C2 6210   2.324   3.082  10.800  0.0852  0.1116  0.1649
  389loPI    C3 6211   2.307   2.709  10.658  0.1594  0.0794  0.2398
  389loPI   PO4 6212   1.911   3.151  10.430  0.1145  0.0658  0.2481
  389loPI   GL1 6213   1.805   3.492  10.149 -0.0095  0.0414 -0.1122
  389loPI   GL2 6214   2.028   3.478   9.904  0.2926 -0.0692  0.2454
  389loPI   C1A 6215   1.527   3.773   9.943  0.1770 -0.0634  0.1963
  389loPI   C2A 6216   1.467   4.055   9.576 -0.1215 -0.0806  0.3571
  389loPI   C3A 6217   1.659   3.977   9.201  0.3920  0.3918  0.0486
  389loPI   C4A 6218   1.866   4.006   8.812  0.0875 -0.1560  0.4083
  389loPI   C5A 6219   1.878   3.790   8.411 -0.1398  0.0537 -0.3411
  389loPI   C6A 6220   1.919   3.821   8.014 -0.1955  0.2737 -0.0060
  389loPI   C1B 6221   1.923   3.757   9.617 -0.0879  0.1350  0.2195
  389loPI   C2B 6222   1.943   4.178   9.517 -0.1093 -0.4666 -0.0762
  389loPI   C3B 6223   2.066   4.334   9.201  0.0802  0.3847 -0.1380
  389loPI   C4B 6224   2.254   4.590   8.833  0.1415  0.1810  0.1776
  390loPI    C1 6225  12.914   9.888   9.905 -0.0679  0.1184 -0.1770
  390loPI    C2 6226  13.300   9.783   9.892 -0.1773 -0.2758 -0.4360
  390loPI    C3 6227  13.118   9.831  10.244  0.2022  0.3035 -0.3046
  390loPI   PO4 6228  12.734   9.861   9.712  0.0900  0.0159 -0.1287
  390loPI   GL1 6229  12.459   9.876   9.373 -0.1367  0.0603 -0.0774
  390loPI   GL2 6230  12.486   9.692   9.232  0.1442  0.0821  0.0911
  390loPI   C1A 6231  12.680  10.253   9.077 -0.2605  0.2396 -0.0807
  390loPI   C2A 6232  12.666  10.462   8.643  0.3717  0.0526 -0.1653
  390loPI   C3A 6233  12.986  10.407   8.265 -0.1365 -0.0976 -0.4871
  390loPI   C4A 6234  12.845  10.706   7.961 -0.1370 -0.0668 -0.0621
  390loPI   C5A 6235  12.860  10.743   7.517 -0.0578 -0.2113  0.3025
  390loPI   C6A 6236  12.825  10.814   7.133 -0.2388  0.3712 -0.1743
  390loPI   C1B 6237  12.447   9.820   8.770  0.1565 -0.0287 -0.1554
  390loPI   C2B 6238  12.738   9.979   8.399 -0.5123 -0.0982 -0.3186
  390loPI   C3B 6239  12.769  10.019   7.957 -0.0508 -0.0289  0.0842
  390loPI   C4B 6240  13.060  10.351   7.736 -0.2500  0.0949  0.0057
  391loPI    C1 6241  13.565   2.001   9.737  0.1088 -0.5558  0.0102
  391loPI    C2 6242  13.675   1.843  10.088 -0.1618  0.0176  0.3695
  391loPI    C3 6243  13.301   1.977  10.038 -0.0336  0.2420 -0.0290
  391loPI   PO4 6244  13.704   1.911   9.550  0.2278 -0.1433 -0.0096
  391loPI   GL1 6245  13.638   1.710   9.206  0.4016 -0.3166  0.1177
  391loPI   GL2 6246  13.858   1.542   9.131 -0.0260 -0.2034  0.4392
  391loPI   C1A 6247  13.493   1.744   8.703  0.0703 -0.0981 -0.0612
  391loPI   C2A 6248  13.579   1.912   8.313 -0.2267  0.3972  0.4393
  391loPI   C3A 6249  13.886   2.206   8.063  0.0457 -0.0558 -0.0810
  391loPI   C4A 6250  14.094   2.254   7.639  0.2358  0.1039  0.0463
  391loPI   C5A 6251  14.284   2.292   7.229  0.0055 -0.4602 -0.0699
  391loPI   C6A 6252  14.298   2.131   6.822 -0.0635  0.2840 -0.2859
  391loPI   C1B 6253  13.851   1.352   8.743  0.1082  0.2947  0.1012
  391loPI   C2B 6254  13.851   1.374   8.231  0.0803  0.0435  0.3071
  391loPI   C3B 6255  13.527   1.389   7.965  0.2184 -0.0940 -0.2268
  391loPI   C4B 6256  13.311   1.324   7.570  0.2411  0.0265 -0.3328
  392loPI    C1 6257   3.793   2.208  10.325  0.0770 -0.0608 -0.1721
  392loPI    C2 6258   4.160   2.365  10.297 -0.0408  0.3562  0.4315
  392loPI    C3 6259   4.104   2.023  10.497  0.0615  0.1007  0.0337
  392loPI   PO4 6260   3.652   2.103  10.148 -0.1634  0.2032 -0.1496
  392loPI   GL1 6261   3.619   2.099   9.653 -0.3804  0.1411  0.3138
  392loPI   GL2 6262   3.394   2.220   9.600 -0.1803  0.2791 -0.1717
  392loPI   C1A 6263   3.807   2.422   9.320  0.2579 -0.0019 -0.0814
  392loPI   C2A 6264   4.020   2.423   9.029 -0.0105  0.0854  0.2378
  392loPI   C3A 6265   3.961   2.515   8.594 -0.0610 -0.5855  0.0037
  392loPI   C4A 6266   4.038   2.541   8.148  0.0159 -0.0299  0.3831
  392loPI   C5A 6267   3.827   2.290   7.826 -0.1950 -0.2237  0.0763
  392loPI   C6A 6268   3.782   2.157   7.419 -0.4759  0.0959 -0.3455
  392loPI   C1B 6269   3.351   2.197   9.148 -0.0580 -0.0311 -0.1096
  392loPI   C2B 6270   3.371   2.373   8.685 -0.3069  0.1350  0.0767
  392loPI   C3B 6271   3.520   2.359   8.269 -0.0193  0.0415 -0.0546
  392loPI   C4B 6272   3.504   2.604   7.868 -0.1346  0.3000  0.0467
  393loPI    C1 6273   9.359   2.196   9.435  0.0805  0.3492 -0.1179
  393loPI    C2 6274   9.633   2.043   9.187 -0.0555  0.1433 -0.1436
  393loPI    C3 6275   9.618   1.923   9.568 -0.2953 -0.0661 -0.2167
  393loPI   PO4 6276   9.222   2.279   9.264  0.0632 -0.0968 -0.2117
  393loPI   GL1 6277   9.315   2.405   8.919  0.0376 -0.1393 -0.2809
  393loPI   GL2 6278   9.186   2.542   8.665  0.5408 -0.0094  0.1279
  393loPI   C1A 6279   9.635   2.202   8.663  0.1955 -0.0854 -0.0062
  393loPI   C2A 6280   9.917   2.155   8.215  0.3147 -0.3056  0.0072
  393loPI   C3A 6281   9.999   2.239   7.773  0.2261  0.4011  0.0856
  393loPI   C4A 6282  10.165   2.001   7.522  0.1952 -0.1367  0.0300
  393loPI   C5A 6283  10.383   1.879   7.212 -0.1710 -0.2470 -0.1128
  393loPI   C6A 6284  10.502   1.721   6.932 -0.2664  0.2687  0.1675
  393loPI   C1B 6285   9.332   2.498   8.356 -0.2563 -0.3702 -0.1763
  393loPI   C2B 6286   9.598   2.528   7.906  0.2026  0.1938 -0.3869
  393loPI   C3B 6287   9.788   2.643   7.544 -0.1350 -0.0490  0.1572
  393loPI   C4B 6288  10.105   2.831   7.531 -0.0727  0.3356  0.1455
  394loPI    C1 6289   2.779   2.466  10.336 -0.0656 -0.0758 -0.3168
  394loPI    C2 6290   2.441   2.271  10.421 -0.0928  0.0929 -0.0253
  394loPI    C3 6291   2.741   2.275  10.685  0.0910  0.0481 -0.2307
  394loPI   PO4 6292   2.739   2.540  10.104 -0.0688 -0.1002  0.2228
  394loPI   GL1 6293   2.853   2.509   9.728  0.1222  0.1706 -0.2104
  394loPI   GL2 6294   2.534   2.417   9.624 -0.0924  0.0427  0.0905
  394loPI   C1A 6295   2.947   2.440   9.284 -0.4001 -0.2301 -0.0835
  394loPI   C2A 6296   2.882   2.451   8.814 -0.3470 -0.3346 -0.2967
  394loPI   C3A 6297   2.886   2.732   8.387  0.0927  0.1513 -0.3236
  394loPI   C4A 6298   2.949   2.943   7.982 -0.0978 -0.1736  0.0990
  394loPI   C5A 6299   3.077   3.168   7.639  0.3128 -0.1477 -0.2678
  394loPI   C6A 6300   3.423   3.427   7.519 -0.1774 -0.2061 -0.2334
  394loPI   C1B 6301   2.292   2.549   9.294  0.1018  0.0564  0.1170
  394loPI   C2B 6302   2.041   2.504   9.007  0.3189 -0.0107  0.1685
  394loPI   C3B 6303   1.745   2.377   8.675  0.0987  0.1809  0.3743
  394loPI   C4B 6304   1.933   2.421   8.243 -0.0946  0.2968  0.1733
  395loPI    C1 6305  11.907   3.460   9.750  0.0238  0.0191 -0.1090
  395loPI    C2 6306  11.606   3.217   9.849  0.0933  0.0650  0.2295
  395loPI    C3 6307  11.914   3.265  10.100  0.2755  0.1913 -0.0144
  395loPI   PO4 6308  11.945   3.464   9.477  0.0722 -0.0965  0.0086
  395loPI   GL1 6309  11.907   3.539   9.083 -0.2915  0.0502  0.0461
  395loPI   GL2 6310  11.597   3.396   9.015  0.2210 -0.3282  0.0036
  395loPI   C1A 6311  11.967   3.759   8.739  0.0871  0.1130  0.2175
  395loPI   C2A 6312  12.080   3.921   8.315 -0.0092 -0.0111 -0.0286
  395loPI   C3A 6313  12.194   4.033   7.951  0.0728  0.0221 -0.2004
  395loPI   C4A 6314  12.370   4.330   7.653 -0.4437  0.1646 -0.1377
  395loPI   C5A 6315  12.439   4.551   7.350 -0.1355  0.1894 -0.0953
  395loPI   C6A 6316  12.778   4.531   7.001  0.0287 -0.1244 -0.5616
  395loPI   C1B 6317  11.626   3.173   8.671  0.0660  0.0270 -0.0908
  395loPI   C2B 6318  11.818   3.355   8.311 -0.1240  0.3362 -0.3392
  395loPI   C3B 6319  11.734   3.689   7.978 -0.2898  0.0816 -0.4253
  395loPI   C4B 6320  11.773   3.881   7.618  0.0285  0.0963 -0.2988
  396loPI    C1 6321  13.700   0.674   9.618 -0.0378 -0.1470 -0.1333
  396loPI    C2 6322  13.505   0.957   9.823  0.2914  0.1185 -0.1784
  396loPI    C3 6323  13.748   0.702  10.014  0.1006 -0.0489 -0.1561
  396loPI   PO4 6324  13.774   0.871   9.393  0.1174  0.0163  0.2885
  396loPI   GL1 6325  13.861   0.762   8.894 -0.4052  0.1154  0.0455
  396loPI   GL2 6326  14.152   0.973   9.007  0.1277  0.0846 -0.0061
  396loPI   C1A 6327  14.084   0.881   8.494 -0.1288 -0.1452 -0.1055
  396loPI   C2A 6328  14.203   1.027   8.073 -0.3548  0.0196  0.0694
  396loPI   C3A 6329  14.226   0.884   7.719 -0.6450 -0.1241  0.1518
  396loPI   C4A 6330  14.597   1.013   7.464  0.0903 -0.1619  0.1022
  396loPI   C5A 6331  14.571   1.106   7.028  0.1845 -0.1268 -0.0922
  396loPI   C6A 6332  14.596   1.065   6.656  0.4164  0.0852 -0.1922
  396loPI   C1B 6333  14.393   1.247   8.777 -0.1338 -0.1075 -0.4229
  396loPI   C2B 6334  14.341   1.510   8.509  0.4935 -0.0301 -0.1238
  396loPI   C3B 6335  14.331   1.506   8.075  0.0021 -0.0240 -0.1803
  396loPI   C4B 6336  14.257   1.421   7.640  0.1456  0.1026  0.1119
  397loPI    C1 6337   7.669  15.182   9.775  0.2621  0.1287  0.1684
  397loPI    C2 6338   7.762  14.836   9.952  0.0047 -0.0726 -0.0828
  397loPI    C3 6339   7.521  15.097  10.137  0.1870 -0.0320  0.1006
  397loPI   PO4 6340   7.955  15.192   9.632  0.2410  0.0699  0.0915
  397loPI   GL1 6341   8.104  15.527   9.168 -0.3746 -0.0974  0.0500
  397loPI   GL2 6342   7.856  15.488   9.199 -0.0441  0.1115  0.2816
  397loPI   C1A 6343   8.471  15.407   8.859 -0.3415  0.0276  0.2370
  397loPI   C2A 6344   8.629  15.443   8.478 -0.2200  0.0232  0.0992
  397loPI   C3A 6345   8.575  15.462   8.108 -0.1118 -0.2908 -0.0923
  397loPI   C4A 6346   8.706  15.674   7.717  0.1956  0.0909 -0.3096
  397loPI   C5A 6347   8.670  15.599   7.261  0.0856 -0.2558  0.1586
  397loPI   C6A 6348   9.067  15.465   7.078 -0.0399  0.1104 -0.0526
  397loPI   C1B 6349   7.962  15.531   8.724 -0.0227  0.0281 -0.0599
  397loPI   C2B 6350   7.966  15.649   8.293 -0.1394  0.1117 -0.0367
  397loPI   C3B 6351   7.916  15.855   7.872  0.0473  0.3416  0.0636
  397loPI   C4B 6352   7.710  16.036   7.449  0.1587 -0.0713 -0.3815
  398loPI    C1 6353  16.393  10.555   9.637 -0.1050  0.2102 -0.0554
  398loPI    C2 6354  16.631  10.512   9.956  0.2470  0.0195 -0.3361
  398loPI    C3 6355  16.531  10.878   9.829 -0.1316  0.0970  0.1562
  398loPI   PO4 6356  16.533  10.334   9.408 -0.2701 -0.0461 -0.0787
  398loPI   GL1 6357  16.583  10.323   9.018  0.2710 -0.2054 -0.1867
  398loPI   GL2 6358  16.359  10.277   8.884  0.4336  0.2272  0.0155
  398loPI   C1A 6359  16.633  10.560   8.567 -0.0717  0.0360  0.0272
  398loPI   C2A 6360  16.776  10.406   8.078 -0.1710 -0.2401 -0.3029
  398loPI   C3A 6361  17.012  10.222   7.705  0.4778  0.1443  0.2256
  398loPI   C4A 6362  17.160  10.334   7.343 -0.0914 -0.2401  0.2768
  398loPI   C5A 6363  17.153  10.332   6.912  0.0364  0.2544 -0.0569
  398loPI   C6A 6364  17.021  10.407   6.545 -0.4087  0.3862  0.0819
  398loPI   C1B 6365  16.568  10.084   8.520 -0.1024  0.0814  0.0439
  398loPI   C2B 6366  16.698   9.939   8.161 -0.1070  0.1681 -0.1983
  398loPI   C3B 6367  17.047   9.709   7.971 -0.3216 -0.2774  0.0492
  398loPI   C4B 6368  17.185   9.583   7.661  0.0018 -0.3902 -0.2662
  399loPI    C1 6369  13.607   9.480   9.528 -0.0561 -0.1180  0.1253
  399loPI    C2 6370  13.566   9.348   9.903  0.1811 -0.0902  0.1625
  399loPI    C3 6371  13.930   9.370   9.737  0.0621 -0.2674 -0.1301
  399loPI   PO4 6372  13.547   9.672   9.475  0.0542  0.0473 -0.0904
  399loPI   GL1 6373  13.414   9.855   9.141 -0.2160 -0.1903  0.3343
  399loPI   GL2 6374  13.567  10.172   9.080  0.1465 -0.0132 -0.0565
  399loPI   C1A 6375  13.380   9.710   8.630  0.5145  0.2762  0.0953
  399loPI   C2A 6376  13.296   9.678   8.213  0.0970  0.1134 -0.4291
  399loPI   C3A 6377  13.117   9.799   7.661  0.1010  0.2863  0.2948
  399loPI   C4A 6378  12.807   9.952   7.442 -0.2438  0.0704 -0.1315
  399loPI   C5A 6379  12.464   9.779   7.166  0.0249  0.1017 -0.2410
  399loPI   C6A 6380  12.111   9.464   7.068 -0.0665 -0.1703  0.0283
  399loPI   C1B 6381  13.831  10.341   8.772  0.0261 -0.1872 -0.0587
  399loPI   C2B 6382  13.885  10.337   8.325 -0.1462 -0.1967  0.0786
  399loPI   C3B 6383  13.924  10.417   7.879 -0.2297  0.1650  0.1975
  399loPI   C4B 6384  13.911  10.467   7.519 -0.0153 -0.0175  0.2015
  400loPI    C1 6385  19.311  11.223   9.478 -0.2218 -0.2843  0.0655
  400loPI    C2 6386  19.040  11.414   9.253 -0.0403 -0.1242 -0.0206
  400loPI    C3 6387  19.141  11.559   9.612  0.1469 -0.0183 -0.1143
  400loPI   PO4 6388  19.474  11.071   9.253  0.3325  0.3405  0.0921
  400loPI   GL1 6389  19.504  10.877   8.832 -0.2199 -0.0681 -0.1605
  400loPI   GL2 6390  19.359  10.649   8.952  0.2817 -0.1235  0.2332
  400loPI   C1A 6391  19.488  10.877   8.412 -0.1980 -0.4481 -0.1464
  400loPI   C2A 6392  19.534  10.959   8.083 -0.1055  0.2380 -0.1631
  400loPI   C3A 6393  19.652  10.813   7.674  0.2427  0.1257 -0.2365
  400loPI   C4A 6394  19.551  10.937   7.329  0.1100  0.1368 -0.1322
  400loPI   C5A 6395  19.287  11.210   7.144  0.2397  0.1100 -0.0035
  400loPI   C6A 6396  18.840  10.978   7.152 -0.1342  0.3344  0.2989
  400loPI   C1B 6397  19.122  10.614   8.553  0.3512  0.0774  0.3978
  400loPI   C2B 6398  19.106  10.640   8.153  0.0519  0.2263  0.1347
  400loPI   C3B 6399  18.741  10.539   7.963 -0.0067 -0.2458 -0.0625
  400loPI   C4B 6400  18.475  10.275   7.641 -0.0947  0.0084  0.1118
  401loPI    C1 6401  10.843   7.710  10.022 -0.1825 -0.1617 -0.3565
  401loPI    C2 6402  10.478   7.746   9.864 -0.2233  0.0391 -0.2198
  401loPI    C3 6403  10.550   7.883  10.233 -0.0252 -0.0553 -0.2225
  401loPI   PO4 6404  10.965   7.660   9.709  0.1493  0.0930  0.4292
  401loPI   GL1 6405  10.971   7.518   9.332  0.0322  0.0703  0.0643
  401loPI   GL2 6406  10.941   7.740   9.146 -0.0299 -0.0312 -0.3775
  401loPI   C1A 6407  10.990   7.187   8.970  0.0287 -0.1260 -0.1357
  401loPI   C2A 6408  11.037   7.202   8.482  0.1632 -0.2226  0.0995
  401loPI   C3A 6409  11.108   7.006   8.139 -0.1180  0.3256  0.1185
  401loPI   C4A 6410  10.854   6.710   7.939  0.1445 -0.1895  0.0910
  401loPI   C5A 6411  10.734   6.483   7.638 -0.1577  0.0509  0.3890
  401loPI   C6A 6412  10.762   6.492   7.233 -0.0975 -0.0003 -0.0770
  401loPI   C1B 6413  10.659   7.502   8.875  0.0117  0.0229  0.0453
  401loPI   C2B 6414  10.595   7.509   8.501 -0.1335  0.1716  0.0063
  401loPI   C3B 6415  10.773   7.356   8.022  0.2538 -0.0574 -0.0715
  401loPI   C4B 6416  11.028   7.208   7.718  0.0678 -0.7442 -0.1183
  402loPI    C1 6417  16.657   2.602   9.424 -0.2288  0.0490  0.0042
  402loPI    C2 6418  16.624   2.344   9.728 -0.0957  0.1316  0.0897
  402loPI    C3 6419  16.536   2.227   9.356  0.2579 -0.1291  0.0827
  402loPI   PO4 6420  16.880   2.862   9.573 -0.1775 -0.2714  0.1484
  402loPI   GL1 6421  17.171   2.844   9.289  0.1491 -0.4393  0.1525
  402loPI   GL2 6422  16.904   2.958   9.072 -0.0611  0.2909  0.4359
  402loPI   C1A 6423  17.424   2.906   8.893 -0.1076  0.1536  0.2290
  402loPI   C2A 6424  17.569   2.808   8.470  0.2144  0.0495 -0.2141
  402loPI   C3A 6425  17.791   2.966   8.005  0.1313 -0.2066 -0.0297
  402loPI   C4A 6426  18.046   3.114   7.758 -0.1625 -0.0802 -0.1163
  402loPI   C5A 6427  18.424   3.269   7.817 -0.2396  0.1513  0.3418
  402loPI   C6A 6428  18.690   3.295   8.029 -0.1744 -0.0593 -0.0613
  402loPI   C1B 6429  16.736   3.211   8.764  0.1565 -0.0144 -0.1576
  402loPI   C2B 6430  16.644   2.998   8.358  0.1145  0.0983  0.1542
  402loPI   C3B 6431  16.785   3.120   8.036  0.0433 -0.2279 -0.1898
  402loPI   C4B 6432  16.742   3.608   7.728  0.1907 -0.0860 -0.1698
  403loPI    C1 6433  18.113   2.006  10.092 -0.2604  0.2448 -0.1750
  403loPI    C2 6434  18.168   2.006  10.488 -0.1580  0.2222 -0.1891
  403loPI    C3 6435  17.833   1.852  10.333 -0.0307 -0.1190 -0.1330
  403loPI   PO4 6436  18.257   1.870   9.993  0.0189 -0.1251  0.0073
  403loPI   GL1 6437  18.451   1.773   9.614  0.1560  0.2412  0.2482
  403loPI   GL2 6438  18.041   1.719   9.472  0.0270 -0.1756 -0.2337
  403loPI   C1A 6439  18.385   2.090   9.339  0.0700 -0.0231  0.1501
  403loPI   C2A 6440  18.090   2.300   9.055 -0.1548  0.3785 -0.3153
  403loPI   C3A 6441  17.848   2.356   8.655 -0.2859  0.0508 -0.3233
  403loPI   C4A 6442  17.641   2.401   8.245  0.3232  0.0179  0.2376
  403loPI   C5A 6443  17.584   2.516   7.849  0.1773 -0.0385 -0.1336
  403loPI   C6A 6444  17.874   2.581   7.524 -0.0938  0.0163 -0.1407
  403loPI   C1B 6445  18.104   1.801   8.996 -0.0217  0.1524 -0.1348
  403loPI   C2B 6446  18.091   1.898   8.642  0.0203  0.1399  0.1446
  403loPI   C3B 6447  18.292   1.954   8.177 -0.0740  0.3446 -0.1842
  403loPI   C4B 6448  18.250   1.659   7.831 -0.2356  0.0794 -0.0634
  404loPI    C1 6449   7.726   9.888   9.684 -0.1612 -0.2031 -0.1231
  404loPI    C2 6450   7.615   9.518   9.787 -0.0832 -0.1057  0.3293
  404loPI    C3 6451   7.824   9.743  10.043  0.2496  0.0969 -0.1073
  404loPI   PO4 6452   7.550   9.925   9.480  0.0258 -0.1340  0.3938
  404loPI   GL1 6453   7.128   9.895   9.307  0.1252  0.2300  0.4011
  404loPI   GL2 6454   7.342   9.510   9.256  0.1851 -0.5865  0.0099
  404loPI   C1A 6455   7.069   9.904   8.890 -0.0939 -0.4137 -0.2181
  404loPI   C2A 6456   7.183   9.818   8.434  0.0703  0.1706 -0.0256
  404loPI   C3A 6457   7.453   9.685   8.034  0.0336 -0.2049  0.0959
  404loPI   C4A 6458   7.759   9.447   7.816  0.1012 -0.1788 -0.1654
  404loPI   C5A 6459   7.982   9.433   7.465 -0.3535 -0.1518 -0.0992
  404loPI   C6A 6460   7.986   9.198   7.143  0.2941 -0.3991  0.0739
  404loPI   C1B 6461   7.366   9.423   8.891 -0.1045 -0.2868  0.2648
  404loPI   C2B 6462   7.549   9.308   8.479 -0.0620 -0.1457 -0.1069
  404loPI   C3B 6463   7.514   9.083   7.996 -0.0007 -0.3197 -0.0039
  404loPI   C4B 6464   7.590   8.920   7.577  0.2090  0.3713  0.1242
  405loPI    C1 6465   5.980  18.945   9.691 -0.0748 -0.1744  0.3414
  405loPI    C2 6466   5.633  18.901   9.497 -0.0103 -0.0829  0.2034
  405loPI    C3 6467   5.635  18.967   9.891 -0.1668  0.3073  0.1430
  405loPI   PO4 6468   6.147  18.934   9.628 -0.0102 -0.1795 -0.0818
  405loPI   GL1 6469   6.255  18.977   9.151 -0.0409 -0.0049  0.2040
  405loPI   GL2 6470   5.951  19.086   9.148 -0.0351 -0.0731 -0.3810
  405loPI   C1A 6471   6.587  19.247   9.069  0.1862 -0.1498 -0.0388
  405loPI   C2A 6472   6.662  19.437   8.790 -0.0920 -0.1488 -0.0735
  405loPI   C3A 6473   6.572  19.373   8.415 -0.0059 -0.0833  0.2724
  405loPI   C4A 6474   6.511  19.364   7.973 -0.3960 -0.0204 -0.0555
  405loPI   C5A 6475   6.502  19.135   7.724  0.2860 -0.0070  0.4738
  405loPI   C6A 6476   6.202  19.190   7.368  0.5679  0.1236  0.1893
  405loPI   C1B 6477   6.134  18.792   8.752  0.0716 -0.3402  0.2187
  405loPI   C2B 6478   6.392  18.490   8.565  0.5365 -0.0341 -0.1783
  405loPI   C3B 6479   6.711  18.325   8.374 -0.1636  0.1687 -0.2392
  405loPI   C4B 6480   7.106  18.172   8.269 -0.2707 -0.0102  0.2866
  406loPI    C1 6481  13.604   8.711   9.696 -0.1380 -0.0836  0.1649
  406loPI    C2 6482  13.400   8.893   9.987  0.0352 -0.1767  0.3468
  406loPI    C3 6483  13.710   8.657  10.078  0.2425 -0.0159  0.0733
  406loPI   PO4 6484  13.571   8.979   9.535  0.1075 -0.1601 -0.3258
  406loPI   GL1 6485  13.415   9.148   9.193 -0.1317 -0.3138  0.3728
  406loPI   GL2 6486  13.574   9.421   9.027 -0.2366  0.2139 -0.0592
  406loPI   C1A 6487  13.171   9.170   8.820  0.3056 -0.1812 -0.1692
  406loPI   C2A 6488  13.263   9.164   8.365  0.1252  0.0640 -0.2020
  406loPI   C3A 6489  13.380   9.251   7.979  0.2007  0.0319  0.0563
  406loPI   C4A 6490  13.217   9.233   7.577  0.1107 -0.2649  0.0137
  406loPI   C5A 6491  12.939   9.485   7.235 -0.1157  0.1074 -0.1056
  406loPI   C6A 6492  12.601   9.384   6.875 -0.1110  0.0598 -0.1292
  406loPI   C1B 6493  13.702   9.345   8.702  0.0683  0.0465  0.2426
  406loPI   C2B 6494  13.717   9.402   8.289  0.2510  0.1985 -0.0661
  406loPI   C3B 6495  13.714   9.626   7.884  0.2983  0.3545 -0.3694
  406loPI   C4B 6496  13.572   9.659   7.496  0.2213 -0.2782 -0.1764
  407loPI    C1 6497   7.904   3.289   9.826  0.0324  0.2021 -0.2835
  407loPI    C2 6498   7.589   3.075   9.948  0.0615  0.2121 -0.1895
  407loPI    C3 6499   7.771   3.325  10.202  0.0591  0.3106 -0.2839
  407loPI   PO4 6500   7.876   3.294   9.580  0.2569  0.3001  0.2578
  407loPI   GL1 6501   7.611   3.107   9.342  0.2710  0.0905  0.1817
  407loPI   GL2 6502   7.318   3.181   9.340 -0.1591  0.0516  0.0885
  407loPI   C1A 6503   7.589   2.918   9.034  0.0190  0.1369  0.1415
  407loPI   C2A 6504   7.714   3.011   8.766  0.1971  0.1295 -0.1014
  407loPI   C3A 6505   7.791   3.196   8.451 -0.3896 -0.1424 -0.2050
  407loPI   C4A 6506   7.823   3.240   7.939  0.0484  0.1643 -0.3419
  407loPI   C5A 6507   7.534   3.172   7.387 -0.0222  0.0496  0.1139
  407loPI   C6A 6508   7.173   3.092   7.275 -0.2084 -0.1698  0.0129
  407loPI   C1B 6509   7.377   3.463   9.067  0.1061 -0.0543 -0.2383
  407loPI   C2B 6510   7.504   3.639   8.745  0.0757  0.1307 -0.1678
  407loPI   C3B 6511   7.451   3.584   8.387 -0.2918  0.1769  0.0452
  407loPI   C4B 6512   7.437   3.602   7.901 -0.4054  0.0161  0.4777
  408loPI    C1 6513   0.327   6.702   9.988 -0.2201  0.0596  0.0711
  408loPI    C2 6514   0.462   6.860  10.330  0.0511  0.0668 -0.0369
  408loPI    C3 6515   0.152   7.028  10.141  0.1321  0.2804  0.0169
  408loPI   PO4 6516   0.379   6.418  10.019  0.1134  0.2431 -0.0413
  408loPI   GL1 6517   0.433   6.009   9.721  0.2118 -0.0558 -0.0795
  408loPI   GL2 6518   0.535   6.265   9.589  0.1330 -0.1254  0.3663
  408loPI   C1A 6519   0.350   5.935   9.247  0.2730 -0.0886  0.1033
  408loPI   C2A 6520   0.247   5.853   8.754  0.2834  0.1324  0.0692
  408loPI   C3A 6521   0.065   5.759   8.385  0.2853  0.0179 -0.2229
  408loPI   C4A 6522   0.051   5.334   8.222 -0.0925  0.0016  0.2853
  408loPI   C5A 6523  -0.119   5.090   7.870 -0.1704  0.0326  0.2738
  408loPI   C6A 6524  -0.494   4.993   7.511  0.0127 -0.0107  0.1638
  408loPI   C1B 6525   0.541   6.394   9.275 -0.0531 -0.2287  0.1221
  408loPI   C2B 6526   0.492   6.431   8.936  0.2188  0.0909 -0.1073
  408loPI   C3B 6527   0.400   6.465   8.493  0.0116  0.3094  0.1313
  408loPI   C4B 6528   0.104   6.305   8.310 -0.1690 -0.1111  0.2007
  409loPI    C1 6529   5.532  12.081   9.451 -0.0678  0.0191 -0.0501
  409loPI    C2 6530   5.655  12.456   9.516 -0.0565  0.0516 -0.2511
  409loPI    C3 6531   5.768  12.162   9.764 -0.0581  0.1784 -0.0982
  409loPI   PO4 6532   5.555  11.968   9.252 -0.0680  0.1706  0.2400
  409loPI   GL1 6533   5.411  12.059   8.857 -0.1499  0.2230 -0.1722
  409loPI   GL2 6534   5.098  12.182   8.779 -0.0164  0.0807 -0.1229
  409loPI   C1A 6535   5.659  12.043   8.464  0.1390  0.0928  0.1090
  409loPI   C2A 6536   6.015  12.116   8.196  0.2321  0.1386 -0.1695
  409loPI   C3A 6537   6.349  12.337   7.891  0.0858 -0.2433 -0.2758
  409loPI   C4A 6538   6.454  12.747   7.599 -0.0733  0.1197 -0.2528
  409loPI   C5A 6539   6.801  13.002   7.422 -0.1453  0.1594 -0.1456
  409loPI   C6A 6540   7.079  13.240   7.556 -0.0792 -0.1829  0.0571
  409loPI   C1B 6541   5.079  12.220   8.405  0.1358  0.0419  0.1028
  409loPI   C2B 6542   5.159  12.023   8.012  0.0794 -0.0844 -0.2702
  409loPI   C3B 6543   5.072  11.627   7.876  0.1186 -0.1037 -0.0682
  409loPI   C4B 6544   5.024  11.250   7.523 -0.2083 -0.0147  0.0622
  410loPI    C1 6545  14.689   4.969   9.846  0.4024  0.0714  0.1796
  410loPI    C2 6546  14.869   4.687  10.066  0.2221 -0.0295  0.1993
  410loPI    C3 6547  14.702   5.003  10.245  0.3451  0.0447  0.1838
  410loPI   PO4 6548  14.801   5.015   9.659  0.2624  0.1557  0.1446
  410loPI   GL1 6549  14.929   4.957   9.355 -0.4714 -0.0879  0.3324
  410loPI   GL2 6550  15.050   4.725   9.141 -0.2299 -0.3383  0.0845
  410loPI   C1A 6551  14.865   5.158   8.875  0.0504  0.1840  0.1685
  410loPI   C2A 6552  14.747   5.108   8.512  0.1793 -0.0950  0.0685
  410loPI   C3A 6553  14.772   5.253   8.090 -0.3863  0.2064  0.0805
  410loPI   C4A 6554  14.748   5.101   7.647 -0.3387 -0.0014 -0.1080
  410loPI   C5A 6555  14.641   4.919   7.251 -0.0178 -0.0519  0.0374
  410loPI   C6A 6556  14.819   4.815   6.865  0.3951 -0.3281  0.1013
  410loPI   C1B 6557  15.118   4.775   8.748  0.0641  0.0739 -0.2077
  410loPI   C2B 6558  15.169   4.817   8.327 -0.6645  0.0396  0.0753
  410loPI   C3B 6559  15.164   4.856   7.841  0.0812 -0.2137  0.0539
  410loPI   C4B 6560  15.169   4.857   7.393  0.0809 -0.0329  0.2035
  411loPI    C1 6561   3.612   9.526  10.034 -0.0444  0.0187  0.0956
  411loPI    C2 6562   3.681   9.910  10.124  0.2310 -0.0769  0.3072
  411loPI    C3 6563   3.571   9.654  10.411  0.0680 -0.1618  0.1706
  411loPI   PO4 6564   3.553   9.528   9.819  0.0421  0.0497  0.0027
  411loPI   GL1 6565   3.721   9.408   9.302  0.1773  0.1795 -0.1886
  411loPI   GL2 6566   3.472   9.144   9.228 -0.1491  0.0132  0.0996
  411loPI   C1A 6567   4.030   9.478   9.056  0.1559  0.0515 -0.0714
  411loPI   C2A 6568   4.185   9.716   8.751  0.0633 -0.3977  0.0008
  411loPI   C3A 6569   4.202   9.757   8.328 -0.1134 -0.0398  0.0441
  411loPI   C4A 6570   3.913   9.616   7.915 -0.1642  0.2879  0.1002
  411loPI   C5A 6571   3.729   9.574   7.540  0.1044  0.2981 -0.1465
  411loPI   C6A 6572   3.496   9.664   7.170 -0.0046  0.1261 -0.0833
  411loPI   C1B 6573   3.562   9.359   8.836 -0.0050 -0.0515 -0.3586
  411loPI   C2B 6574   3.655   9.550   8.441  0.0856 -0.0268 -0.0180
  411loPI   C3B 6575   3.342   9.544   8.061  0.0847  0.1534  0.2013
  411loPI   C4B 6576   3.271   9.576   7.649  0.0702 -0.0254  0.0347
  412loPI    C1 6577   1.771  18.412  10.472 -0.0096 -0.1165 -0.1866
  412loPI    C2 6578   1.466  18.300  10.705 -0.1981  0.0843 -0.3327
  412loPI    C3 6579   1.653  18.647  10.773 -0.0640  0.0068 -0.3031
  412loPI   PO4 6580   1.651  18.299  10.167 -0.1560 -0.2073  0.2916
  412loPI   GL1 6581   1.658  18.293   9.641 -0.2032 -0.1487 -0.4639
  412loPI   GL2 6582   1.852  18.579   9.566  0.0168 -0.1240  0.0076
  412loPI   C1A 6583   1.862  18.162   9.311  0.0673 -0.3282  0.3381
  412loPI   C2A 6584   2.053  18.147   8.957  0.3612 -0.1692  0.0513
  412loPI   C3A 6585   2.035  18.170   8.500 -0.0011 -0.0763  0.0044
  412loPI   C4A 6586   2.406  18.243   8.147 -0.1977 -0.0280  0.0204
  412loPI   C5A 6587   2.732  18.363   7.949  0.1863 -0.1665 -0.1163
  412loPI   C6A 6588   3.283  18.376   7.888  0.0394 -0.0962 -0.0970
  412loPI   C1B 6589   1.705  18.773   9.295  0.1936  0.0889  0.2134
  412loPI   C2B 6590   1.548  19.056   8.937  0.0606 -0.1081  0.0995
  412loPI   C3B 6591   1.390  18.941   8.513 -0.3345  0.0665 -0.1602
  412loPI   C4B 6592   1.503  18.916   8.045  0.0674 -0.0042 -0.1347
  413loPI    C1 6593   1.341   3.066  10.642 -0.0099 -0.0619 -0.2080
  413loPI    C2 6594   1.293   3.358  10.373  0.1666  0.1125 -0.0532
  413loPI    C3 6595   1.550   3.405  10.676  0.1892 -0.2006 -0.0202
  413loPI   PO4 6596   1.300   2.843  10.410 -0.3570  0.0301 -0.2043
  413loPI   GL1 6597   1.483   2.937  10.109  0.2184 -0.2857  0.0309
  413loPI   GL2 6598   1.763   2.806   9.988  0.2199 -0.5054  0.2844
  413loPI   C1A 6599   1.176   3.194   9.814  0.1699 -0.0805  0.0639
  413loPI   C2A 6600   0.945   3.348   9.469 -0.1568 -0.0454  0.1614
  413loPI   C3A 6601   0.847   3.397   8.956 -0.1911 -0.2841  0.0165
  413loPI   C4A 6602   0.913   3.354   8.508 -0.1976  0.0633 -0.1556
  413loPI   C5A 6603   1.083   3.411   8.176  0.0820 -0.0050  0.0840
  413loPI   C6A 6604   1.491   3.522   8.090  0.0086 -0.1070  0.0722
  413loPI   C1B 6605   1.732   3.133   9.710  0.2029  0.1529 -0.3422
  413loPI   C2B 6606   1.550   3.435   9.449 -0.1262  0.0392  0.0887
  413loPI   C3B 6607   1.398   3.310   9.039  0.2156  0.2344  0.0143
  413loPI   C4B 6608   1.249   3.594   8.748 -0.3494 -0.1272 -0.1505
  414loPI    C1 6609   8.020  16.415   9.999 -0.1814  0.1807  0.2588
  414loPI    C2 6610   8.298  16.397  10.286 -0.1443  0.0666  0.2163
  414loPI    C3 6611   8.078  16.727  10.242 -0.2672  0.0233  0.4850
  414loPI   PO4 6612   8.126  16.370   9.762  0.5716  0.3738 -0.1461
  414loPI   GL1 6613   8.032  16.550   9.483  0.0155  0.2544  0.0683
  414loPI   GL2 6614   8.065  16.810   9.449  0.3098 -0.0464  0.0085
  414loPI   C1A 6615   8.197  16.361   9.116  0.0737  0.3260  0.2401
  414loPI   C2A 6616   8.267  16.305   8.658 -0.1832 -0.0554 -0.1508
  414loPI   C3A 6617   8.174  16.509   8.222  0.3250  0.0114 -0.3683
  414loPI   C4A 6618   8.106  16.825   7.829  0.0842 -0.2742  0.2661
  414loPI   C5A 6619   8.126  16.818   7.374  0.0714  0.1866  0.0417
  414loPI   C6A 6620   8.098  16.902   6.922 -0.2413 -0.0061 -0.2629
  414loPI   C1B 6621   7.977  16.884   9.056 -0.1734  0.2267 -0.0657
  414loPI   C2B 6622   8.086  17.136   8.716  0.0073 -0.0063  0.1090
  414loPI   C3B 6623   8.121  17.574   8.545  0.0007  0.2223 -0.0681
  414loPI   C4B 6624   8.303  17.756   8.917 -0.0297 -0.2972 -0.2483
  415loPI    C1 6625   1.519  14.222   9.691  0.2176  0.0097  0.1483
  415loPI    C2 6626   1.278  14.012   9.933  0.0467 -0.1801 -0.1795
  415loPI    C3 6627   1.146  14.348   9.761  0.1201 -0.1213 -0.1220
  415loPI   PO4 6628   1.646  14.043   9.532  0.5174  0.3050  0.2141
  415loPI   GL1 6629   1.537  13.880   9.187 -0.0740 -0.0140 -0.0601
  415loPI   GL2 6630   1.842  13.848   9.043  0.1810 -0.1081  0.2762
  415loPI   C1A 6631   1.283  13.787   8.909  0.0981 -0.0440  0.1353
  415loPI   C2A 6632   1.181  13.822   8.496 -0.1255  0.1527 -0.0024
  415loPI   C3A 6633   1.072  13.885   7.999 -0.2186  0.0602 -0.0162
  415loPI   C4A 6634   0.961  14.060   7.531  0.2029  0.5325 -0.1874
  415loPI   C5A 6635   1.137  13.816   7.187 -0.0404  0.1927 -0.0378
  415loPI   C6A 6636   1.115  13.611   6.858  0.1103  0.0144 -0.1395
  415loPI   C1B 6637   1.660  13.832   8.574 -0.3198  0.2589 -0.0481
  415loPI   C2B 6638   1.539  13.906   8.074  0.1247  0.1364  0.2834
  415loPI   C3B 6639   1.477  13.945   7.675  0.3688  0.0796  0.0032
  415loPI   C4B 6640   1.680  13.883   7.225  0.1050  0.3741 -0.3355
  416loPI    C1 6641   3.520  11.332   9.630 -0.1922 -0.2073 -0.0409
  416loPI    C2 6642   3.818  11.242   9.882 -0.0265  0.0350 -0.1465
  416loPI    C3 6643   3.534  11.501   9.993 -0.3118 -0.3431  0.0280
  416loPI   PO4 6644   3.678  11.449   9.374 -0.0103 -0.0887 -0.1530
  416loPI   GL1 6645   3.733  11.576   8.941  0.1548 -0.1015 -0.0521
  416loPI   GL2 6646   3.980  11.550   8.907 -0.1654  0.1648  0.1111
  416loPI   C1A 6647   3.632  11.957   8.630  0.0689  0.2000 -0.1342
  416loPI   C2A 6648   3.629  12.039   8.143  0.0622  0.3322  0.0189
  416loPI   C3A 6649   3.773  12.065   7.709  0.0951  0.3790 -0.2385
  416loPI   C4A 6650   3.690  12.004   7.330 -0.0636  0.1338 -0.2612
  416loPI   C5A 6651   3.590  11.972   7.027  0.0142  0.1359 -0.0514
  416loPI   C6A 6652   3.789  12.156   6.605  0.0448 -0.0976 -0.2907
  416loPI   C1B 6653   3.998  11.393   8.414  0.0149 -0.0504 -0.1303
  416loPI   C2B 6654   4.031  11.679   8.054 -0.2400  0.1471 -0.0246
  416loPI   C3B 6655   4.214  12.153   8.017  0.2289 -0.0422 -0.1405
  416loPI   C4B 6656   4.241  12.362   7.612 -0.3678  0.0597 -0.0346
  417loPI    C1 6657  14.338   8.698   9.517 -0.0133 -0.1374 -0.0025
  417loPI    C2 6658  14.609   8.922   9.706  0.2519 -0.2379 -0.2556
  417loPI    C3 6659  14.486   8.578   9.868 -0.1345  0.0665  0.1200
  417loPI   PO4 6660  14.081   8.834   9.515  0.0952 -0.0765 -0.0345
  417loPI   GL1 6661  13.963   9.269   9.271 -0.2360 -0.4432  0.2494
  417loPI   GL2 6662  13.893   8.967   9.048  0.1794 -0.0710  0.0307
  417loPI   C1A 6663  14.248   9.361   8.993 -0.0693 -0.2754  0.1437
  417loPI   C2A 6664  14.177   9.346   8.527 -0.3015  0.3517 -0.1957
  417loPI   C3A 6665  14.234   9.409   8.085  0.1449  0.3819 -0.0807
  417loPI   C4A 6666  14.255   9.390   7.694 -0.2685 -0.1401 -0.0265
  417loPI   C5A 6667  14.598   9.478   7.414  0.1279  0.0197 -0.3073
  417loPI   C6A 6668  14.851   9.175   7.014  0.0918  0.2318  0.4349
  417loPI   C1B 6669  14.126   8.781   8.732  0.2246  0.0159 -0.1218
  417loPI   C2B 6670  14.154   8.745   8.256 -0.2256  0.2507  0.2108
  417loPI   C3B 6671  14.231   8.499   7.957 -0.3200  0.0611 -0.0328
  417loPI   C4B 6672  14.165   8.104   7.744  0.0021  0.2622  0.1879
  418loPI    C1 6673  18.600  16.635  10.026 -0.1425  0.1677  0.1272
  418loPI    C2 6674  18.759  16.820  10.342  0.0156 -0.0776  0.1942
  418loPI    C3 6675  18.423  16.608  10.383 -0.1058  0.1017  0.1406
  418loPI   PO4 6676  18.568  16.704   9.798 -0.1314 -0.0769  0.0285
  418loPI   GL1 6677  18.493  16.681   9.300 -0.1638 -0.0451 -0.3043
  418loPI   GL2 6678  18.277  16.418   9.160  0.1198 -0.0699 -0.0609
  418loPI   C1A 6679  18.703  16.884   8.919 -0.0147  0.0077  0.2229
  418loPI   C2A 6680  18.858  16.849   8.450  0.1080  0.3208 -0.2063
  418loPI   C3A 6681  18.814  16.603   8.046 -0.0556 -0.1109 -0.1382
  418loPI   C4A 6682  18.635  16.584   7.582 -0.1389  0.3700  0.1313
  418loPI   C5A 6683  18.405  16.692   7.153 -0.0635  0.1003 -0.0377
  418loPI   C6A 6684  18.274  16.706   6.784  0.0397  0.2477 -0.0117
  418loPI   C1B 6685  18.329  16.650   8.721 -0.2838 -0.1344 -0.0840
  418loPI   C2B 6686  18.409  16.525   8.260 -0.2693 -0.0794 -0.1660
  418loPI   C3B 6687  18.285  16.672   7.857 -0.1404 -0.2782 -0.2878
  418loPI   C4B 6688  18.133  16.641   7.558 -0.0456  0.0519 -0.2514
  419loPI    C1 6689   0.997   3.277  10.911  0.0636  0.1602 -0.0172
  419loPI    C2 6690   1.107   3.491  11.231  0.2669 -0.1296  0.1104
  419loPI    C3 6691   1.326   3.177  11.115  0.1291 -0.0988 -0.2451
  419loPI   PO4 6692   0.902   3.518  10.697  0.2673  0.1088  0.2221
  419loPI   GL1 6693   0.812   3.665  10.311 -0.0283  0.0515  0.1110
  419loPI   GL2 6694   1.035   3.823  10.179 -0.0720  0.0273  0.0455
  419loPI   C1A 6695   0.609   3.495   9.883  0.0888  0.1870  0.0863
  419loPI   C2A 6696   0.394   3.506   9.430 -0.0406 -0.0599  0.0323
  419loPI   C3A 6697   0.380   3.575   9.101  0.1737 -0.0389  0.1988
  419loPI   C4A 6698   0.407   3.606   8.625 -0.2664 -0.0109  0.0542
  419loPI   C5A 6699   0.659   3.668   8.280 -0.2394  0.0774 -0.0105
  419loPI   C6A 6700   0.969   3.891   8.181  0.3640 -0.1718  0.0163
  419loPI   C1B 6701   1.047   3.733   9.733  0.0532  0.4155 -0.0299
  419loPI   C2B 6702   1.168   3.742   9.234  0.1916 -0.4918  0.0893
  419loPI   C3B 6703   1.282   4.065   8.903  0.2888 -0.1078  0.4002
  419loPI   C4B 6704   1.214   4.382   8.588  0.0042 -0.0731 -0.0633
  420loPI    C1 6705  16.480   2.810   9.858  0.0511 -0.0127 -0.0408
  420loPI    C2 6706  16.293   2.956  10.181 -0.1430  0.0135 -0.1634
  420loPI    C3 6707  16.265   2.567  10.093  0.1741 -0.0566  0.0276
  420loPI   PO4 6708  16.384   2.934   9.655 -0.1931  0.1164 -0.2254
  420loPI   GL1 6709  16.137   2.640   9.119 -0.1669  0.1417  0.3628
  420loPI   GL2 6710  16.219   2.917   9.170 -0.3730  0.2458  0.3364
  420loPI   C1A 6711  15.943   2.744   8.750 -0.3762  0.2085  0.1295
  420loPI   C2A 6712  15.732   2.782   8.370  0.2084  0.1867  0.0160
  420loPI   C3A 6713  15.786   2.920   7.908  0.0618 -0.0120 -0.1371
  420loPI   C4A 6714  15.811   3.048   7.449 -0.0195  0.1395 -0.0642
  420loPI   C5A 6715  15.604   3.269   7.096  0.0762  0.3035 -0.1277
  420loPI   C6A 6716  15.419   3.500   6.787  0.1474  0.0746 -0.0743
  420loPI   C1B 6717  16.426   2.811   8.755  0.0062  0.0594 -0.0902
  420loPI   C2B 6718  16.298   2.613   8.361  0.0283 -0.0258  0.2330
  420loPI   C3B 6719  16.423   2.739   7.945 -0.1319  0.1833  0.2046
  420loPI   C4B 6720  16.283   2.783   7.503 -0.3585  0.1519  0.0664
  421loPI    C1 6721  15.758   0.718   9.834 -0.0444  0.1783 -0.2595
  421loPI    C2 6722  15.552   0.978  10.057  0.1318 -0.0563  0.1891
  421loPI    C3 6723  15.834   0.749  10.226  0.1445 -0.3712 -0.2434
  421loPI   PO4 6724  15.871   0.825   9.612  0.0078  0.0767  0.1982
  421loPI   GL1 6725  16.287   0.876   9.308 -0.2822  0.0188 -0.0881
  421loPI   GL2 6726  16.569   0.748   9.179 -0.0556 -0.2076  0.0287
  421loPI   C1A 6727  16.142   0.893   8.878  0.0341 -0.0252  0.0309
  421loPI   C2A 6728  15.896   1.017   8.542  0.2034 -0.1972  0.0496
  421loPI   C3A 6729  15.861   1.092   8.087  0.2189 -0.1043  0.3144
  421loPI   C4A 6730  16.207   1.187   7.850 -0.0616 -0.0693  0.1984
  421loPI   C5A 6731  16.520   1.230   7.591  0.0948  0.0730  0.0780
  421loPI   C6A 6732  16.870   1.462   7.614 -0.0651 -0.1984  0.1750
  421loPI   C1B 6733  16.313   0.373   9.000  0.1921  0.1378 -0.2886
  421loPI   C2B 6734  16.256   0.218   8.633  0.3466  0.1704  0.4855
  421loPI   C3B 6735  16.188   0.369   8.199 -0.2681  0.1342 -0.1318
  421loPI   C4B 6736  16.113   0.198   7.837  0.1768 -0.3982  0.2567
  422loPI    C1 6737   3.272   0.209  10.602 -0.0186 -0.0147  0.1470
  422loPI    C2 6738   2.919   0.068  10.478 -0.0042  0.1327 -0.0668
  422loPI    C3 6739   3.219  -0.185  10.557 -0.1410  0.0104  0.0682
  422loPI   PO4 6740   3.321   0.414  10.427  0.4951 -0.3052  0.0755
  422loPI   GL1 6741   3.135   0.469  10.105 -0.3295 -0.0286 -0.3793
  422loPI   GL2 6742   2.891   0.637   9.978 -0.0344 -0.1764 -0.1293
  422loPI   C1A 6743   3.073   0.373   9.631  0.2173 -0.0856 -0.1484
  422loPI   C2A 6744   2.859   0.318   9.298 -0.5059  0.0694 -0.0944
  422loPI   C3A 6745   2.858   0.376   8.944  0.0810  0.1185 -0.1361
  422loPI   C4A 6746   2.766   0.143   8.533 -0.2383 -0.1916 -0.4272
  422loPI   C5A 6747   2.569   0.170   8.154 -0.0106 -0.3276 -0.3338
  422loPI   C6A 6748   2.365   0.117   7.744  0.2202 -0.0426  0.0502
  422loPI   C1B 6749   2.881   0.840   9.514 -0.2041  0.1117  0.3054
  422loPI   C2B 6750   2.856   0.851   9.098  0.0541  0.2425 -0.0078
  422loPI   C3B 6751   2.974   0.837   8.650  0.0485  0.0791 -0.0870
  422loPI   C4B 6752   2.816   0.597   8.288 -0.4135  0.0742 -0.1714
  423loPI    C1 6753   5.620  16.146   9.874  0.0216 -0.0521 -0.1373
  423loPI    C2 6754   5.344  16.311  10.111 -0.0539 -0.1582 -0.1506
  423loPI    C3 6755   5.610  16.054  10.263  0.2040  0.1416 -0.0849
  423loPI   PO4 6756   5.471  16.102   9.625 -0.1102 -0.2088  0.1057
  423loPI   GL1 6757   5.527  16.201   9.170 -0.0113 -0.1970 -0.0579
  423loPI   GL2 6758   5.527  16.544   9.109  0.2244  0.2341 -0.1302
  423loPI   C1A 6759   5.673  16.321   8.694 -0.1862  0.2247 -0.0243
  423loPI   C2A 6760   5.754  16.401   8.218 -0.1008  0.0661  0.1481
  423loPI   C3A 6761   5.790  16.493   7.793  0.1128  0.1282  0.3589
  423loPI   C4A 6762   5.752  16.452   7.377 -0.0819 -0.1154  0.0623
  423loPI   C5A 6763   6.130  16.626   7.211  0.1269 -0.0607 -0.2451
  423loPI   C6A 6764   6.306  16.889   7.261 -0.0901  0.0428  0.1069
  423loPI   C1B 6765   5.196  16.695   8.953 -0.0428  0.2117  0.0562
  423loPI   C2B 6766   5.045  16.965   8.720  0.0922  0.3219  0.4264
  423loPI   C3B 6767   5.126  16.950   8.301  0.1404 -0.0420 -0.0527
  423loPI   C4B 6768   5.308  16.656   7.996 -0.2535  0.3546  0.1488
  424loPI    C1 6769   8.899  12.069   9.548 -0.1150  0.1027 -0.1406
  424loPI    C2 6770   9.145  11.841   9.331  0.1111  0.2124 -0.0032
  424loPI    C3 6771   9.025  11.718   9.692  0.0645  0.2157 -0.0174
  424loPI   PO4 6772   8.769  12.179   9.251 -0.0607 -0.0478 -0.1468
  424loPI   GL1 6773   8.726  12.376   8.832  0.3302  0.2093 -0.0983
  424loPI   GL2 6774   8.493  12.613   8.853  0.1281  0.0000  0.1503
  424loPI   C1A 6775   8.912  12.425   8.420  0.0353  0.1389 -0.1578
  424loPI   C2A 6776   8.834  12.293   7.946  0.2839  0.1500 -0.0940
  424loPI   C3A 6777   8.939  12.092   7.625 -0.0513 -0.0152 -0.0425
  424loPI   C4A 6778   9.037  12.035   7.201 -0.0002  0.3005  0.0327
  424loPI   C5A 6779   8.890  11.814   6.911 -0.0093 -0.1379 -0.1339
  424loPI   C6A 6780   8.462  11.688   6.880 -0.2343  0.2031 -0.0083
  424loPI   C1B 6781   8.449  12.824   8.498 -0.0984 -0.4515  0.0120
  424loPI   C2B 6782   8.453  12.868   8.119  0.0061 -0.1466 -0.0202
  424loPI   C3B 6783   8.817  12.835   7.865  0.0535 -0.0307 -0.1435
  424loPI   C4B 6784   8.889  12.564   7.463 -0.1794 -0.0536  0.1191
  425loPI    C1 6785   4.021  17.226  10.079 -0.0614  0.1634 -0.1668
  425loPI    C2 6786   3.815  17.114  10.402 -0.1393 -0.1116 -0.3088
  425loPI    C3 6787   4.202  17.207  10.435 -0.1630 -0.0730 -0.1263
  425loPI   PO4 6788   3.843  17.337   9.968 -0.2089 -0.0250  0.0383
  425loPI   GL1 6789   3.594  17.261   9.589  0.4035  0.2182 -0.0399
  425loPI   GL2 6790   3.651  17.663   9.461  0.0048  0.0925  0.1119
  425loPI   C1A 6791   3.405  16.987   9.244  0.1138  0.0572  0.0366
  425loPI   C2A 6792   3.496  16.862   8.784  0.0709  0.0930 -0.0953
  425loPI   C3A 6793   3.437  16.711   8.363 -0.0931 -0.1280 -0.0926
  425loPI   C4A 6794   3.446  16.619   7.957 -0.1717  0.2223  0.2134
  425loPI   C5A 6795   3.433  16.298   7.677  0.2328  0.0112 -0.1094
  425loPI   C6A 6796   3.143  15.932   7.618 -0.3134 -0.4559  0.1758
  425loPI   C1B 6797   3.625  17.743   9.014  0.0968  0.0682 -0.1626
  425loPI   C2B 6798   3.923  17.699   8.643  0.0323 -0.3716  0.1909
  425loPI   C3B 6799   3.814  17.622   8.214 -0.1988 -0.3521 -0.0113
  425loPI   C4B 6800   3.706  17.477   7.715  0.3090  0.0577  0.2577
  426loPI    C1 6801   7.263  10.674   9.985  0.0996 -0.2543 -0.0273
  426loPI    C2 6802   7.022  10.428  10.189  0.0713 -0.1207  0.1016
  426loPI    C3 6803   7.292  10.650  10.383 -0.1121  0.1799  0.0200
  426loPI   PO4 6804   7.069  10.866   9.820  0.0581  0.0643  0.1491
  426loPI   GL1 6805   7.026  10.965   9.308  0.0637 -0.0736 -0.4105
  426loPI   GL2 6806   6.887  10.687   9.406 -0.1691 -0.2020  0.0543
  426loPI   C1A 6807   7.039  10.852   8.914 -0.3033  0.3010  0.1219
  426loPI   C2A 6808   6.879  10.680   8.466 -0.3428  0.0889 -0.1657
  426loPI   C3A 6809   6.840  10.575   8.086  0.3710  0.2925  0.4784
  426loPI   C4A 6810   6.851  10.312   7.698 -0.0272  0.1882  0.1636
  426loPI   C5A 6811   6.869  10.029   7.404  0.3561  0.0279 -0.3369
  426loPI   C6A 6812   6.969   9.986   6.925 -0.0445 -0.0281  0.3068
  426loPI   C1B 6813   6.855  10.377   8.942 -0.0296 -0.1483 -0.2916
  426loPI   C2B 6814   6.741  10.187   8.629 -0.0844  0.1438  0.2570
  426loPI   C3B 6815   6.799  10.130   8.251 -0.0649  0.0323  0.0177
  426loPI   C4B 6816   6.973   9.841   7.876 -0.2239 -0.2040 -0.2761
  427loPI    C1 6817  10.962   7.238  10.054 -0.0458 -0.0599  0.1947
  427loPI    C2 6818  11.158   6.978  10.286  0.2049  0.0202  0.0771
  427loPI    C3 6819  11.346   7.302  10.147  0.0534 -0.0174 -0.2238
  427loPI   PO4 6820  10.810   7.050   9.882 -0.0232 -0.1227 -0.1178
  427loPI   GL1 6821  10.763   6.931   9.524  0.1030  0.1058 -0.1339
  427loPI   GL2 6822  11.066   6.892   9.355  0.0356  0.2739  0.0693
  427loPI   C1A 6823  10.561   6.935   9.055 -0.1897 -0.1387  0.5051
  427loPI   C2A 6824  10.631   6.995   8.668 -0.0289 -0.1208 -0.0079
  427loPI   C3A 6825  10.600   6.972   8.319  0.1397 -0.0936 -0.0931
  427loPI   C4A 6826  10.352   6.722   7.962  0.0527 -0.4516 -0.0715
  427loPI   C5A 6827  10.047   6.735   7.693  0.1665 -0.4612  0.0329
  427loPI   C6A 6828   9.795   6.906   7.258  0.1525 -0.2418 -0.0400
  427loPI   C1B 6829  10.992   6.639   9.102 -0.0758 -0.2402  0.2031
  427loPI   C2B 6830  10.873   6.411   8.747 -0.0817  0.2366 -0.0874
  427loPI   C3B 6831  10.658   6.357   8.366  0.0973 -0.1178 -0.0334
  427loPI   C4B 6832  10.497   6.238   8.011 -0.3604  0.0478 -0.0112
  428loPI    C1 6833  11.042  11.338   9.408  0.2505  0.1595 -0.0270
  428loPI    C2 6834  10.861  11.130   9.698  0.0602  0.0578 -0.2151
  428loPI    C3 6835  11.107  11.431   9.791  0.1386 -0.0857  0.0542
  428loPI   PO4 6836  10.773  11.316   9.249 -0.2241  0.2550 -0.0971
  428loPI   GL1 6837  10.714  11.203   8.811 -0.0889  0.0053 -0.1367
  428loPI   GL2 6838  10.863  11.477   8.758  0.2528 -0.0558 -0.2413
  428loPI   C1A 6839  10.397  11.511   8.449  0.4070 -0.3683 -0.0422
  428loPI   C2A 6840  10.368  11.476   8.099 -0.2922 -0.0234  0.2190
  428loPI   C3A 6841  10.511  11.459   7.650  0.0290  0.2174 -0.0544
  428loPI   C4A 6842  10.402  11.459   7.242 -0.0809 -0.0793  0.0751
  428loPI   C5A 6843  10.058  11.438   6.900  0.0034  0.0876  0.0179
  428loPI   C6A 6844   9.661  11.413   6.918 -0.0181  0.0429  0.0852
  428loPI   C1B 6845  10.897  11.613   8.403  0.0105  0.0187  0.1444
  428loPI   C2B 6846  10.901  11.652   7.963  0.0169 -0.0311  0.3915
  428loPI   C3B 6847  11.027  11.608   7.634  0.1146 -0.1684 -0.1085
  428loPI   C4B 6848  10.930  11.491   7.296 -0.2342 -0.3193 -0.0605
  429loPI    C1 6849   9.823  13.754   9.874  0.1495 -0.2316  0.1045
  429loPI    C2 6850   9.474  13.586   9.973 -0.0364  0.0508 -0.0567
  429loPI    C3 6851   9.595  13.919  10.158 -0.0212  0.1502 -0.2429
  429loPI   PO4 6852   9.779  13.857   9.648 -0.4124 -0.2881 -0.1908
  429loPI   GL1 6853   9.649  13.998   9.179 -0.2742 -0.2496 -0.1875
  429loPI   GL2 6854   9.344  14.187   9.280 -0.3551 -0.3758  0.1519
  429loPI   C1A 6855   9.490  13.948   8.745 -0.2284  0.1785  0.2342
  429loPI   C2A 6856   9.468  14.254   8.437  0.1082  0.2619  0.1393
  429loPI   C3A 6857   9.494  14.343   8.020  0.0444 -0.1506  0.1666
  429loPI   C4A 6858   9.393  14.484   7.713 -0.0872  0.3786 -0.1143
  429loPI   C5A 6859   9.513  14.465   7.303 -0.1676  0.0718 -0.2045
  429loPI   C6A 6860   9.755  14.242   6.893 -0.0476 -0.1224 -0.1312
  429loPI   C1B 6861   9.233  14.401   8.883 -0.2633  0.1463 -0.0359
  429loPI   C2B 6862   9.074  14.662   8.482  0.0135 -0.0906  0.2944
  429loPI   C3B 6863   9.045  14.645   8.017  0.1916  0.0533  0.0207
  429loPI   C4B 6864   8.958  14.750   7.580 -0.1115  0.0449 -0.0384
  430loPI    C1 6865   1.260   5.983  10.270 -0.0865  0.0292  0.0446
  430loPI    C2 6866   1.313   6.126  10.640  0.3226 -0.0957  0.0382
  430loPI    C3 6867   1.013   5.872  10.565  0.1270  0.0712  0.2418
  430loPI   PO4 6868   1.182   6.240  10.185  0.3357  0.2781  0.2927
  430loPI   GL1 6869   1.029   6.210   9.730  0.0262 -0.0392 -0.0779
  430loPI   GL2 6870   1.064   5.814   9.798 -0.0413  0.0314 -0.2830
  430loPI   C1A 6871   0.954   6.064   9.352  0.5584 -0.0041  0.1349
  430loPI   C2A 6872   0.907   6.074   8.964  0.0342 -0.0462 -0.0734
  430loPI   C3A 6873   0.680   6.048   8.601  0.0496 -0.0157  0.2628
  430loPI   C4A 6874   0.498   5.981   8.204 -0.0996  0.2299 -0.3061
  430loPI   C5A 6875   0.413   6.352   7.951  0.4044  0.1458 -0.1198
  430loPI   C6A 6876   0.129   6.435   7.689  0.1908  0.1736  0.2435
  430loPI   C1B 6877   0.783   5.627   9.473 -0.2297  0.1121  0.2853
  430loPI   C2B 6878   0.714   5.470   9.137  0.0239 -0.2106 -0.0810
  430loPI   C3B 6879   0.675   5.565   8.659 -0.1282  0.0297  0.4652
  430loPI   C4B 6880   0.540   5.467   8.279  0.4136  0.1165  0.2769
  431loPI    C1 6881  11.072  10.291   9.607 -0.0276 -0.0613  0.1021
  431loPI    C2 6882  11.212  10.464   9.939 -0.0402  0.1370  0.0056
  431loPI    C3 6883  10.869  10.590   9.778 -0.1061 -0.0530 -0.0048
  431loPI   PO4 6884  11.222  10.287   9.444 -0.1387 -0.2862  0.0844
  431loPI   GL1 6885  11.387  10.163   9.063  0.0119 -0.2030 -0.1556
  431loPI   GL2 6886  11.068  10.229   8.892  0.2019 -0.1026  0.0628
  431loPI   C1A 6887  11.715  10.223   8.935  0.0639 -0.0873  0.1595
  431loPI   C2A 6888  11.767  10.369   8.479  0.0668  0.0775  0.1116
  431loPI   C3A 6889  11.801  10.398   8.090 -0.2951 -0.0914 -0.1471
  431loPI   C4A 6890  11.719  10.314   7.577  0.1710  0.0385  0.1319
  431loPI   C5A 6891  12.060  10.401   7.383  0.1382 -0.1510  0.0202
  431loPI   C6A 6892  12.455  10.267   7.186  0.1331  0.0216  0.3498
  431loPI   C1B 6893  10.952  10.274   8.525  0.2420  0.2620 -0.2756
  431loPI   C2B 6894  10.711  10.185   8.177 -0.2209  0.1270  0.0834
  431loPI   C3B 6895  10.516  10.096   7.773 -0.0889 -0.0359 -0.0135
  431loPI   C4B 6896  10.850  10.143   7.356 -0.2592  0.3684  0.3142
  432loPI    C1 6897   5.660  16.716   9.703  0.2002 -0.1066 -0.0966
  432loPI    C2 6898   5.264  16.663   9.682  0.1857  0.0063 -0.1144
  432loPI    C3 6899   5.426  16.833  10.006  0.1978  0.1508 -0.1954
  432loPI   PO4 6900   5.712  16.920   9.534 -0.0800  0.0168 -0.2291
  432loPI   GL1 6901   5.769  17.104   9.227 -0.1398 -0.2702 -0.0918
  432loPI   GL2 6902   5.451  17.062   9.077 -0.0692 -0.0206 -0.1574
  432loPI   C1A 6903   5.805  17.399   8.873 -0.0976  0.1116  0.0157
  432loPI   C2A 6904   5.674  17.346   8.367  0.0315 -0.0298 -0.4377
  432loPI   C3A 6905   5.373  17.294   8.098 -0.1256 -0.0682  0.0570
  432loPI   C4A 6906   5.195  17.197   7.773 -0.0975  0.0991  0.1654
  432loPI   C5A 6907   5.108  17.520   7.372  0.1331 -0.3018  0.0467
  432loPI   C6A 6908   5.244  17.720   7.111  0.1998 -0.0469 -0.0976
  432loPI   C1B 6909   5.560  16.924   8.723  0.0933 -0.1018  0.0577
  432loPI   C2B 6910   5.671  16.826   8.428  0.4038 -0.3071 -0.0490
  432loPI   C3B 6911   5.814  16.956   8.037 -0.0095  0.0574 -0.3080
  432loPI   C4B 6912   5.863  16.947   7.615  0.0951  0.1997  0.1919
  433loPI    C1 6913  14.131  17.449   9.653 -0.2306  0.3046  0.1634
  433loPI    C2 6914  13.837  17.296   9.428 -0.1028 -0.0393  0.2250
  433loPI    C3 6915  13.805  17.296   9.827 -0.0519 -0.0096  0.2293
  433loPI   PO4 6916  14.353  17.449   9.437  0.1555  0.2512  0.1854
  433loPI   GL1 6917  14.299  17.618   8.951 -0.1501 -0.2037 -0.2369
  433loPI   GL2 6918  14.223  17.916   8.829  0.0813  0.0131 -0.1014
  433loPI   C1A 6919  14.224  17.538   8.503 -0.0470 -0.1760 -0.2437
  433loPI   C2A 6920  14.082  17.601   8.211  0.1577  0.0114 -0.0539
  433loPI   C3A 6921  13.939  17.588   7.873 -0.0926  0.1592  0.2740
  433loPI   C4A 6922  14.019  17.585   7.421 -0.5300 -0.0614  0.1495
  433loPI   C5A 6923  14.217  17.791   7.024  0.0654  0.3227  0.1889
  433loPI   C6A 6924  14.619  18.090   6.790 -0.2270  0.0361 -0.3001
  433loPI   C1B 6925  14.138  18.117   8.346  0.3558  0.0738 -0.2954
  433loPI   C2B 6926  14.073  18.145   7.841  0.3824 -0.1255 -0.0777
  433loPI   C3B 6927  13.781  18.293   7.542  0.4324 -0.0531  0.2243
  433loPI   C4B 6928  13.483  18.495   7.528 -0.1348 -0.1947  0.0227
  434loPI    C1 6929   6.286   1.400   9.658  0.1104 -0.0941  0.1739
  434loPI    C2 6930   6.327   1.714   9.902  0.1088 -0.0491  0.1167
  434loPI    C3 6931   6.389   1.344  10.040  0.0921 -0.0250  0.1892
  434loPI   PO4 6932   6.212   1.498   9.408 -0.0752 -0.1390  0.0660
  434loPI   GL1 6933   6.058   1.433   9.051  0.2557  0.2285 -0.1149
  434loPI   GL2 6934   5.959   1.281   8.783 -0.2455 -0.0828 -0.3032
  434loPI   C1A 6935   5.755   1.735   8.717 -0.0163 -0.1225 -0.1490
  434loPI   C2A 6936   5.831   1.804   8.391  0.0861 -0.2475  0.0385
  434loPI   C3A 6937   5.948   1.994   7.983  0.0903  0.0973  0.0577
  434loPI   C4A 6938   6.155   2.198   7.743 -0.1029 -0.0892 -0.4504
  434loPI   C5A 6939   5.994   2.387   7.398 -0.2662 -0.3377  0.2966
  434loPI   C6A 6940   5.627   2.311   7.204  0.1048 -0.0139  0.4208
  434loPI   C1B 6941   5.928   1.301   8.516 -0.1751  0.0520 -0.1453
  434loPI   C2B 6942   5.904   1.354   8.072  0.0942  0.0820 -0.1038
  434loPI   C3B 6943   5.934   1.562   7.748  0.4505 -0.0826 -0.1241
  434loPI   C4B 6944   5.821   1.899   7.556 -0.0889 -0.3636  0.1241
  435loPI    C1 6945   8.020   9.185   9.715 -0.2285 -0.3871  0.1337
  435loPI    C2 6946   8.282   9.003   9.956  0.0699 -0.1054  0.0288
  435loPI    C3 6947   8.099   9.337  10.077  0.0527 -0.0866 -0.0490
  435loPI   PO4 6948   8.152   9.128   9.494  0.0526  0.2214  0.0850
  435loPI   GL1 6949   8.312   9.329   9.160 -0.0980  0.3084  0.2021
  435loPI   GL2 6950   8.128   9.203   9.024  0.1675 -0.1213  0.0149
  435loPI   C1A 6951   8.493   9.185   8.739 -0.0426 -0.0992  0.1432
  435loPI   C2A 6952   8.499   9.193   8.279 -0.2156 -0.0762 -0.3673
  435loPI   C3A 6953   8.371   9.311   7.853 -0.0581  0.1865 -0.1632
  435loPI   C4A 6954   8.486   9.265   7.383  0.1716 -0.2191  0.2584
  435loPI   C5A 6955   8.670   9.414   7.018 -0.1456 -0.1643 -0.1615
  435loPI   C6A 6956   8.419   9.390   6.645  0.0424 -0.0176  0.2874
  435loPI   C1B 6957   8.041   9.290   8.649 -0.1604  0.2037 -0.2693
  435loPI   C2B 6958   7.972   9.195   8.197  0.0275  0.1282 -0.1904
  435loPI   C3B 6959   8.074   8.923   7.820 -0.0689  0.3515  0.0778
  435loPI   C4B 6960   8.152   8.746   7.396  0.1642 -0.3328  0.0809
  436loPI    C1 6961  13.725   5.207   9.827 -0.1219  0.0621 -0.0749
  436loPI    C2 6962  14.044   4.991   9.934 -0.1413  0.0925  0.0460
  436loPI    C3 6963  13.882   5.249  10.193 -0.1661  0.1943 -0.0705
  436loPI   PO4 6964  13.634   5.084   9.652 -0.2076 -0.1574  0.1019
  436loPI   GL1 6965  13.471   5.224   9.254  0.2393  0.2499  0.1080
  436loPI   GL2 6966  13.430   5.555   9.192  0.0951 -0.4327 -0.1143
  436loPI   C1A 6967  13.821   5.315   8.952 -0.1592 -0.0070 -0.0014
  436loPI   C2A 6968  13.877   5.217   8.540  0.4864 -0.0721 -0.1395
  436loPI   C3A 6969  13.845   5.166   8.053  0.0106 -0.0414 -0.0637
  436loPI   C4A 6970  13.645   5.218   7.671  0.1504 -0.0455  0.0601
  436loPI   C5A 6971  13.641   4.941   7.277 -0.2147  0.1723  0.0521
  436loPI   C6A 6972  13.946   4.744   6.958 -0.1879  0.1788  0.2121
  436loPI   C1B 6973  13.581   5.663   8.662  0.0399 -0.3872 -0.1619
  436loPI   C2B 6974  13.641   5.557   8.178 -0.2212 -0.1612 -0.2388
  436loPI   C3B 6975  13.434   5.609   7.827 -0.2066 -0.1698 -0.0491
  436loPI   C4B 6976  13.021   5.712   7.501  0.0531  0.0147 -0.2233
  437loPI    C1 6977   8.530   9.691   9.432  0.0197  0.0831  0.0243
  437loPI    C2 6978   8.550   9.493   9.779 -0.0273 -0.0046 -0.0228
  437loPI    C3 6979   8.198   9.626   9.646 -0.0388 -0.1418 -0.1318
  437loPI   PO4 6980   8.701   9.891   9.476  0.2510 -0.2963  0.1555
  437loPI   GL1 6981   8.608  10.213   9.111  0.0135 -0.2117 -0.2446
  437loPI   GL2 6982   8.733   9.838   8.934  0.1010 -0.0792 -0.0984
  437loPI   C1A 6983   8.433  10.091   8.622  0.0961 -0.2928 -0.0109
  437loPI   C2A 6984   8.368  10.129   8.234 -0.1467  0.2010 -0.2012
  437loPI   C3A 6985   8.487  10.236   7.866  0.1711 -0.0189  0.3747
  437loPI   C4A 6986   8.675  10.357   7.500 -0.0089  0.0138 -0.0188
  437loPI   C5A 6987   8.833  10.270   7.097  0.0722 -0.0573  0.1426
  437loPI   C6A 6988   8.973   9.895   7.041  0.1171  0.0566 -0.1467
  437loPI   C1B 6989   8.885   9.513   8.521 -0.2052 -0.1201  0.3693
  437loPI   C2B 6990   9.043   9.218   8.241  0.2206 -0.0497  0.0341
  437loPI   C3B 6991   9.182   9.339   7.919  0.2644  0.1662  0.2822
  437loPI   C4B 6992   8.926   9.126   7.627 -0.2737 -0.2624  0.0373
  438loPI    C1 6993  18.393  10.832   9.803 -0.0165 -0.0792 -0.0184
  438loPI    C2 6994  18.724  10.610   9.773 -0.0613 -0.1872  0.2606
  438loPI    C3 6995  18.484  10.571  10.091 -0.3030 -0.0548  0.0983
  438loPI   PO4 6996  18.231  10.763   9.576  0.1752 -0.6479 -0.0882
  438loPI   GL1 6997  18.197  10.731   9.126  0.2286  0.2514 -0.0629
  438loPI   GL2 6998  18.130  11.036   9.197 -0.1721 -0.0787  0.0594
  438loPI   C1A 6999  17.789  10.739   9.052 -0.2416  0.1417  0.1164
  438loPI   C2A 7000  17.601  10.508   8.775 -0.1172  0.0768  0.1194
  438loPI   C3A 7001  17.565  10.545   8.322 -0.2306 -0.3346 -0.0729
  438loPI   C4A 7002  17.241  10.626   7.908  0.0290  0.2583  0.1978
  438loPI   C5A 7003  17.541  10.482   7.658 -0.3241 -0.2628 -0.3074
  438loPI   C6A 7004  17.564  10.164   7.414  0.1950 -0.4450  0.4535
  438loPI   C1B 7005  17.951  11.117   8.749  0.0176  0.2150 -0.1488
  438loPI   C2B 7006  17.743  11.422   8.326 -0.0323  0.0864 -0.4061
  438loPI   C3B 7007  17.704  11.358   7.853  0.0971 -0.1485 -0.0690
  438loPI   C4B 7008  17.696  11.441   7.410  0.3109  0.3216 -0.2730
  439loPI    C1 7009  12.572   7.954   9.598  0.0536 -0.3540 -0.1396
  439loPI    C2 7010  12.899   8.023   9.819 -0.0505 -0.0009 -0.0907
  439loPI    C3 7011  12.566   7.887   9.993 -0.0113 -0.1070 -0.0976
  439loPI   PO4 7012  12.689   7.897   9.374  0.1985 -0.1565  0.0956
  439loPI   GL1 7013  13.013   7.777   9.013 -0.3237 -0.0664  0.1018
  439loPI   GL2 7014  13.286   7.735   9.000 -0.1880  0.0009 -0.3053
  439loPI   C1A 7015  12.695   7.879   8.677  0.2453  0.0477  0.2502
  439loPI   C2A 7016  12.471   8.029   8.318  0.0285  0.2141 -0.3526
  439loPI   C3A 7017  12.192   8.050   8.050  0.0505 -0.2458 -0.2411
  439loPI   C4A 7018  11.833   7.983   7.848  0.1389 -0.0727 -0.2114
  439loPI   C5A 7019  11.643   7.590   7.594 -0.3139  0.1684  0.4561
  439loPI   C6A 7020  11.968   7.340   7.388  0.1074 -0.2457 -0.3180
  439loPI   C1B 7021  13.169   7.879   8.533 -0.2347  0.1987  0.0570
  439loPI   C2B 7022  13.175   8.078   8.137 -0.0161  0.2225 -0.1895
  439loPI   C3B 7023  13.142   7.850   7.658  0.0847 -0.1558  0.2311
  439loPI   C4B 7024  12.939   7.870   7.265  0.0051  0.0083  0.0449
  440loPI    C1 7025  12.123  19.090   9.555 -0.1351  0.0875 -0.0676
  440loPI    C2 7026  12.372  18.841   9.366 -0.1093 -0.0166  0.1021
  440loPI    C3 7027  12.459  18.970   9.734 -0.2500  0.0378  0.1171
  440loPI   PO4 7028  12.016  19.306   9.308 -0.3046  0.1498  0.2507
  440loPI   GL1 7029  12.065  19.365   8.799 -0.0662 -0.0773  0.0982
  440loPI   GL2 7030  11.861  19.287   8.631 -0.1612  0.1410  0.2050
  440loPI   C1A 7031  12.480  19.236   8.451  0.0205  0.0511 -0.0631
  440loPI   C2A 7032  12.800  19.235   8.103  0.3194 -0.0725 -0.1763
  440loPI   C3A 7033  12.847  19.177   7.721 -0.0732  0.4534 -0.0885
  440loPI   C4A 7034  13.089  19.161   7.345  0.6335  0.2654 -0.0490
  440loPI   C5A 7035  13.310  18.944   6.956  0.0063  0.0969  0.2254
  440loPI   C6A 7036  13.627  18.602   6.883 -0.0713  0.2027 -0.1716
  440loPI   C1B 7037  11.953  19.353   8.225 -0.1288  0.0053 -0.1204
  440loPI   C2B 7038  12.086  19.322   7.804 -0.0358  0.0017 -0.1991
  440loPI   C3B 7039  11.952  19.076   7.425 -0.2519 -0.0474  0.1933
  440loPI   C4B 7040  11.848  18.929   7.174 -0.0819  0.3053 -0.3618
  441loPI    C1 7041  13.755  14.892   9.327  0.2441 -0.0244 -0.0770
  441loPI    C2 7042  13.940  14.597   9.522 -0.0170 -0.1773 -0.0557
  441loPI    C3 7043  13.572  14.707   9.630 -0.0041  0.0133 -0.2014
  441loPI   PO4 7044  13.700  14.814   9.109 -0.1705  0.1243  0.2384
  441loPI   GL1 7045  13.679  14.615   8.807 -0.2023 -0.0426  0.1762
  441loPI   GL2 7046  13.879  14.331   8.672 -0.3366 -0.1140 -0.0449
  441loPI   C1A 7047  13.671  14.662   8.363 -0.1926  0.1189 -0.2035
  441loPI   C2A 7048  13.543  14.835   7.884 -0.0294 -0.0867 -0.2522
  441loPI   C3A 7049  13.387  15.031   7.369  0.3787  0.2777 -0.1682
  441loPI   C4A 7050  13.267  14.933   6.899  0.3062  0.0755 -0.3725
  441loPI   C5A 7051  13.145  14.727   6.543 -0.2356 -0.2397 -0.0383
  441loPI   C6A 7052  12.827  14.651   6.193  0.1268  0.0732 -0.2839
  441loPI   C1B 7053  13.950  14.091   8.287 -0.2887  0.1359 -0.1736
  441loPI   C2B 7054  13.975  14.030   7.856 -0.2028  0.0493  0.1591
  441loPI   C3B 7055  13.844  13.863   7.462 -0.1376  0.0716 -0.0272
  441loPI   C4B 7056  13.453  13.694   7.131  0.1416 -0.0893  0.3091
  442loPI    C1 7057  12.930  18.555   9.375 -0.2227 -0.0080 -0.0590
  442loPI    C2 7058  12.704  18.271   9.544 -0.1410  0.0232  0.1048
  442loPI    C3 7059  12.879  18.549   9.772  0.2581 -0.1411  0.0070
  442loPI   PO4 7060  12.825  18.516   9.111  0.0500  0.3421 -0.0081
  442loPI   GL1 7061  12.522  18.405   9.046 -0.0215 -0.2974  0.0764
  442loPI   GL2 7062  12.692  18.110   8.783  0.3083 -0.0635 -0.2721
  442loPI   C1A 7063  12.277  18.503   8.683 -0.2725  0.0185  0.0956
  442loPI   C2A 7064  12.456  18.777   8.347  0.0799  0.0777  0.2218
  442loPI   C3A 7065  12.499  18.849   7.873 -0.0189 -0.2148  0.0359
  442loPI   C4A 7066  12.479  18.860   7.353  0.0928 -0.0920 -0.1470
  442loPI   C5A 7067  12.303  19.023   6.856  0.0996  0.0271 -0.2873
  442loPI   C6A 7068  12.029  19.206   6.565 -0.0163  0.0927 -0.3378
  442loPI   C1B 7069  12.614  18.284   8.394 -0.1218 -0.1520  0.0059
  442loPI   C2B 7070  12.577  18.382   7.974 -0.3100  0.0876 -0.0968
  442loPI   C3B 7071  12.641  18.386   7.548  0.0339  0.0242 -0.2419
  442loPI   C4B 7072  12.529  18.138   7.122  0.1366 -0.2431  0.1793
  443loPI    C1 7073  17.976  18.982  10.176  0.1003 -0.1310  0.0679
  443loPI    C2 7074  17.592  19.081  10.224  0.1073 -0.0597 -0.0200
  443loPI    C3 7075  17.829  19.040  10.543  0.0189 -0.1358  0.0364
  443loPI   PO4 7076  17.908  18.847   9.868 -0.0924 -0.0936 -0.0603
  443loPI   GL1 7077  17.799  18.855   9.541 -0.0938  0.0096 -0.0561
  443loPI   GL2 7078  18.022  18.723   9.341 -0.3405  0.1801  0.1713
  443loPI   C1A 7079  18.013  19.190   9.230 -0.1726  0.0929  0.1237
  443loPI   C2A 7080  18.064  19.257   8.833 -0.1602 -0.1306 -0.0030
  443loPI   C3A 7081  18.005  19.282   8.413 -0.3163  0.1823 -0.0745
  443loPI   C4A 7082  18.053  19.485   8.000  0.2329  0.0921  0.1472
  443loPI   C5A 7083  18.418  19.296   7.712  0.1309  0.1065  0.0522
  443loPI   C6A 7084  18.571  19.191   7.361 -0.1627 -0.1403 -0.2003
  443loPI   C1B 7085  18.220  18.684   8.943  0.1868  0.1341  0.0287
  443loPI   C2B 7086  18.382  18.463   8.478 -0.0818 -0.0882  0.0749
  443loPI   C3B 7087  18.411  18.228   8.124  0.1310 -0.0780 -0.4847
  443loPI   C4B 7088  18.477  18.142   7.647  0.0994  0.4717 -0.0708
  444loPI    C1 7089  13.370   6.033   9.548  0.2383  0.1373  0.0270
  444loPI    C2 7090  13.574   6.009   9.892 -0.2416 -0.1664  0.3014
  444loPI    C3 7091  13.266   6.263   9.858 -0.1226 -0.0514  0.0509
  444loPI   PO4 7092  13.590   6.004   9.356  0.0560 -0.1033 -0.2307
  444loPI   GL1 7093  13.561   6.070   8.965  0.1182 -0.0960  0.7210
  444loPI   GL2 7094  13.882   6.000   8.964  0.1695 -0.1290 -0.2896
  444loPI   C1A 7095  13.705   6.232   8.501 -0.1731  0.1949  0.2288
  444loPI   C2A 7096  13.736   6.295   8.086 -0.1199  0.1184 -0.0326
  444loPI   C3A 7097  13.854   6.251   7.748  0.1306 -0.0516  0.1583
  444loPI   C4A 7098  14.034   6.551   7.434  0.1275 -0.3259  0.0969
  444loPI   C5A 7099  14.416   6.465   7.133  0.0535  0.0463  0.1663
  444loPI   C6A 7100  14.849   6.360   7.223 -0.6717 -0.2592 -0.1340
  444loPI   C1B 7101  14.048   5.889   8.622  0.2008  0.0584 -0.0098
  444loPI   C2B 7102  13.945   5.869   8.216  0.3294 -0.3000  0.0250
  444loPI   C3B 7103  13.863   5.769   7.779  0.2251  0.1521 -0.1090
  444loPI   C4B 7104  13.589   5.828   7.390 -0.0118 -0.2750 -0.2022
  445loPI    C1 7105   6.746   4.871  10.085  0.2359  0.0155  0.3047
  445loPI    C2 7106   6.471   4.616   9.946  0.1207  0.2936  0.0078
  445loPI    C3 7107   6.461   4.731  10.329  0.0568  0.0077  0.0947
  445loPI   PO4 7108   6.750   4.965   9.818 -0.0709 -0.1993  0.2487
  445loPI   GL1 7109   6.654   5.182   9.420  0.2378  0.0727 -0.1485
  445loPI   GL2 7110   6.942   4.974   9.340 -0.1382  0.0370  0.1433
  445loPI   C1A 7111   6.918   5.282   8.978  0.0252 -0.1548 -0.2364
  445loPI   C2A 7112   6.775   5.439   8.608 -0.4071  0.0317 -0.2465
  445loPI   C3A 7113   6.800   5.454   8.178 -0.0552 -0.1704  0.2647
  445loPI   C4A 7114   7.000   5.455   7.763  0.1593  0.0942  0.1113
  445loPI   C5A 7115   6.892   5.337   7.323  0.2075  0.0944 -0.0823
  445loPI   C6A 7116   7.090   5.011   7.189 -0.1859 -0.0272  0.0736
  445loPI   C1B 7117   6.558   4.703   9.301 -0.0835 -0.0853  0.2099
  445loPI   C2B 7118   6.294   4.544   8.964  0.2248  0.0948  0.0175
  445loPI   C3B 7119   6.048   4.874   8.704 -0.2249 -0.0441  0.1340
  445loPI   C4B 7120   6.299   5.167   8.406 -0.1441  0.2168  0.1091
  446loPI    C1 7121   2.016  11.787   9.559  0.2018 -0.0037  0.0992
  446loPI    C2 7122   2.104  12.125   9.754  0.0956  0.0060  0.1309
  446loPI    C3 7123   2.377  11.834   9.724  0.2690  0.1882 -0.0973
  446loPI   PO4 7124   2.003  11.877   9.290 -0.3263 -0.1022  0.2072
  446loPI   GL1 7125   1.833  11.627   9.002  0.0725 -0.2267  0.2177
  446loPI   GL2 7126   2.127  11.721   8.822  0.1060  0.0152 -0.1106
  446loPI   C1A 7127   1.692  11.576   8.476  0.0284 -0.0649 -0.1643
  446loPI   C2A 7128   1.973  11.586   8.045  0.0371 -0.0524  0.0714
  446loPI   C3A 7129   2.191  11.707   7.560 -0.1969  0.0213 -0.0413
  446loPI   C4A 7130   2.250  11.961   7.205 -0.2606  0.2699  0.0711
  446loPI   C5A 7131   2.152  12.000   6.810 -0.1913  0.1478  0.2893
  446loPI   C6A 7132   1.753  12.060   6.518  0.1584  0.1801  0.2418
  446loPI   C1B 7133   2.127  11.294   8.602  0.0488 -0.4051  0.0566
  446loPI   C2B 7134   2.219  11.186   8.183 -0.1483 -0.2560 -0.2034
  446loPI   C3B 7135   2.236  11.242   7.723 -0.1251  0.2144  0.0073
  446loPI   C4B 7136   2.427  11.240   7.384 -0.0521  0.2338  0.1214
  447loPI    C1 7137  18.320   2.823  10.292  0.2308 -0.0271 -0.1903
  447loPI    C2 7138  18.124   2.806  10.640  0.2841  0.1264 -0.1518
  447loPI    C3 7139  18.036   2.547  10.348  0.2769 -0.0380 -0.0053
  447loPI   PO4 7140  18.645   2.834  10.366 -0.0157  0.0947  0.2258
  447loPI   GL1 7141  18.724   2.787   9.968 -0.0963 -0.0332  0.3650
  447loPI   GL2 7142  18.826   2.522  10.014 -0.3928 -0.0422  0.1103
  447loPI   C1A 7143  19.105   2.798   9.688 -0.1540 -0.2836 -0.0331
  447loPI   C2A 7144  19.341   2.921   9.346 -0.0101 -0.2524 -0.1856
  447loPI   C3A 7145  19.492   2.743   9.038 -0.1320  0.1232  0.1310
  447loPI   C4A 7146  19.516   2.603   8.663  0.1780 -0.1797  0.1039
  447loPI   C5A 7147  19.487   2.892   8.250 -0.1786  0.2057  0.2656
  447loPI   C6A 7148  19.531   2.575   7.889 -0.0364  0.3928 -0.2132
  447loPI   C1B 7149  18.738   2.359   9.604 -0.0898  0.1998 -0.0903
  447loPI   C2B 7150  18.871   2.328   9.188  0.2545  0.0763 -0.1952
  447loPI   C3B 7151  19.073   2.479   8.899  0.0122  0.3634  0.0942
  447loPI   C4B 7152  19.052   2.490   8.482 -0.7356  0.3606  0.1694
  448loPI    C1 7153  14.610  15.593   8.958  0.2073 -0.0066  0.2417
  448loPI    C2 7154  14.482  15.245   8.806  0.1936  0.1999 -0.2355
  448loPI    C3 7155  14.872  15.334   8.801  0.2168  0.1216  0.0430
  448loPI   PO4 7156  14.500  15.746   8.867  0.2575 -0.2416 -0.1430
  448loPI   GL1 7157  14.461  15.881   8.427 -0.2980  0.1568  0.1390
  448loPI   GL2 7158  14.571  15.493   8.409  0.1528 -0.1423 -0.0569
  448loPI   C1A 7159  14.615  16.169   8.246  0.0142 -0.0814  0.1191
  448loPI   C2A 7160  14.698  16.304   7.757  0.3104  0.0921  0.2862
  448loPI   C3A 7161  14.949  16.265   7.530 -0.0794 -0.4590 -0.1938
  448loPI   C4A 7162  15.122  16.195   7.163 -0.2211 -0.1714  0.1190
  448loPI   C5A 7163  15.278  16.210   6.648 -0.4269 -0.1607 -0.1628
  448loPI   C6A 7164  15.280  16.240   6.139  0.1823  0.1142 -0.0446
  448loPI   C1B 7165  14.668  15.740   7.989 -0.0137 -0.2050  0.1679
  448loPI   C2B 7166  14.593  15.781   7.595 -0.1749 -0.1847 -0.3560
  448loPI   C3B 7167  14.709  15.883   7.276 -0.3444  0.1279 -0.1814
  448loPI   C4B 7168  14.987  15.773   6.822  0.0274 -0.1820  0.1214
  449loPI    C1 7169  16.994  11.125   9.866  0.0925 -0.1151  0.0797
  449loPI    C2 7170  17.233  10.929  10.120 -0.0345 -0.3469  0.0233
  449loPI    C3 7171  16.866  11.038  10.235  0.0552 -0.0905  0.0728
  449loPI   PO4 7172  17.051  10.936   9.648 -0.1776 -0.1606  0.1710
  449loPI   GL1 7173  17.217  10.869   9.325 -0.1905 -0.0146 -0.1637
  449loPI   GL2 7174  17.001  10.978   8.986 -0.0278  0.0576  0.0919
  449loPI   C1A 7175  17.427  11.150   9.020 -0.0686  0.0448  0.1143
  449loPI   C2A 7176  17.497  10.957   8.616  0.1146 -0.2490  0.1760
  449loPI   C3A 7177  17.420  11.008   8.187  0.1468 -0.2484  0.1622
  449loPI   C4A 7178  17.325  11.063   7.715  0.0829 -0.0279  0.0102
  449loPI   C5A 7179  17.657  10.967   7.399  0.0887  0.0443  0.3440
  449loPI   C6A 7180  17.652  10.559   7.103  0.0101 -0.1149 -0.1987
  449loPI   C1B 7181  17.116  10.563   8.889  0.1945  0.1015  0.1138
  449loPI   C2B 7182  17.128  10.224   8.577  0.2411 -0.0957  0.1738
  449loPI   C3B 7183  17.254  10.180   8.172  0.2097 -0.0967  0.3942
  449loPI   C4B 7184  17.429  10.061   7.924 -0.1452  0.1373 -0.1505
  450loPI    C1 7185  14.488   2.371   9.812 -0.4850  0.2678 -0.1621
  450loPI    C2 7186  14.610   2.654  10.067  0.2116 -0.1711  0.0180
  450loPI    C3 7187  14.459   2.311  10.206 -0.0876 -0.1249 -0.1843
  450loPI   PO4 7188  14.378   2.499   9.642 -0.3099  0.0854 -0.0076
  450loPI   GL1 7189  14.227   2.424   9.167  0.2664 -0.3059 -0.0031
  450loPI   GL2 7190  14.023   2.183   9.083  0.0946 -0.2763  0.2970
  450loPI   C1A 7191  14.264   2.736   8.915  0.1074  0.0703  0.1281
  450loPI   C2A 7192  14.482   2.846   8.609 -0.1076  0.2527 -0.0377
  450loPI   C3A 7193  14.511   2.899   8.268 -0.1163 -0.4632  0.1465
  450loPI   C4A 7194  14.209   2.826   7.976  0.0244 -0.0958 -0.0787
  450loPI   C5A 7195  13.793   2.620   7.835 -0.0121  0.0084  0.0980
  450loPI   C6A 7196  13.627   2.679   7.359  0.0694 -0.0279  0.2432
  450loPI   C1B 7197  14.028   1.898   8.746  0.0698 -0.0233 -0.1458
  450loPI   C2B 7198  14.082   1.880   8.302 -0.3403 -0.0134  0.1534
  450loPI   C3B 7199  14.029   1.807   7.810 -0.0066 -0.4649 -0.3423
  450loPI   C4B 7200  13.801   1.619   7.550  0.1376 -0.1420  0.3442
  451loPI    C1 7201   5.144   9.087  10.268  0.2234  0.1521  0.1339
  451loPI    C2 7202   5.219   8.952  10.637  0.1594  0.1000  0.1282
  451loPI    C3 7203   4.976   9.266  10.584  0.1219  0.0708  0.1266
  451loPI   PO4 7204   5.050   8.806  10.121 -0.0279 -0.1758  0.1412
  451loPI   GL1 7205   5.012   8.673   9.663 -0.0431  0.0164 -0.0485
  451loPI   GL2 7206   4.723   8.674   9.518 -0.1381 -0.3646 -0.2127
  451loPI   C1A 7207   4.899   9.124   9.372 -0.1801  0.2079 -0.1469
  451loPI   C2A 7208   5.016   9.150   9.032 -0.0877 -0.2088 -0.0629
  451loPI   C3A 7209   4.883   8.854   8.677 -0.1108  0.0344 -0.0180
  451loPI   C4A 7210   4.705   8.491   8.421 -0.0482 -0.2299  0.0513
  451loPI   C5A 7211   4.498   8.210   8.162 -0.0703 -0.0963  0.2505
  451loPI   C6A 7212   4.128   8.177   7.917 -0.4336  0.0108 -0.1345
  451loPI   C1B 7213   4.581   8.782   9.109  0.1251  0.2380  0.2938
  451loPI   C2B 7214   4.405   8.897   8.760 -0.0359  0.0492 -0.1726
  451loPI   C3B 7215   4.497   8.929   8.374 -0.1187  0.1810  0.0790
  451loPI   C4B 7216   4.725   8.867   7.947  0.1866  0.1835  0.1459
  452loPI    C1 7217   0.537  11.728   9.084  0.0611  0.1542  0.1437
  452loPI    C2 7218   0.840  11.486   8.985 -0.1371 -0.0865  0.1154
  452loPI    C3 7219   0.676  11.464   9.349 -0.2276 -0.0710  0.0760
  452loPI   PO4 7220   0.603  11.939   8.897 -0.1974  0.0855  0.1540
  452loPI   GL1 7221   0.542  11.858   8.498 -0.0372 -0.1820 -0.1926
  452loPI   GL2 7222   0.641  11.557   8.552 -0.1646  0.0487  0.2805
  452loPI   C1A 7223   0.235  11.885   8.208  0.0773 -0.1834 -0.0811
  452loPI   C2A 7224   0.149  11.771   7.804  0.2323  0.3069 -0.0891
  452loPI   C3A 7225   0.306  11.706   7.343 -0.3412 -0.3225  0.1741
  452loPI   C4A 7226   0.412  11.348   7.190  0.1900 -0.2053 -0.1811
  452loPI   C5A 7227   0.462  11.121   6.770 -0.1127 -0.0359 -0.2080
  452loPI   C6A 7228   0.225  10.748   6.830 -0.0217  0.2172 -0.3907
  452loPI   C1B 7229   0.793  11.403   8.037 -0.1477  0.0416 -0.1091
  452loPI   C2B 7230   0.514  11.300   7.710  0.2892  0.1624 -0.1556
  452loPI   C3B 7231   0.869  11.138   7.462 -0.0074  0.1014  0.2238
  452loPI   C4B 7232   1.050  10.732   7.392  0.0186 -0.2438  0.0177
  453loPI    C1 7233   6.491   4.119   9.806 -0.2425 -0.0496 -0.1394
  453loPI    C2 7234   6.148   4.283   9.931 -0.0142  0.2426  0.1202
  453loPI    C3 7235   6.274   4.345   9.556 -0.0283  0.5032  0.1563
  453loPI   PO4 7236   6.486   3.825   9.870 -0.1990  0.1557 -0.4522
  453loPI   GL1 7237   6.520   3.549   9.580 -0.0061  0.1923  0.1397
  453loPI   GL2 7238   6.612   3.925   9.383  0.0152 -0.4705  0.2855
  453loPI   C1A 7239   6.396   3.548   9.200 -0.1766  0.3092 -0.0326
  453loPI   C2A 7240   6.025   3.652   8.959  0.0778 -0.0737 -0.1452
  453loPI   C3A 7241   5.899   3.618   8.411 -0.2076  0.2937  0.1695
  453loPI   C4A 7242   6.057   3.721   7.955 -0.1374 -0.3269  0.1842
  453loPI   C5A 7243   6.150   3.527   7.552 -0.2966  0.0738  0.1216
  453loPI   C6A 7244   6.207   3.220   7.381  0.2311  0.1679 -0.1835
  453loPI   C1B 7245   6.714   3.995   9.033 -0.2259  0.7040  0.0801
  453loPI   C2B 7246   6.690   4.153   8.694 -0.1985 -0.1856  0.1484
  453loPI   C3B 7247   6.543   4.582   8.510 -0.2025 -0.1604 -0.1598
  453loPI   C4B 7248   6.150   4.615   8.270 -0.3073  0.2434 -0.0330
  454loPI    C1 7249  11.418  13.310   9.364  0.1662  0.1220 -0.2370
  454loPI    C2 7250  11.731  13.332   9.612 -0.1092  0.2448  0.1099
  454loPI    C3 7251  11.725  13.057   9.322  0.3131  0.2373  0.1009
  454loPI   PO4 7252  11.366  13.517   9.278 -0.1588 -0.1688  0.0571
  454loPI   GL1 7253  11.305  13.900   9.003 -0.0684 -0.1175  0.0100
  454loPI   GL2 7254  11.465  13.687   8.820  0.2716  0.3516 -0.3469
  454loPI   C1A 7255  11.098  13.982   8.587 -0.0330  0.0065  0.1944
  454loPI   C2A 7256  11.005  14.015   8.187  0.1504 -0.0723 -0.3018
  454loPI   C3A 7257  11.096  14.105   7.813 -0.0742  0.2377  0.2483
  454loPI   C4A 7258  10.987  14.177   7.343 -0.1715  0.0009 -0.0598
  454loPI   C5A 7259  10.793  14.559   7.145  0.0351  0.2542  0.3963
  454loPI   C6A 7260  10.428  14.682   7.227 -0.1162  0.2890 -0.1266
  454loPI   C1B 7261  11.442  13.615   8.460 -0.0426 -0.0253  0.1667
  454loPI   C2B 7262  11.407  13.689   8.002 -0.2155  0.0510  0.0000
  454loPI   C3B 7263  11.364  13.623   7.586  0.1264 -0.2426  0.1559
  454loPI   C4B 7264  11.457  13.506   7.197 -0.0180 -0.4953  0.0968
  455loPI    C1 7265   0.497  10.959   9.359 -0.0455 -0.2019 -0.1635
  455loPI    C2 7266   0.829  11.025   9.571 -0.1397 -0.0381 -0.0646
  455loPI    C3 7267   0.595  10.713   9.658 -0.0561 -0.1056 -0.0802
  455loPI   PO4 7268   0.677  10.922   9.097  0.3066  0.1281  0.0727
  455loPI   GL1 7269   0.770  11.080   8.750 -0.1331  0.1430 -0.5752
  455loPI   GL2 7270   0.485  10.849   8.616 -0.2124  0.0602  0.1309
  455loPI   C1A 7271   1.074  10.997   8.371  0.1172 -0.2353  0.0741
  455loPI   C2A 7272   1.124  10.820   8.007 -0.1894  0.1750 -0.1688
  455loPI   C3A 7273   1.323  11.002   7.665 -0.1087 -0.2758 -0.1405
  455loPI   C4A 7274   1.445  11.033   7.246 -0.3534  0.0695 -0.1119
  455loPI   C5A 7275   1.554  11.255   6.881 -0.0808  0.0162 -0.4598
  455loPI   C6A 7276   1.694  11.484   6.575 -0.2063 -0.0149 -0.3344
  455loPI   C1B 7277   0.586  10.978   8.178  0.2736 -0.0426 -0.1770
  455loPI   C2B 7278   0.680  10.798   7.787 -0.1641 -0.0601  0.1355
  455loPI   C3B 7279   0.508  10.401   7.558 -0.0992  0.1389  0.0040
  455loPI   C4B 7280   0.196  10.397   7.232 -0.1154 -0.1698  0.3148
  456loPI    C1 7281  11.550   3.902   9.882 -0.0677 -0.1413 -0.3407
  456loPI    C2 7282  11.190   3.913  10.056 -0.0168 -0.0895 -0.2377
  456loPI    C3 7283  11.401   3.573  10.053  0.2376  0.0504  0.3297
  456loPI   PO4 7284  11.419   4.092   9.653 -0.0475  0.3718  0.1497
  456loPI   GL1 7285  11.338   3.962   9.208  0.1176  0.1772 -0.2432
  456loPI   GL2 7286  11.703   4.086   9.199  0.3472  0.0449 -0.1270
  456loPI   C1A 7287  11.485   3.962   8.704  0.1015 -0.0059  0.1282
  456loPI   C2A 7288  11.563   3.964   8.313 -0.0917  0.0063  0.0280
  456loPI   C3A 7289  11.394   4.028   7.926  0.0769 -0.0103 -0.0692
  456loPI   C4A 7290  11.386   4.315   7.611  0.0607  0.2592 -0.0189
  456loPI   C5A 7291  11.605   4.583   7.464  0.1957 -0.2211 -0.1584
  456loPI   C6A 7292  11.843   4.712   7.070  0.2359 -0.0474  0.1185
  456loPI   C1B 7293  11.908   4.347   8.911 -0.1035  0.2160  0.2074
  456loPI   C2B 7294  11.932   4.304   8.565  0.1231 -0.0612 -0.1992
  456loPI   C3B 7295  12.161   4.449   8.260 -0.0259 -0.0000 -0.2474
  456loPI   C4B 7296  11.845   4.399   7.868  0.0854 -0.1888  0.3027
  457loPI    C1 7297   9.558  10.402   9.476 -0.0098  0.0941 -0.1288
  457loPI    C2 7298   9.897  10.461   9.680 -0.2095 -0.0197  0.2444
  457loPI    C3 7299   9.618  10.747   9.670 -0.2281 -0.0399  0.1843
  457loPI   PO4 7300   9.616  10.172   9.308  0.1337  0.2270  0.0453
  457loPI   GL1 7301   9.749  10.092   8.938  0.2244 -0.0472 -0.2473
  457loPI   GL2 7302   9.804   9.792   8.953  0.1061 -0.2090 -0.0034
  457loPI   C1A 7303   9.603   9.988   8.473  0.0331  0.0625 -0.0938
  457loPI   C2A 7304   9.513  10.177   8.085 -0.2228  0.0834 -0.0274
  457loPI   C3A 7305   9.523  10.205   7.607 -0.1125 -0.0665  0.3062
  457loPI   C4A 7306   9.765  10.509   7.236 -0.3663  0.4649  0.2201
  457loPI   C5A 7307   9.744  10.553   6.819 -0.0594 -0.1351 -0.2895
  457loPI   C6A 7308   9.843  10.506   6.380  0.2086  0.1051  0.0283
  457loPI   C1B 7309   9.901   9.605   8.661  0.4460 -0.1111 -0.2522
  457loPI   C2B 7310   9.773   9.526   8.195 -0.1528  0.0889  0.1441
  457loPI   C3B 7311   9.699   9.359   7.726 -0.0199 -0.2036  0.4745
  457loPI   C4B 7312   9.804   9.036   7.315  0.0727  0.2980 -0.1361
  458loPI    C1 7313  13.039  14.342   9.067 -0.2378  0.0852 -0.0209
  458loPI    C2 7314  13.175  14.340   9.444 -0.0271 -0.0353 -0.0957
  458loPI    C3 7315  12.839  14.539   9.353  0.0693  0.2245  0.1030
  458loPI   PO4 7316  13.256  14.418   8.911  0.2402  0.1586 -0.1727
  458loPI   GL1 7317  13.214  14.820   8.727  0.4393 -0.0446  0.0546
  458loPI   GL2 7318  12.942  14.679   8.643 -0.3045  0.0862 -0.3817
  458loPI   C1A 7319  13.253  15.078   8.398 -0.0497  0.0153 -0.1083
  458loPI   C2A 7320  12.964  15.256   8.072  0.1566 -0.1112  0.3351
  458loPI   C3A 7321  12.627  15.209   7.841  0.3703 -0.1523 -0.1431
  458loPI   C4A 7322  12.613  15.264   7.476  0.0603  0.2974  0.0635
  458loPI   C5A 7323  12.623  15.353   7.025 -0.0051  0.0403 -0.1774
  458loPI   C6A 7324  12.508  15.642   6.746  0.0178  0.2614 -0.0406
  458loPI   C1B 7325  12.659  14.795   8.269  0.0374 -0.0462 -0.1049
  458loPI   C2B 7326  12.456  14.715   7.973 -0.2707 -0.1126 -0.0248
  458loPI   C3B 7327  12.400  14.803   7.535 -0.1645 -0.1708 -0.3232
  458loPI   C4B 7328  12.252  14.896   7.044 -0.0544  0.2074  0.0186
  459loPI    C1 7329  13.917  12.366   8.948 -0.1290  0.1015 -0.0107
  459loPI    C2 7330  13.850  12.291   9.335 -0.0179  0.1694  0.0219
  459loPI    C3 7331  13.584  12.501   9.123 -0.0589  0.1682  0.0720
  459loPI   PO4 7332  13.990  12.113   8.867  0.1701  0.1384  0.1745
  459loPI   GL1 7333  14.293  12.082   8.534 -0.1455 -0.3503  0.0648
  459loPI   GL2 7334  14.528  12.201   8.746 -0.5535 -0.1592  0.2421
  459loPI   C1A 7335  14.229  12.130   8.088  0.0682  0.3316 -0.0732
  459loPI   C2A 7336  14.247  11.963   7.635 -0.1765  0.6816  0.4340
  459loPI   C3A 7337  14.286  11.985   7.236  0.0176 -0.2012 -0.0793
  459loPI   C4A 7338  14.368  11.708   6.884 -0.0489  0.0125 -0.0872
  459loPI   C5A 7339  14.297  11.722   6.348  0.3184 -0.0458 -0.2445
  459loPI   C6A 7340  14.374  11.828   5.856 -0.0931  0.0273  0.0803
  459loPI   C1B 7341  14.769  12.331   8.416  0.3376  0.2249 -0.2022
  459loPI   C2B 7342  14.723  12.303   8.045  0.0497 -0.0294  0.1385
  459loPI   C3B 7343  14.720  12.184   7.592 -0.2666 -0.2872 -0.1578
  459loPI   C4B 7344  14.764  12.111   7.184 -0.2106  0.1507  0.1779
  460loPI    C1 7345  14.211  19.038   9.281  0.1742  0.0458 -0.0091
  460loPI    C2 7346  14.028  19.393   9.284  0.0013 -0.0431  0.0644
  460loPI    C3 7347  13.989  19.151   8.968  0.1269  0.0066  0.0103
  460loPI   PO4 7348  14.485  19.088   9.242  0.4209  0.1623  0.0106
  460loPI   GL1 7349  14.727  19.242   8.989 -0.0937  0.0592 -0.2554
  460loPI   GL2 7350  14.846  19.570   9.061 -0.3956 -0.0293 -0.0057
  460loPI   C1A 7351  15.136  19.278   8.705 -0.1982  0.2579 -0.0289
  460loPI   C2A 7352  15.449  19.103   8.367  0.3811  0.5776  0.0149
  460loPI   C3A 7353  15.366  18.930   8.058 -0.1723  0.2255 -0.2363
  460loPI   C4A 7354  15.541  18.982   7.665  0.0193  0.4337 -0.1921
  460loPI   C5A 7355  15.804  18.687   7.619  0.0644  0.2254  0.0878
  460loPI   C6A 7356  16.184  18.643   7.598  0.0561  0.0343  0.1154
  460loPI   C1B 7357  14.757  19.634   8.599  0.2736 -0.1729  0.3188
  460loPI   C2B 7358  14.798  19.613   8.202  0.0911 -0.1823  0.2426
  460loPI   C3B 7359  14.620  19.458   7.813  0.2698 -0.3433 -0.1073
  460loPI   C4B 7360  14.621  19.515   7.368 -0.1094 -0.1913  0.0163
  461loPI    C1 7361  14.929   8.528   9.653 -0.0801 -0.0163  0.0811
  461loPI    C2 7362  15.045   8.835   9.882  0.0512  0.0305 -0.0459
  461loPI    C3 7363  14.903   8.501  10.051 -0.0425  0.1404  0.0950
  461loPI   PO4 7364  14.890   8.696   9.367  0.2443 -0.1445 -0.0562
  461loPI   GL1 7365  14.952   8.921   8.991  0.0453 -0.0762  0.0817
  461loPI   GL2 7366  15.329   8.745   8.982  0.2758 -0.0204  0.0346
  461loPI   C1A 7367  14.758   8.869   8.618  0.1014 -0.1044 -0.0464
  461loPI   C2A 7368  14.609   8.594   8.296 -0.3797 -0.4929 -0.0593
  461loPI   C3A 7369  14.749   8.426   7.852  0.1472  0.0090  0.0522
  461loPI   C4A 7370  14.747   8.322   7.496  0.0448  0.0517  0.0959
  461loPI   C5A 7371  14.442   8.333   7.152  0.0914  0.0944  0.0636
  461loPI   C6A 7372  14.600   8.396   6.682  0.2340  0.0521 -0.2399
  461loPI   C1B 7373  15.410   8.706   8.545 -0.4143  0.4958  0.2584
  461loPI   C2B 7374  15.544   8.608   8.159 -0.0299  0.1111  0.0904
  461loPI   C3B 7375  15.614   8.603   7.725  0.0264  0.0050 -0.4526
  461loPI   C4B 7376  15.755   8.386   7.354  0.0633 -0.1234  0.0250
  462loPI    C1 7377   3.548   3.036  10.276  0.1576 -0.0762 -0.5814
  462loPI    C2 7378   3.619   2.648  10.337 -0.1749 -0.0222  0.2759
  462loPI    C3 7379   3.568   2.894  10.649  0.5335  0.8221 -0.2295
  462loPI   PO4 7380   3.485   3.103  10.040  0.2972 -0.1086 -0.0752
  462loPI   GL1 7381   3.211   2.950   9.821 -0.0530 -0.1550 -0.1628
  462loPI   GL2 7382   3.422   2.722   9.529  0.1044 -0.2091 -0.0865
  462loPI   C1A 7383   2.991   2.948   9.314  0.1535 -0.4587  0.1667
  462loPI   C2A 7384   3.003   2.996   8.818 -0.2283 -0.2610 -0.1795
  462loPI   C3A 7385   3.181   3.270   8.460 -0.1545  0.0312  0.1153
  462loPI   C4A 7386   3.102   3.465   7.984 -0.2425  0.1146  0.0972
  462loPI   C5A 7387   3.258   3.888   7.777 -0.1870  0.2722 -0.0358
  462loPI   C6A 7388   3.148   4.311   7.947  0.0039 -0.0708 -0.2291
  462loPI   C1B 7389   3.428   2.688   9.166 -0.3568  0.0780 -0.1237
  462loPI   C2B 7390   3.614   2.854   8.729  0.0732  0.0336  0.0803
  462loPI   C3B 7391   3.582   2.861   8.365  0.1544  0.1714  0.1512
  462loPI   C4B 7392   3.464   3.117   8.007 -0.0682  0.1444 -0.3288
  463loPI    C1 7393   2.510  19.095  10.288  0.0242  0.4430  0.1555
  463loPI    C2 7394   2.462  19.324  10.613 -0.0518  0.0627  0.4186
  463loPI    C3 7395   2.535  18.932  10.653  0.3121  0.0779 -0.0208
  463loPI   PO4 7396   2.661  19.283  10.094  0.1517 -0.0013 -0.1178
  463loPI   GL1 7397   2.695  19.456   9.691 -0.0259  0.1400 -0.1563
  463loPI   GL2 7398   2.779  19.179   9.577  0.2146 -0.0761  0.0450
  463loPI   C1A 7399   2.427  19.562   9.247  0.2166 -0.0837  0.0415
  463loPI   C2A 7400   2.427  19.496   8.879  0.2853  0.1466 -0.4208
  463loPI   C3A 7401   2.187  19.702   8.547 -0.0202  0.2079 -0.0080
  463loPI   C4A 7402   2.015  19.760   8.122 -0.2022 -0.1839 -0.1385
  463loPI   C5A 7403   1.916  19.889   7.760  0.0079  0.2166  0.0237
  463loPI   C6A 7404   1.794  19.971   7.365  0.0978 -0.2242 -0.2557
  463loPI   C1B 7405   2.732  19.151   9.074 -0.0481  0.0778 -0.1431
  463loPI   C2B 7406   2.531  19.078   8.633  0.0958 -0.0187 -0.1379
  463loPI   C3B 7407   2.115  19.141   8.489  0.2247  0.3223  0.2871
  463loPI   C4B 7408   1.890  18.902   8.546  0.1842 -0.0208  0.1731
  464loPI    C1 7409   6.011   0.429   9.899 -0.0911 -0.2436  0.1550
  464loPI    C2 7410   6.354   0.397  10.103  0.0657 -0.0807 -0.0784
  464loPI    C3 7411   6.006   0.327  10.286  0.2196 -0.2053  0.1721
  464loPI   PO4 7412   6.111   0.354   9.672  0.1589  0.4018 -0.0058
  464loPI   GL1 7413   5.950   0.473   9.254  0.1981  0.0838 -0.0282
  464loPI   GL2 7414   6.133   0.750   9.115  0.0214  0.0450 -0.1092
  464loPI   C1A 7415   5.908   0.118   8.979  0.0939  0.3157 -0.0078
  464loPI   C2A 7416   6.195  -0.194   8.735 -0.0786  0.1511  0.1257
  464loPI   C3A 7417   6.191  -0.277   8.258  0.1778  0.3249  0.0440
  464loPI   C4A 7418   6.027  -0.294   7.848 -0.2579 -0.0086  0.2087
  464loPI   C5A 7419   5.766  -0.660   7.791 -0.1522  0.1569  0.0727
  464loPI   C6A 7420   5.337  -0.660   7.738  0.2076  0.0297  0.1656
  464loPI   C1B 7421   6.097   0.746   8.736  0.2209  0.0037  0.0201
  464loPI   C2B 7422   6.083   0.769   8.312  0.0404  0.2561 -0.0238
  464loPI   C3B 7423   6.093   0.900   7.945  0.2117 -0.1666  0.1888
  464loPI   C4B 7424   6.174   1.027   7.488 -0.3603  0.1852 -0.3264
  465loPI    C1 7425   5.434   4.038  10.183 -0.0183  0.1547  0.2767
  465loPI    C2 7426   5.603   4.240   9.882  0.0645 -0.2643  0.0347
  465loPI    C3 7427   5.730   4.297  10.257  0.0867  0.1254 -0.0280
  465loPI   PO4 7428   5.243   4.021  10.120  0.0667 -0.1230 -0.2340
  465loPI   GL1 7429   5.033   4.009   9.733  0.2260  0.0722  0.0145
  465loPI   GL2 7430   4.968   3.655   9.647 -0.0306  0.0489  0.2195
  465loPI   C1A 7431   5.233   4.091   9.272 -0.0993  0.3259  0.1332
  465loPI   C2A 7432   5.263   4.106   8.790 -0.4152 -0.3935 -0.1893
  465loPI   C3A 7433   5.111   4.072   8.317  0.2155 -0.1087  0.0108
  465loPI   C4A 7434   4.967   4.164   8.032  0.3196 -0.1035  0.0358
  465loPI   C5A 7435   4.975   4.474   7.694 -0.1100  0.1054 -0.2725
  465loPI   C6A 7436   5.244   4.662   7.406 -0.0441  0.1474 -0.0023
  465loPI   C1B 7437   5.093   3.604   9.232 -0.2578  0.1093  0.2425
  465loPI   C2B 7438   4.960   3.613   8.906 -0.1277 -0.1534 -0.0164
  465loPI   C3B 7439   4.719   3.807   8.654 -0.2031 -0.1328 -0.3034
  465loPI   C4B 7440   4.706   4.233   8.494  0.1345  0.1033  0.0987
  466loPI    C1 7441  12.800  11.009   9.738  0.2760 -0.1062  0.0391
  466loPI    C2 7442  13.092  11.102   9.995 -0.0564  0.2802  0.2906
  466loPI    C3 7443  12.730  11.000  10.132 -0.0896 -0.0395 -0.0203
  466loPI   PO4 7444  12.889  11.184   9.492 -0.0190  0.2317 -0.1029
  466loPI   GL1 7445  13.039  11.221   9.031 -0.0292  0.1920 -0.0994
  466loPI   GL2 7446  12.724  11.269   9.063  0.1065  0.0330 -0.0750
  466loPI   C1A 7447  12.956  10.880   8.791  0.2992 -0.0520 -0.1106
  466loPI   C2A 7448  12.600  10.985   8.437  0.3076 -0.0656  0.0769
  466loPI   C3A 7449  12.595  11.175   7.968  0.0325  0.1652 -0.1547
  466loPI   C4A 7450  12.370  10.994   7.642  0.2885  0.0182 -0.0343
  466loPI   C5A 7451  12.317  10.865   7.313 -0.1436  0.3438 -0.0861
  466loPI   C6A 7452  12.294  10.736   6.964  0.0714 -0.2450  0.1778
  466loPI   C1B 7453  12.782  11.425   8.608 -0.1365 -0.2281  0.0744
  466loPI   C2B 7454  12.811  11.648   8.278 -0.0992  0.4298  0.1718
  466loPI   C3B 7455  13.061  11.623   7.842  0.1453 -0.4416 -0.1468
  466loPI   C4B 7456  13.352  11.847   7.642 -0.1638 -0.1276 -0.2210
  467loPI    C1 7457   8.763  14.801   9.709  0.0054  0.0575 -0.0434
  467loPI    C2 7458   8.434  14.967   9.863  0.0315  0.1013 -0.0344
  467loPI    C3 7459   8.783  15.162   9.880  0.0864 -0.0061  0.0835
  467loPI   PO4 7460   8.582  14.656   9.457  0.0339 -0.2087  0.0320
  467loPI   GL1 7461   8.589  14.449   9.099  0.1604  0.1477 -0.2110
  467loPI   GL2 7462   8.219  14.504   9.173  0.2964  0.0903 -0.1698
  467loPI   C1A 7463   8.487  14.136   8.750 -0.2402  0.2609 -0.0445
  467loPI   C2A 7464   8.458  13.969   8.351  0.1556 -0.2429 -0.0115
  467loPI   C3A 7465   8.551  14.157   7.903 -0.0986  0.1014  0.1357
  467loPI   C4A 7466   8.435  14.211   7.586 -0.3030 -0.3009  0.1312
  467loPI   C5A 7467   8.368  14.498   7.196 -0.3533  0.0393 -0.3017
  467loPI   C6A 7468   8.096  14.732   7.080 -0.0355 -0.2803  0.2858
  467loPI   C1B 7469   8.043  14.480   8.808 -0.3145  0.2592 -0.2976
  467loPI   C2B 7470   8.128  14.504   8.373  0.3068 -0.2354  0.1657
  467loPI   C3B 7471   8.081  14.587   7.997  0.2394  0.1480 -0.2337
  467loPI   C4B 7472   8.018  14.491   7.517 -0.0056  0.3658  0.0640
  468loPI    C1 7473   7.712   0.359   9.364  0.1334 -0.2230 -0.3263
  468loPI    C2 7474   7.513   0.129   9.623  0.1051  0.1843  0.0242
  468loPI    C3 7475   7.883   0.028   9.508  0.2400  0.1541  0.4649
  468loPI   PO4 7476   7.468   0.572   9.290  0.1943  0.1535  0.1681
  468loPI   GL1 7477   7.532   0.907   9.052 -0.1956 -0.0302 -0.0468
  468loPI   GL2 7478   7.138   0.847   8.996  0.2810  0.2007 -0.0928
  468loPI   C1A 7479   7.365   1.137   8.646 -0.4053  0.0031  0.0494
  468loPI   C2A 7480   7.444   1.370   8.189  0.0175 -0.5130 -0.0030
  468loPI   C3A 7481   7.595   1.254   7.807  0.0782 -0.0117  0.0714
  468loPI   C4A 7482   7.755   0.847   7.613  0.2052  0.1446  0.3188
  468loPI   C5A 7483   7.811   0.870   7.186 -0.0065  0.1020  0.2751
  468loPI   C6A 7484   7.798   0.795   6.657  0.3653 -0.0642 -0.0429
  468loPI   C1B 7485   6.993   0.836   8.577  0.2637  0.0948  0.0154
  468loPI   C2B 7486   6.770   0.767   8.131 -0.3655 -0.1501 -0.3749
  468loPI   C3B 7487   6.509   0.678   7.768  0.1806 -0.1095  0.1589
  468loPI   C4B 7488   6.380   0.195   7.541  0.1309 -0.2468 -0.4240
  469loPI    C1 7489  12.854  17.442   9.472 -0.0372  0.0550  0.0861
  469loPI    C2 7490  12.750  17.727   9.732  0.2891  0.2092  0.0520
  469loPI    C3 7491  12.803  17.352   9.858  0.2542  0.2442  0.1720
  469loPI   PO4 7492  12.987  17.581   9.331  0.2417  0.5396  0.0530
  469loPI   GL1 7493  12.979  17.662   8.971 -0.4628 -0.0914 -0.0319
  469loPI   GL2 7494  13.299  17.581   8.850  0.4024 -0.0161 -0.1787
  469loPI   C1A 7495  12.814  17.683   8.563 -0.2442 -0.0343  0.1454
  469loPI   C2A 7496  12.680  17.722   8.146 -0.2637 -0.0445 -0.2539
  469loPI   C3A 7497  12.603  17.731   7.839  0.1018 -0.1782  0.1091
  469loPI   C4A 7498  12.615  17.699   7.489  0.0399 -0.0531 -0.1285
  469loPI   C5A 7499  12.710  17.546   7.096 -0.0178  0.0074  0.1894
  469loPI   C6A 7500  12.665  17.601   6.591  0.2855  0.2584 -0.0947
  469loPI   C1B 7501  13.306  17.681   8.396 -0.1534 -0.0046 -0.0984
  469loPI   C2B 7502  13.445  17.712   7.941  0.2384 -0.0357  0.0597
  469loPI   C3B 7503  13.510  17.794   7.509  0.1108  0.0760  0.1584
  469loPI   C4B 7504  13.780  17.996   7.133  0.0846 -0.3284 -0.2189
  470loPI    C1 7505   1.962  13.477   9.684  0.0922  0.1822 -0.0308
  470loPI    C2 7506   1.867  13.780   9.927 -0.2295 -0.0299  0.1150
  470loPI    C3 7507   1.796  13.402  10.040  0.1769 -0.1641 -0.0601
  470loPI   PO4 7508   1.908  13.563   9.495 -0.1993  0.0687  0.1289
  470loPI   GL1 7509   2.077  13.427   8.982  0.5998 -0.0426  0.0965
  470loPI   GL2 7510   2.328  13.708   9.235 -0.0427  0.1302 -0.0086
  470loPI   C1A 7511   2.021  13.512   8.500 -0.1031  0.0698  0.0729
  470loPI   C2A 7512   1.933  13.613   8.081 -0.1286 -0.0684  0.0267
  470loPI   C3A 7513   1.934  13.752   7.703  0.0598  0.1673 -0.0761
  470loPI   C4A 7514   2.022  14.108   7.469  0.1802 -0.1240  0.2792
  470loPI   C5A 7515   1.927  14.543   7.291  0.0763 -0.2251 -0.1676
  470loPI   C6A 7516   2.204  14.809   7.128  0.2243  0.0532 -0.0706
  470loPI   C1B 7517   2.635  13.771   8.915  0.2850 -0.0284 -0.4542
  470loPI   C2B 7518   2.649  13.800   8.571 -0.3370  0.1085  0.3817
  470loPI   C3B 7519   2.515  13.886   8.144 -0.0994  0.1246  0.2487
  470loPI   C4B 7520   2.378  14.173   7.858  0.0145 -0.1970 -0.0526
  471loPI    C1 7521   0.534   4.378  10.897  0.1042 -0.1110  0.0476
  471loPI    C2 7522   0.761   4.614  10.668 -0.1202  0.0871  0.0259
  471loPI    C3 7523   0.649   4.736  11.032 -0.2306  0.0115  0.0177
  471loPI   PO4 7524   0.424   4.244  10.705 -0.0879  0.0346  0.3027
  471loPI   GL1 7525   0.405   4.147  10.343  0.1104 -0.0618  0.0318
  471loPI   GL2 7526   0.132   4.053  10.320  0.0017  0.2346 -0.1345
  471loPI   C1A 7527   0.597   4.004   9.970 -0.2785 -0.1169 -0.4317
  471loPI   C2A 7528   0.609   3.934   9.480 -0.0173  0.1929  0.4312
  471loPI   C3A 7529   0.736   3.947   9.080 -0.0115 -0.2348  0.0578
  471loPI   C4A 7530   0.810   3.934   8.687  0.0349  0.1963  0.0869
  471loPI   C5A 7531   0.729   4.273   8.410  0.1756  0.2193 -0.4030
  471loPI   C6A 7532   0.584   4.451   8.163 -0.1908 -0.1837 -0.1948
  471loPI   C1B 7533   0.187   4.260   9.866 -0.1200 -0.2039  0.2902
  471loPI   C2B 7534   0.370   4.474   9.699  0.0915 -0.1822 -0.1153
  471loPI   C3B 7535   0.565   4.462   9.340 -0.0375 -0.0401 -0.0505
  471loPI   C4B 7536   0.789   4.382   8.950  0.3353  0.0401  0.2210
  472loPI    C1 7537  18.618  18.896  10.293 -0.1926 -0.2850 -0.0038
  472loPI    C2 7538  19.005  18.794  10.296 -0.1971 -0.3058 -0.0945
  472loPI    C3 7539  18.758  18.653  10.578 -0.0812 -0.0643  0.1320
  472loPI   PO4 7540  18.501  18.899  10.065  0.4619  0.1197  0.2897
  472loPI   GL1 7541  18.652  18.710   9.672  0.1581  0.0259  0.1847
  472loPI   GL2 7542  18.949  18.661   9.811 -0.0230  0.0370  0.0325
  472loPI   C1A 7543  18.497  18.871   9.327 -0.4035  0.2347  0.0942
  472loPI   C2A 7544  18.552  19.043   8.856  0.2372 -0.0991  0.0424
  472loPI   C3A 7545  18.395  18.996   8.465  0.3667  0.0840 -0.1330
  472loPI   C4A 7546  18.251  18.933   8.072 -0.2549 -0.1936 -0.0815
  472loPI   C5A 7547  18.231  18.848   7.591  0.1056 -0.0568 -0.1499
  472loPI   C6A 7548  18.193  18.448   7.320 -0.2033  0.0237 -0.2575
  472loPI   C1B 7549  18.999  18.950   9.440  0.2495  0.0569 -0.1622
  472loPI   C2B 7550  19.020  19.057   8.995 -0.2622 -0.3133 -0.1862
  472loPI   C3B 7551  19.419  19.162   8.796 -0.1613 -0.1025  0.1295
  472loPI   C4B 7552  19.646  19.426   8.373  0.0888 -0.0217  0.2975
  473loPI    C1 7553   2.637  10.122  10.131 -0.0813  0.0038  0.0941
  473loPI    C2 7554   2.393  10.355   9.915  0.1958 -0.0039 -0.2351
  473loPI    C3 7555   2.437  10.421  10.307 -0.1339  0.1592 -0.2220
  473loPI   PO4 7556   2.814  10.118   9.911 -0.0674  0.2052  0.0129
  473loPI   GL1 7557   2.866   9.940   9.471 -0.3150 -0.1446 -0.0597
  473loPI   GL2 7558   2.664   9.808   9.297 -0.2493 -0.2392  0.0506
  473loPI   C1A 7559   3.068   9.836   8.977 -0.0297  0.2917  0.2595
  473loPI   C2A 7560   3.225   9.829   8.621 -0.0569 -0.3482 -0.3042
  473loPI   C3A 7561   3.110  10.038   8.172  0.0756 -0.2996 -0.1236
  473loPI   C4A 7562   3.031  10.076   7.798  0.0678 -0.2241  0.1506
  473loPI   C5A 7563   2.819   9.863   7.414 -0.5384 -0.3211 -0.2154
  473loPI   C6A 7564   2.581   9.741   7.047  0.1321  0.0002  0.1982
  473loPI   C1B 7565   2.578   9.696   8.913  0.0717  0.2631  0.4291
  473loPI   C2B 7566   2.347   9.408   8.627  0.0469 -0.0751  0.0472
  473loPI   C3B 7567   2.177   9.374   8.224 -0.2672 -0.2214  0.1047
  473loPI   C4B 7568   2.359   9.292   7.903 -0.1059  0.0442 -0.0111
  474loPI    C1 7569  17.141  16.905   9.617 -0.1947  0.1832  0.0124
  474loPI    C2 7570  16.809  16.761   9.788 -0.0008 -0.1807  0.0932
  474loPI    C3 7571  17.089  16.936  10.013 -0.0646 -0.0174  0.0468
  474loPI   PO4 7572  17.012  17.053   9.433  0.0774 -0.2486  0.2098
  474loPI   GL1 7573  17.167  17.336   9.026 -0.0845  0.0298  0.0830
  474loPI   GL2 7574  16.898  17.238   9.008  0.2511 -0.2332 -0.0886
  474loPI   C1A 7575  17.414  17.255   8.692  0.2683 -0.1618  0.3088
  474loPI   C2A 7576  17.545  17.161   8.310  0.2602  0.0916 -0.2447
  474loPI   C3A 7577  17.480  17.098   7.943 -0.2823  0.0548 -0.5441
  474loPI   C4A 7578  17.658  17.180   7.606 -0.2785 -0.2613  0.1034
  474loPI   C5A 7579  17.909  17.447   7.318 -0.0583  0.2347 -0.0001
  474loPI   C6A 7580  18.073  17.947   7.309  0.1449 -0.2583  0.1935
  474loPI   C1B 7581  16.932  17.087   8.568 -0.2648 -0.0137 -0.2352
  474loPI   C2B 7582  17.050  16.996   8.157  0.2022 -0.1659  0.2632
  474loPI   C3B 7583  16.897  16.843   7.772 -0.0618 -0.1548 -0.1239
  474loPI   C4B 7584  17.021  16.570   7.314  0.1272  0.1103  0.1909
  475loPI    C1 7585  18.633  19.420  10.534  0.0285 -0.1110  0.0220
  475loPI    C2 7586  18.408  19.338  10.214 -0.2074  0.1301  0.1230
  475loPI    C3 7587  18.266  19.269  10.582  0.0587 -0.1367  0.1799
  475loPI   PO4 7588  18.943  19.360  10.314  0.0930  0.1264  0.2232
  475loPI   GL1 7589  19.038  19.167   9.923 -0.1113 -0.3494 -0.2355
  475loPI   GL2 7590  18.724  19.276   9.844 -0.0567  0.1257  0.2594
  475loPI   C1A 7591  19.203  19.379   9.637  0.1432  0.2527 -0.0995
  475loPI   C2A 7592  19.535  19.370   9.407 -0.2037 -0.1457 -0.0265
  475loPI   C3A 7593  19.704  19.532   8.971  0.0214  0.3957  0.2536
  475loPI   C4A 7594  20.070  19.581   8.610  0.2250 -0.1170  0.0292
  475loPI   C5A 7595  20.225  19.405   8.342  0.2104  0.1486  0.1199
  475loPI   C6A 7596  20.044  19.391   7.980 -0.1429  0.3156 -0.2496
  475loPI   C1B 7597  18.765  19.392   9.381  0.0044 -0.1319  0.0318
  475loPI   C2B 7598  18.822  19.541   8.928 -0.0531 -0.0626 -0.1211
  475loPI   C3B 7599  18.886  19.262   8.544  0.1583  0.7638 -0.2209
  475loPI   C4B 7600  19.295  19.174   8.173 -0.1191  0.1679 -0.2056
  476loPI    C1 7601  16.977  13.628   9.489 -0.0485  0.0960 -0.0500
  476loPI    C2 7602  16.927  13.275   9.671  0.1356  0.2069  0.2222
  476loPI    C3 7603  17.147  13.560   9.844  0.0903  0.4135 -0.0527
  476loPI   PO4 7604  17.031  13.532   9.267  0.2381  0.4026  0.1813
  476loPI   GL1 7605  17.096  13.375   8.852 -0.0885 -0.1142  0.1569
  476loPI   GL2 7606  17.274  13.633   8.740  0.3780 -0.0582  0.1999
  476loPI   C1A 7607  16.886  13.376   8.403  0.1653  0.1544 -0.1243
  476loPI   C2A 7608  16.707  13.210   8.039 -0.2475 -0.1454 -0.1870
  476loPI   C3A 7609  16.587  13.253   7.592  0.1709 -0.1612  0.3063
  476loPI   C4A 7610  16.144  13.059   7.337  0.3154  0.1331  0.0941
  476loPI   C5A 7611  15.846  12.803   7.351 -0.1512  0.1647  0.1852
  476loPI   C6A 7612  15.598  12.450   7.391  0.3347  0.0296 -0.2041
  476loPI   C1B 7613  17.406  13.677   8.379 -0.2198  0.1272 -0.2119
  476loPI   C2B 7614  17.749  13.745   8.103 -0.0807 -0.0172  0.1493
  476loPI   C3B 7615  18.033  14.058   7.969 -0.1280  0.1939  0.2763
  476loPI   C4B 7616  18.338  14.351   7.823  0.2490 -0.1043  0.2300
  477loPI    C1 7617   0.408  19.369  10.479  0.2554 -0.2811  0.2467
  477loPI    C2 7618   0.785  19.416  10.604  0.1709  0.1078  0.3697
  477loPI    C3 7619   0.508  19.689  10.697 -0.1079 -0.0920  0.1440
  477loPI   PO4 7620   0.397  19.074  10.416 -0.2807  0.4547 -0.0471
  477loPI   GL1 7621   0.203  18.883  10.048  0.0898  0.0112  0.0204
  477loPI   GL2 7622   0.406  18.658  10.040 -0.1886 -0.0067  0.1293
  477loPI   C1A 7623   0.007  18.955   9.722  0.4258 -0.0883 -0.0045
  477loPI   C2A 7624  -0.025  18.749   9.318  0.0434 -0.3094 -0.3297
  477loPI   C3A 7625  -0.184  18.553   8.894 -0.2348  0.3777  0.3419
  477loPI   C4A 7626  -0.123  18.694   8.540 -0.2668 -0.3929  0.3073
  477loPI   C5A 7627  -0.209  18.678   8.103 -0.0481  0.1078  0.0973
  477loPI   C6A 7628   0.149  18.448   7.851 -0.1008 -0.0903  0.1899
  477loPI   C1B 7629   0.452  18.768   9.552  0.0392  0.2929 -0.3188
  477loPI   C2B 7630   0.794  18.908   9.352 -0.0281 -0.0839 -0.3566
  477loPI   C3B 7631   1.060  18.839   9.004  0.1779 -0.0743 -0.2163
  477loPI   C4B 7632   1.171  18.499   8.644 -0.0196  0.4655 -0.0009
  478loPI    C1 7633   0.657   1.376  10.505  0.0030  0.3000 -0.2134
  478loPI    C2 7634   0.879   1.123  10.287 -0.0104  0.2273 -0.1431
  478loPI    C3 7635   0.978   1.200  10.667 -0.2926 -0.0625 -0.0067
  478loPI   PO4 7636   0.570   1.558  10.237  0.0624  0.2070  0.3441
  478loPI   GL1 7637   0.660   1.896   9.927  0.2499 -0.2685 -0.0053
  478loPI   GL2 7638   0.881   1.972  10.058 -0.2570  0.0802  0.3606
  478loPI   C1A 7639   0.900   1.734   9.488  0.0489  0.2686  0.0270
  478loPI   C2A 7640   1.017   1.823   9.005 -0.1421  0.3341  0.1165
  478loPI   C3A 7641   0.835   1.707   8.686  0.0998 -0.1762 -0.2304
  478loPI   C4A 7642   0.580   1.773   8.221 -0.1785 -0.0515  0.0808
  478loPI   C5A 7643   0.107   1.894   8.034 -0.1142  0.0990  0.4392
  478loPI   C6A 7644  -0.191   2.233   8.137 -0.2860  0.3641  0.1420
  478loPI   C1B 7645   0.790   2.185   9.578  0.0361 -0.3795  0.1399
  478loPI   C2B 7646   0.829   2.297   9.187  0.2792  0.0555  0.0440
  478loPI   C3B 7647   0.893   2.316   8.752  0.0928 -0.3839  0.1643
  478loPI   C4B 7648   0.830   2.392   8.298  0.0377 -0.1173 -0.0599
  479loPI    C1 7649   6.205   6.612   9.770  0.0391 -0.2215 -0.0610
  479loPI    C2 7650   6.540   6.557   9.558 -0.0141 -0.2241 -0.1452
  479loPI    C3 7651   6.527   6.453   9.944  0.1369 -0.0633 -0.0953
  479loPI   PO4 7652   6.103   6.780   9.675 -0.5332 -0.2391 -0.2802
  479loPI   GL1 7653   6.140   6.804   9.221 -0.0706  0.0088 -0.0330
  479loPI   GL2 7654   5.904   6.507   9.281  0.3962  0.0063  0.1889
  479loPI   C1A 7655   5.790   6.690   8.840  0.4087  0.2872 -0.2459
  479loPI   C2A 7656   5.654   6.863   8.446  0.2128  0.0395 -0.3598
  479loPI   C3A 7657   5.606   7.212   8.184 -0.0304 -0.1043 -0.1452
  479loPI   C4A 7658   5.258   7.409   7.918 -0.1536  0.0748  0.2730
  479loPI   C5A 7659   5.085   7.758   7.583 -0.1136  0.2373 -0.1254
  479loPI   C6A 7660   4.918   7.848   7.142  0.1694  0.1149  0.1782
  479loPI   C1B 7661   6.013   6.252   8.931  0.0365  0.1210  0.0235
  479loPI   C2B 7662   5.960   6.036   8.448 -0.0057 -0.0026 -0.1149
  479loPI   C3B 7663   6.030   6.484   8.370  0.0151 -0.0877  0.1653
  479loPI   C4B 7664   5.987   6.834   8.041 -0.0889 -0.1305  0.1847
  480loPI    C1 7665   7.386  12.213   9.264 -0.0513  0.3458 -0.2407
  480loPI    C2 7666   7.054  12.059   9.425  0.1340  0.1357 -0.0515
  480loPI    C3 7667   7.209  12.398   9.571  0.3085 -0.0605  0.2305
  480loPI   PO4 7668   7.298  12.240   9.007 -0.2077 -0.1163  0.1186
  480loPI   GL1 7669   7.316  11.962   8.644 -0.0255  0.3552 -0.0058
  480loPI   GL2 7670   7.085  12.277   8.565 -0.0569  0.0608 -0.3193
  480loPI   C1A 7671   7.384  11.593   8.321 -0.0723  0.1860 -0.3721
  480loPI   C2A 7672   7.378  11.939   7.959 -0.0813  0.1220 -0.1807
  480loPI   C3A 7673   7.627  11.811   7.640  0.0484  0.2185  0.2217
  480loPI   C4A 7674   7.423  11.591   7.265 -0.2889  0.3659 -0.0563
  480loPI   C5A 7675   7.588  11.278   6.879 -0.1288 -0.0846 -0.0032
  480loPI   C6A 7676   7.645  10.915   6.739  0.0058  0.1043 -0.1382
  480loPI   C1B 7677   7.041  12.173   8.228  0.2499 -0.3013  0.2621
  480loPI   C2B 7678   6.823  12.143   7.859 -0.1200 -0.1722  0.0628
  480loPI   C3B 7679   6.572  12.236   7.440 -0.2192  0.0845  0.0228
  480loPI   C4B 7680   6.420  12.193   7.083 -0.1613 -0.2619 -0.1243
  481loPI    C1 7681   6.445  16.076   9.443 -0.1189 -0.2468 -0.0803
  481loPI    C2 7682   6.218  16.200   9.748  0.1706  0.1201 -0.0079
  481loPI    C3 7683   6.454  15.881   9.792  0.1143  0.0942  0.1101
  481loPI   PO4 7684   6.396  16.315   9.314  0.1143  0.2759  0.0012
  481loPI   GL1 7685   6.308  16.447   8.899  0.2481  0.0168 -0.3622
  481loPI   GL2 7686   5.986  16.656   9.060  0.1989 -0.0271  0.0229
  481loPI   C1A 7687   6.092  16.563   8.547  0.2654  0.0568 -0.1417
  481loPI   C2A 7688   6.263  16.592   8.181  0.1167 -0.1315  0.0385
  481loPI   C3A 7689   6.305  16.661   7.693  0.1126  0.0148 -0.0239
  481loPI   C4A 7690   6.594  16.530   7.486 -0.1400  0.0267 -0.2459
  481loPI   C5A 7691   6.953  16.701   7.360 -0.3783  0.0476 -0.1301
  481loPI   C6A 7692   7.209  16.767   7.070  0.2284 -0.0627 -0.1940
  481loPI   C1B 7693   6.117  16.973   8.905  0.0217  0.2114 -0.0536
  481loPI   C2B 7694   6.131  17.040   8.446 -0.2465 -0.2561 -0.2676
  481loPI   C3B 7695   6.312  17.082   7.945  0.1302  0.4456 -0.3389
  481loPI   C4B 7696   6.572  17.202   7.617 -0.4161  0.0694  0.3696
  482loPI    C1 7697  19.085  10.721   9.359 -0.1387 -0.0780  0.1123
  482loPI    C2 7698  18.709  10.846   9.303 -0.0864  0.0434  0.0282
  482loPI    C3 7699  19.001  10.977   9.064 -0.0404 -0.2924 -0.1051
  482loPI   PO4 7700  19.081  10.438   9.364  0.1715 -0.2666  0.0480
  482loPI   GL1 7701  19.379  10.105   9.202  0.0502  0.2653 -0.0771
  482loPI   GL2 7702  19.248   9.763   9.351  0.2619  0.0765 -0.0226
  482loPI   C1A 7703  19.310  10.133   8.842 -0.0508 -0.0587  0.2177
  482loPI   C2A 7704  19.418   9.883   8.489  0.1782 -0.2404 -0.0386
  482loPI   C3A 7705  19.606   9.630   8.190 -0.0946  0.2527  0.3263
  482loPI   C4A 7706  19.743   9.546   7.669  0.0272 -0.0203 -0.1180
  482loPI   C5A 7707  19.865   9.650   7.297 -0.1965 -0.1914 -0.0678
  482loPI   C6A 7708  19.741   9.896   7.006  0.1400  0.0719  0.2289
  482loPI   C1B 7709  19.553   9.377   9.231 -0.1865  0.1173  0.1848
  482loPI   C2B 7710  19.821   9.105   8.887  0.0474  0.0053 -0.2064
  482loPI   C3B 7711  19.938   9.102   8.472  0.1575  0.1163  0.1903
  482loPI   C4B 7712  19.842   9.167   8.045  0.1810  0.2813 -0.0308
  483loPI    C1 7713   8.403  13.067   9.147  0.1999 -0.0577 -0.0027
  483loPI    C2 7714   8.444  13.109   9.543  0.0139  0.1232 -0.0005
  483loPI    C3 7715   8.303  13.412   9.324 -0.0189 -0.0246 -0.1867
  483loPI   PO4 7716   8.182  12.860   9.139  0.1322 -0.1740  0.0948
  483loPI   GL1 7717   8.003  12.559   8.737 -0.1732 -0.0237 -0.2090
  483loPI   GL2 7718   7.928  12.265   8.747  0.0707 -0.3050 -0.2936
  483loPI   C1A 7719   7.916  12.629   8.349 -0.0084 -0.5801 -0.3472
  483loPI   C2A 7720   7.685  12.740   8.073  0.1018  0.0483  0.0717
  483loPI   C3A 7721   7.741  12.709   7.568  0.0392  0.6547 -0.2049
  483loPI   C4A 7722   7.749  12.706   7.217  0.0035  0.1375 -0.0656
  483loPI   C5A 7723   7.635  12.990   7.010 -0.3947 -0.1348 -0.0113
  483loPI   C6A 7724   7.289  13.372   7.143 -0.2089  0.3138  0.0584
  483loPI   C1B 7725   7.835  11.980   8.419 -0.1297 -0.1571 -0.4810
  483loPI   C2B 7726   7.921  11.828   8.032  0.2463 -0.1865  0.2164
  483loPI   C3B 7727   8.139  11.658   7.574 -0.0911  0.2228 -0.0878
  483loPI   C4B 7728   7.981  11.755   7.114 -0.3396  0.2351  0.2950
  484loPI    C1 7729   7.788   8.718   9.681  0.1760 -0.1504  0.0378
  484loPI    C2 7730   7.706   8.893  10.032 -0.0860  0.0223 -0.1069
  484loPI    C3 7731   7.446   8.634   9.871  0.1627 -0.2757 -0.0401
  484loPI   PO4 7732   8.038   8.631   9.749 -0.0880 -0.3469 -0.0918
  484loPI   GL1 7733   8.107   8.652   9.274 -0.0958 -0.1739 -0.0687
  484loPI   GL2 7734   7.821   8.880   9.188  0.1961 -0.0232 -0.1629
  484loPI   C1A 7735   7.946   8.397   8.862 -0.1595  0.2213 -0.2806
  484loPI   C2A 7736   7.847   8.105   8.502 -0.0375 -0.0877 -0.2372
  484loPI   C3A 7737   7.641   7.997   8.162 -0.1097 -0.0124  0.0920
  484loPI   C4A 7738   7.533   8.164   7.732  0.1298  0.0710 -0.0193
  484loPI   C5A 7739   7.740   8.448   7.433 -0.0937  0.1952 -0.0648
  484loPI   C6A 7740   7.776   8.700   7.097 -0.0492 -0.1452  0.1774
  484loPI   C1B 7741   7.729   8.958   8.792 -0.1755  0.0382  0.0018
  484loPI   C2B 7742   7.704   8.869   8.424 -0.0383 -0.0270  0.1578
  484loPI   C3B 7743   7.803   8.519   8.105  0.1314  0.0312  0.0015
  484loPI   C4B 7744   8.165   8.357   8.035  0.2276  0.3428  0.2661
  485loPI    C1 7745  19.385   4.335  10.677 -0.2343  0.0497 -0.0712
  485loPI    C2 7746  19.034   4.193  10.807 -0.1442 -0.1643 -0.0585
  485loPI    C3 7747  19.355   3.954  10.793 -0.0690 -0.0517 -0.3513
  485loPI   PO4 7748  19.339   4.476  10.491  0.3784  0.1156 -0.1085
  485loPI   GL1 7749  19.155   4.383  10.105  0.1730  0.0904 -0.0017
  485loPI   GL2 7750  19.074   4.683  10.084 -0.0541  0.2347  0.0650
  485loPI   C1A 7751  19.221   4.039   9.905  0.1745 -0.1985 -0.1014
  485loPI   C2A 7752  19.021   3.657   9.732  0.1676 -0.0623  0.0128
  485loPI   C3A 7753  19.238   3.384   9.419 -0.2568 -0.2019 -0.1228
  485loPI   C4A 7754  19.406   3.340   9.056 -0.1669 -0.0009 -0.1455
  485loPI   C5A 7755  19.390   3.363   8.609 -0.4295 -0.0134 -0.4213
  485loPI   C6A 7756  19.627   3.490   8.182  0.3575 -0.0071 -0.0142
  485loPI   C1B 7757  19.117   4.446   9.625  0.0463 -0.3284  0.4193
  485loPI   C2B 7758  19.339   4.335   9.234  0.2961 -0.3310  0.4511
  485loPI   C3B 7759  19.347   4.216   8.747  0.2338  0.0693  0.2005
  485loPI   C4B 7760  19.601   4.026   8.417  0.1732 -0.0195  0.4534
  486loPI    C1 7761   3.030   9.528   9.889 -0.2006 -0.0150  0.0912
  486loPI    C2 7762   2.814   9.563  10.224  0.0627  0.1098  0.2512
  486loPI    C3 7763   3.171   9.383  10.233 -0.0510 -0.1383 -0.0210
  486loPI   PO4 7764   2.897   9.423   9.680  0.0471 -0.0469 -0.2113
  486loPI   GL1 7765   2.957   9.162   9.338 -0.0451 -0.1102 -0.1406
  486loPI   GL2 7766   2.696   8.899   9.507 -0.0851 -0.0102  0.5749
  486loPI   C1A 7767   2.876   9.334   8.862  0.1304 -0.0741  0.0969
  486loPI   C2A 7768   2.826   9.598   8.457 -0.0045  0.0983 -0.2924
  486loPI   C3A 7769   2.737   9.680   7.933 -0.0259  0.1259  0.1851
  486loPI   C4A 7770   2.794   9.397   7.665  0.0512 -0.2083  0.2710
  486loPI   C5A 7771   2.842   9.328   7.240  0.2991 -0.0335  0.0960
  486loPI   C6A 7772   3.078   9.132   6.856  0.1188 -0.1179 -0.0710
  486loPI   C1B 7773   2.565   8.805   9.175  0.1859  0.4487  0.3441
  486loPI   C2B 7774   2.732   8.807   8.769 -0.0675  0.3146  0.1985
  486loPI   C3B 7775   2.692   8.957   8.359 -0.0739 -0.1344 -0.1313
  486loPI   C4B 7776   2.860   9.008   7.962  0.1400  0.0503  0.0087
  487loPI    C1 7777   7.748  12.624   9.372  0.1397 -0.0055 -0.0641
  487loPI    C2 7778   7.712  12.352   9.663 -0.0120  0.0753 -0.0064
  487loPI    C3 7779   8.065  12.528   9.597  0.0332  0.0266  0.1016
  487loPI   PO4 7780   7.771  12.519   9.151 -0.0787  0.0210  0.1419
  487loPI   GL1 7781   7.523  12.532   8.606 -0.2477  0.1595  0.0017
  487loPI   GL2 7782   7.497  12.819   8.555  0.1787  0.1561  0.1379
  487loPI   C1A 7783   7.488  12.343   8.325 -0.3080  0.0394  0.0912
  487loPI   C2A 7784   7.774  12.297   7.902 -0.0303 -0.1704 -0.4880
  487loPI   C3A 7785   7.914  12.202   7.522 -0.2412  0.2428  0.1729
  487loPI   C4A 7786   8.047  12.313   7.129 -0.1688 -0.0514  0.0322
  487loPI   C5A 7787   7.889  12.426   6.755  0.0729  0.4219  0.0085
  487loPI   C6A 7788   7.745  12.786   6.578  0.0659 -0.0415 -0.1947
  487loPI   C1B 7789   7.578  13.191   8.347  0.1196 -0.1108 -0.1805
  487loPI   C2B 7790   7.612  13.215   7.907 -0.1238  0.2627  0.1576
  487loPI   C3B 7791   7.644  13.245   7.430  0.0744 -0.0580 -0.1417
  487loPI   C4B 7792   7.814  13.409   7.090  0.2251 -0.2066  0.2525
  488loPI    C1 7793  13.135  16.380   9.186 -0.0879 -0.0352 -0.0363
  488loPI    C2 7794  13.294  16.719   9.328 -0.1918 -0.0452  0.1061
  488loPI    C3 7795  13.250  16.402   9.569  0.0653 -0.2190 -0.0701
  488loPI   PO4 7796  13.286  16.361   8.961  0.0591 -0.1026  0.0872
  488loPI   GL1 7797  13.327  16.340   8.603  0.4206 -0.0848  0.4325
  488loPI   GL2 7798  13.676  16.365   8.441 -0.0457 -0.3733 -0.1117
  488loPI   C1A 7799  13.323  16.185   8.198  0.1403 -0.1350  0.2054
  488loPI   C2A 7800  13.633  16.240   7.921 -0.1268 -0.0824 -0.0164
  488loPI   C3A 7801  13.762  16.086   7.509  0.1178 -0.0782  0.2844
  488loPI   C4A 7802  13.730  16.169   7.044 -0.1628  0.3576  0.4101
  488loPI   C5A 7803  13.346  16.375   6.909 -0.2426 -0.0008 -0.4906
  488loPI   C6A 7804  12.979  16.554   7.174  0.0175  0.1037 -0.0127
  488loPI   C1B 7805  13.853  16.593   8.150  0.2924  0.0854 -0.1133
  488loPI   C2B 7806  13.920  16.591   7.744 -0.0453 -0.1822  0.0737
  488loPI   C3B 7807  13.912  16.521   7.301  0.2007  0.1364 -0.2705
  488loPI   C4B 7808  14.160  16.324   6.897 -0.1706 -0.0410  0.1138
  489loPI    C1 7809  12.717  13.998   9.444 -0.1427 -0.1050  0.0804
  489loPI    C2 7810  12.837  14.188   9.775 -0.2079  0.0210  0.0328
  489loPI    C3 7811  12.807  13.789   9.772 -0.0816  0.0102  0.1378
  489loPI   PO4 7812  12.472  14.161   9.387 -0.2003  0.3833  0.1334
  489loPI   GL1 7813  12.487  14.457   8.974 -0.0913 -0.0240 -0.3819
  489loPI   GL2 7814  12.138  14.569   9.103 -0.1297  0.2525 -0.0091
  489loPI   C1A 7815  12.575  14.338   8.577  0.5552  0.4165 -0.3982
  489loPI   C2A 7816  12.669  14.297   8.133  0.0115  0.0420  0.0559
  489loPI   C3A 7817  12.595  14.283   7.673  0.0211 -0.2462  0.3720
  489loPI   C4A 7818  12.688  14.383   7.333 -0.0806  0.4265 -0.0915
  489loPI   C5A 7819  12.613  14.212   6.877 -0.0682 -0.1203 -0.3252
  489loPI   C6A 7820  12.385  14.363   6.552 -0.1916 -0.2886  0.0166
  489loPI   C1B 7821  12.098  14.374   8.716  0.0942  0.1683  0.0344
  489loPI   C2B 7822  12.033  14.318   8.306  0.3473 -0.2383 -0.3172
  489loPI   C3B 7823  12.075  14.211   7.866 -0.1538 -0.0509 -0.0584
  489loPI   C4B 7824  12.057  14.227   7.353  0.0567 -0.2824  0.5428
  490loPI    C1 7825  10.138  18.635   9.523  0.0164  0.2727 -0.0053
  490loPI    C2 7826  10.435  18.851   9.682  0.1737 -0.0263  0.1158
  490loPI    C3 7827  10.511  18.490   9.527 -0.0848  0.0038 -0.0887
  490loPI   PO4 7828  10.059  18.750   9.374  0.1317 -0.0598 -0.4195
  490loPI   GL1 7829  10.144  18.920   8.888 -0.0651 -0.0210  0.2676
  490loPI   GL2 7830  10.008  19.288   8.833 -0.0752  0.2749 -0.1091
  490loPI   C1A 7831  10.454  19.067   8.533 -0.2577 -0.0031 -0.0736
  490loPI   C2A 7832  10.534  19.024   8.056  0.0579 -0.0018 -0.0221
  490loPI   C3A 7833  10.466  18.971   7.537  0.2670  0.2233 -0.2771
  490loPI   C4A 7834  10.595  18.849   7.154 -0.2152 -0.0756 -0.0426
  490loPI   C5A 7835  10.426  18.696   6.813  0.2272  0.0464 -0.0321
  490loPI   C6A 7836  10.121  18.376   6.815 -0.0508 -0.0155  0.0855
  490loPI   C1B 7837  10.001  19.264   8.341  0.0110  0.1554  0.2869
  490loPI   C2B 7838   9.906  19.241   7.845 -0.0953 -0.0627  0.2058
  490loPI   C3B 7839  10.123  19.360   7.443  0.3385  0.2275  0.2507
  490loPI   C4B 7840  10.439  19.398   7.148  0.2363  0.2114  0.0969
  491loPI    C1 7841   0.362   2.733  10.806  0.3944  0.4801  0.0804
  491loPI    C2 7842   0.012   2.627  10.967  0.2512  0.1102 -0.4448
  491loPI    C3 7843   0.354   2.530  11.150  0.0911  0.0376 -0.1776
  491loPI   PO4 7844   0.460   2.695  10.571  0.1854 -0.0944 -0.0023
  491loPI   GL1 7845   0.539   2.886  10.184  0.2620  0.1307  0.0644
  491loPI   GL2 7846   0.205   2.910  10.183 -0.0016  0.2385 -0.1688
  491loPI   C1A 7847   0.832   2.871   9.802  0.2318  0.1126  0.0071
  491loPI   C2A 7848   0.942   2.895   9.299  0.4229 -0.0138 -0.1231
  491loPI   C3A 7849   0.992   2.876   8.731  0.0720  0.1594 -0.2660
  491loPI   C4A 7850   0.955   2.868   8.289  0.0377 -0.1002 -0.3993
  491loPI   C5A 7851   1.010   2.707   7.889  0.4459 -0.0351 -0.0825
  491loPI   C6A 7852   1.242   2.338   7.715  0.0049 -0.2424 -0.3585
  491loPI   C1B 7853   0.298   2.738   9.719 -0.1016 -0.2140 -0.1987
  491loPI   C2B 7854   0.554   2.597   9.435  0.0443 -0.4899  0.3848
  491loPI   C3B 7855   0.502   2.563   8.998 -0.0089  0.1889 -0.1959
  491loPI   C4B 7856   0.567   2.626   8.598  0.0803  0.1153  0.3288
  492loPI    C1 7857  10.180  19.288   9.524  0.1253 -0.1708  0.1289
  492loPI    C2 7858  10.330  19.368   9.886  0.0550 -0.1285  0.1490
  492loPI    C3 7859   9.975  19.518   9.779  0.2000  0.0876 -0.0395
  492loPI   PO4 7860  10.328  19.351   9.271  0.1151  0.1516 -0.1546
  492loPI   GL1 7861  10.566  19.430   8.907  0.0037 -0.1503  0.1310
  492loPI   GL2 7862  10.863  19.501   8.782 -0.3174 -0.1038 -0.1586
  492loPI   C1A 7863  10.367  19.618   8.548  0.1970 -0.1299 -0.1016
  492loPI   C2A 7864  10.373  19.518   8.048  0.1234 -0.2532 -0.0354
  492loPI   C3A 7865  10.567  19.453   7.684  0.1742 -0.5297  0.0099
  492loPI   C4A 7866  10.911  19.266   7.476  0.1069  0.2861  0.3276
  492loPI   C5A 7867  11.073  18.979   7.106 -0.0665  0.1651 -0.0365
  492loPI   C6A 7868  11.464  18.765   6.940 -0.2010 -0.1780 -0.2392
  492loPI   C1B 7869  10.899  19.448   8.421  0.2547  0.1420 -0.2090
  492loPI   C2B 7870  11.004  19.346   8.023  0.1156  0.0819  0.3553
  492loPI   C3B 7871  11.261  19.667   7.687 -0.1454 -0.0113  0.0320
  492loPI   C4B 7872  11.319  20.001   7.550 -0.0503  0.2325 -0.3644
  493loPI    C1 7873   4.796  15.544   9.645  0.2009  0.2240  0.1958
  493loPI    C2 7874   4.769  15.224   9.883  0.3703  0.0804  0.0253
  493loPI    C3 7875   4.727  15.591  10.037 -0.2966 -0.0325  0.1467
  493loPI   PO4 7876   4.988  15.489   9.540  0.0981  0.1008 -0.0004
  493loPI   GL1 7877   5.254  15.539   9.151  0.0714  0.2453  0.0702
  493loPI   GL2 7878   5.529  15.723   9.117  0.2032  0.0618 -0.1978
  493loPI   C1A 7879   5.330  15.418   8.700 -0.0033 -0.4308  0.0628
  493loPI   C2A 7880   5.376  15.417   8.395 -0.2428  0.0656 -0.4431
  493loPI   C3A 7881   5.358  15.507   7.984 -0.1177  0.2150  0.0088
  493loPI   C4A 7882   5.353  15.277   7.537 -0.1735 -0.0732  0.2391
  493loPI   C5A 7883   5.441  15.382   7.043  0.1434  0.2107 -0.3232
  493loPI   C6A 7884   5.131  15.645   6.828 -0.3005 -0.0985 -0.1131
  493loPI   C1B 7885   5.405  15.923   8.770 -0.0844  0.1878 -0.1894
  493loPI   C2B 7886   5.520  15.935   8.295  0.0947 -0.3414 -0.1720
  493loPI   C3B 7887   5.614  16.000   7.824 -0.2571 -0.1040 -0.3122
  493loPI   C4B 7888   5.628  15.793   7.645 -0.5806  0.0842  0.1735
  494loPI    C1 7889   0.680  12.393   9.167 -0.2035  0.0959 -0.1091
  494loPI    C2 7890   0.740  12.480   9.553  0.0456  0.0283 -0.1305
  494loPI    C3 7891   0.782  12.104   9.424  0.0217  0.0609 -0.2348
  494loPI   PO4 7892   0.468  12.664   9.136  0.0708  0.0098 -0.2130
  494loPI   GL1 7893   0.365  13.108   8.926  0.0823  0.0165  0.0727
  494loPI   GL2 7894   0.318  13.390   9.066 -0.0245  0.3228 -0.0264
  494loPI   C1A 7895   0.432  13.157   8.518 -0.0335 -0.2378 -0.0752
  494loPI   C2A 7896   0.488  13.352   8.073  0.1664  0.3642 -0.1639
  494loPI   C3A 7897   0.510  13.519   7.686  0.2727  0.0411 -0.0048
  494loPI   C4A 7898   0.578  13.717   7.286  0.1234  0.0661 -0.2056
  494loPI   C5A 7899   0.459  13.887   6.961  0.0240 -0.2882 -0.4030
  494loPI   C6A 7900   0.298  14.246   6.844  0.1312  0.1692 -0.4607
  494loPI   C1B 7901   0.146  13.651   8.866  0.1817 -0.1782 -0.3518
  494loPI   C2B 7902   0.107  13.587   8.489 -0.0220 -0.1374  0.0055
  494loPI   C3B 7903   0.150  13.766   8.108 -0.1685  0.2616 -0.3661
  494loPI   C4B 7904   0.081  13.809   7.628  0.3128  0.1188 -0.2183
  495loPI    C1 7905   1.608   1.975  10.614  0.2761  0.0690 -0.1036
  495loPI    C2 7906   1.284   2.037  10.388  0.1470 -0.0320  0.0509
  495loPI    C3 7907   1.404   2.318  10.646  0.1142 -0.0421  0.0772
  495loPI   PO4 7908   1.728   1.894  10.505 -0.1283  0.0502 -0.1144
  495loPI   GL1 7909   1.657   2.108  10.045  0.0330 -0.0902  0.1218
  495loPI   GL2 7910   1.511   1.798   9.912  0.0151  0.1602  0.0094
  495loPI   C1A 7911   1.666   2.328   9.633 -0.1627  0.3451 -0.3157
  495loPI   C2A 7912   1.849   2.646   9.521  0.1019 -0.1204  0.0003
  495loPI   C3A 7913   2.009   2.989   9.266 -0.2512 -0.0942 -0.0722
  495loPI   C4A 7914   2.090   3.060   8.861  0.0409  0.0272  0.0820
  495loPI   C5A 7915   2.166   3.264   8.432 -0.0259  0.1571  0.0701
  495loPI   C6A 7916   1.928   3.295   8.109 -0.2177 -0.0267  0.0015
  495loPI   C1B 7917   1.479   1.873   9.457 -0.0029  0.1720  0.4599
  495loPI   C2B 7918   1.526   1.997   9.010  0.1399 -0.3245  0.1848
  495loPI   C3B 7919   1.327   2.010   8.608 -0.2362 -0.2537 -0.6332
  495loPI   C4B 7920   1.155   2.086   8.187  0.0122 -0.0841 -0.1701
  496loPI    C1 7921  19.052  14.245   9.929  0.1741 -0.2063  0.0570
  496loPI    C2 7922  18.738  14.243   9.682  0.1891  0.1122  0.0305
  496loPI    C3 7923  18.808  13.928   9.919 -0.0565 -0.0277 -0.0780
  496loPI   PO4 7924  19.197  14.429   9.689 -0.3641 -0.2024 -0.1194
  496loPI   GL1 7925  19.261  14.502   9.251  0.0414  0.3487  0.2633
  496loPI   GL2 7926  18.982  14.776   9.168  0.2167  0.2294  0.1201
  496loPI   C1A 7927  19.433  14.580   8.776 -0.1589  0.0119 -0.0742
  496loPI   C2A 7928  19.542  14.710   8.379  0.0149  0.0553  0.0039
  496loPI   C3A 7929  19.564  14.781   7.960  0.0745 -0.0893 -0.0773
  496loPI   C4A 7930  19.568  14.960   7.578  0.1467  0.1380  0.2391
  496loPI   C5A 7931  19.401  15.163   7.171 -0.0881  0.1970 -0.3023
  496loPI   C6A 7932  19.135  15.602   7.100 -0.1180 -0.3304  0.2171
  496loPI   C1B 7933  18.941  14.691   8.827  0.0175  0.0335 -0.2506
  496loPI   C2B 7934  18.953  14.642   8.502  0.1188 -0.2318 -0.3731
  496loPI   C3B 7935  19.079  14.577   8.085 -0.2572  0.2009  0.1099
  496loPI   C4B 7936  19.172  14.544   7.590 -0.2107  0.0921 -0.2522
  497loPI    C1 7937   5.955  17.690   9.991  0.1562 -0.2203 -0.1635
  497loPI    C2 7938   6.191  17.375  10.063  0.1949 -0.1010  0.2617
  497loPI    C3 7939   5.960  17.522  10.354  0.0348  0.1490  0.0141
  497loPI   PO4 7940   5.914  17.567   9.629  0.0561 -0.0130 -0.0696
  497loPI   GL1 7941   5.598  17.676   9.241  0.2002 -0.0290 -0.1442
  497loPI   GL2 7942   5.861  17.788   9.176 -0.0761 -0.2122 -0.1107
  497loPI   C1A 7943   5.322  17.472   8.954 -0.0805  0.0935 -0.0129
  497loPI   C2A 7944   5.275  17.461   8.630 -0.0464  0.0202  0.0290
  497loPI   C3A 7945   4.869  17.350   8.345  0.1894 -0.1522  0.3789
  497loPI   C4A 7946   4.726  17.054   8.040  0.4973  0.1100 -0.1660
  497loPI   C5A 7947   4.553  17.040   7.633 -0.0433  0.0543 -0.0579
  497loPI   C6A 7948   4.488  17.172   7.173 -0.2736 -0.0854 -0.4650
  497loPI   C1B 7949   5.840  17.856   8.688  0.2549  0.0844  0.1201
  497loPI   C2B 7950   6.020  17.687   8.321 -0.1162 -0.1906  0.2003
  497loPI   C3B 7951   5.899  17.429   7.940 -0.0463 -0.3010 -0.2050
  497loPI   C4B 7952   5.605  17.430   7.617  0.2003  0.0970  0.2323
  498loPI    C1 7953   3.842   4.523  10.330  0.1610  0.3194  0.0028
  498loPI    C2 7954   3.468   4.640  10.411  0.0533 -0.1404  0.2043
  498loPI    C3 7955   3.651   4.376  10.649  0.4278 -0.0887 -0.0177
  498loPI   PO4 7956   3.845   4.511  10.053 -0.0287  0.1640 -0.0530
  498loPI   GL1 7957   3.668   4.730   9.744 -0.1553  0.0701 -0.1287
  498loPI   GL2 7958   3.646   5.118   9.765 -0.2396 -0.0158  0.3833
  498loPI   C1A 7959   3.453   4.571   9.410 -0.0604  0.1345  0.1490
  498loPI   C2A 7960   3.094   4.560   9.099 -0.0389 -0.0412 -0.3272
  498loPI   C3A 7961   2.786   4.675   8.845 -0.0607 -0.1513  0.4887
  498loPI   C4A 7962   2.957   4.879   8.500 -0.3146  0.1611  0.2562
  498loPI   C5A 7963   3.003   4.742   8.126  0.0730  0.1344  0.1138
  498loPI   C6A 7964   2.667   4.401   7.828  0.2919  0.1481  0.1341
  498loPI   C1B 7965   3.596   5.121   9.297 -0.0990  0.1992 -0.1729
  498loPI   C2B 7966   3.613   4.865   8.994  0.1337 -0.0917 -0.1529
  498loPI   C3B 7967   3.372   4.724   8.614 -0.0170  0.1392 -0.0943
  498loPI   C4B 7968   3.556   4.627   8.227  0.3711 -0.1724 -0.3294
  499loPI    C1 7969  18.993   7.112  10.191  0.0122  0.2045 -0.0293
  499loPI    C2 7970  18.623   7.127  10.341  0.0366 -0.1020  0.0680
  499loPI    C3 7971  18.938   7.191  10.579  0.0540 -0.0232  0.0242
  499loPI   PO4 7972  18.999   6.938   9.961  0.1229  0.0391  0.0111
  499loPI   GL1 7973  19.203   6.707   9.588  0.1389  0.1350  0.0646
  499loPI   GL2 7974  19.494   6.897   9.598 -0.0931 -0.1812 -0.1269
  499loPI   C1A 7975  18.930   6.699   9.290  0.3513  0.0798 -0.1910
  499loPI   C2A 7976  18.866   6.709   8.923 -0.1257 -0.0682  0.1623
  499loPI   C3A 7977  18.736   6.775   8.489  0.2701  0.0273  0.1323
  499loPI   C4A 7978  18.712   6.800   8.031  0.1360  0.2113  0.1987
  499loPI   C5A 7979  18.417   6.865   7.664  0.0707  0.3514 -0.1725
  499loPI   C6A 7980  18.010   7.069   7.405  0.3387 -0.3546 -0.2646
  499loPI   C1B 7981  19.263   7.070   9.207  0.0065  0.1981  0.4427
  499loPI   C2B 7982  19.256   7.124   8.727  0.1281  0.0598  0.1803
  499loPI   C3B 7983  19.248   7.191   8.333  0.0961 -0.2355 -0.3801
  499loPI   C4B 7984  19.247   7.042   7.912  0.0455  0.0142  0.2819
  500loPI    C1 7985  11.655  12.016   9.962 -0.0769  0.0454 -0.3340
  500loPI    C2 7986  11.745  12.374  10.115 -0.0795 -0.0896 -0.0056
  500loPI    C3 7987  11.363  12.276  10.046 -0.1063 -0.1547  0.2290
  500loPI   PO4 7988  11.908  12.082   9.758 -0.0500  0.1012 -0.2177
  500loPI   GL1 7989  11.700  11.946   9.336  0.1433  0.3011  0.1595
  500loPI   GL2 7990  11.907  11.621   9.251  0.2665 -0.0706  0.1280
  500loPI   C1A 7991  11.539  12.113   8.938 -0.0692  0.0627  0.0225
  500loPI   C2A 7992  11.617  11.988   8.487 -0.5105  0.0923 -0.4335
  500loPI   C3A 7993  11.506  11.821   8.035 -0.2847 -0.2500 -0.2128
  500loPI   C4A 7994  11.493  11.809   7.585  0.1412 -0.1130 -0.3247
  500loPI   C5A 7995  11.409  11.631   7.171 -0.1245  0.3310  0.0911
  500loPI   C6A 7996  11.360  11.513   6.845  0.0270 -0.0678 -0.2593
  500loPI   C1B 7997  11.783  11.624   8.818 -0.0792  0.0652 -0.0554
  500loPI   C2B 7998  11.835  11.508   8.279  0.1224  0.0402  0.2176
  500loPI   C3B 7999  11.913  11.632   7.780  0.1279  0.0753  0.0990
  500loPI   C4B 8000  11.872  11.958   7.374 -0.0801 -0.0252  0.0507
  501loPI    C1 8001  17.131  15.733   9.144 -0.1727  0.3144 -0.1289
  501loPI    C2 8002  16.867  15.870   9.410 -0.0000 -0.0429  0.2369
  501loPI    C3 8003  17.243  16.008   9.412 -0.0697  0.1583 -0.0097
  501loPI   PO4 8004  17.053  15.550   8.947  0.2123 -0.1282 -0.2686
  501loPI   GL1 8005  16.829  15.462   8.710  0.0362  0.1834 -0.1567
  501loPI   GL2 8006  16.696  15.150   8.812 -0.1700  0.0198  0.1885
  501loPI   C1A 8007  16.697  15.703   8.310  0.1980  0.0880  0.2043
  501loPI   C2A 8008  16.630  15.895   7.916  0.0322 -0.0593  0.0258
  501loPI   C3A 8009  16.449  15.849   7.534  0.2465  0.0720  0.2420
  501loPI   C4A 8010  16.579  15.857   7.043  0.0873  0.1032  0.0936
  501loPI   C5A 8011  16.481  15.595   6.629 -0.1179  0.0667  0.0702
  501loPI   C6A 8012  16.649  15.482   6.322  0.0526 -0.2338 -0.1706
  501loPI   C1B 8013  16.590  15.212   8.368  0.1187 -0.0972 -0.1227
  501loPI   C2B 8014  16.633  15.323   7.955 -0.1486 -0.1273 -0.3330
  501loPI   C3B 8015  16.458  15.328   7.548 -0.1328  0.1251 -0.1338
  501loPI   C4B 8016  16.652  15.312   7.023  0.0428 -0.1110 -0.2938
  502loPI    C1 8017   4.021  10.252   9.896  0.0145 -0.1215  0.0189
  502loPI    C2 8018   3.770  10.113   9.616 -0.0055 -0.1329  0.0425
  502loPI    C3 8019   4.107  10.301   9.508 -0.0819 -0.0130  0.0106
  502loPI   PO4 8020   4.159   9.994  10.013  0.2521  0.0611  0.0922
  502loPI   GL1 8021   4.063   9.722   9.639 -0.1412 -0.1053  0.3445
  502loPI   GL2 8022   4.098   9.499   9.662 -0.4342 -0.0288  0.4835
  502loPI   C1A 8023   4.018   9.972   9.188  0.1875  0.0810 -0.0986
  502loPI   C2A 8024   4.186  10.183   8.936 -0.1139 -0.3064  0.2126
  502loPI   C3A 8025   4.260  10.266   8.450  0.0348  0.1700 -0.1740
  502loPI   C4A 8026   4.241  10.543   8.071 -0.1526  0.2660  0.0186
  502loPI   C5A 8027   4.129  10.988   8.008 -0.1978 -0.1862 -0.0883
  502loPI   C6A 8028   4.201  11.339   7.672  0.1980  0.1448 -0.1976
  502loPI   C1B 8029   4.419   9.234   9.436  0.1444 -0.6223  0.0687
  502loPI   C2B 8030   4.520   9.290   9.099 -0.0127  0.3096  0.5997
  502loPI   C3B 8031   4.589   9.360   8.685 -0.0259  0.1597  0.0431
  502loPI   C4B 8032   4.589   9.498   8.362  0.0148  0.0392  0.3048
  503loPI    C1 8033  12.269  17.508   9.741  0.1350  0.0453 -0.0529
  503loPI    C2 8034  12.347  17.118   9.699 -0.0597  0.0031 -0.0303
  503loPI    C3 8035  11.971  17.243   9.751 -0.0088  0.2023 -0.1283
  503loPI   PO4 8036  12.352  17.580   9.512 -0.1394  0.1588  0.0240
  503loPI   GL1 8037  12.490  17.456   9.127 -0.0347  0.2860 -0.1006
  503loPI   GL2 8038  12.296  17.615   8.975 -0.1605 -0.1507 -0.1224
  503loPI   C1A 8039  12.659  17.267   8.793 -0.3907  0.1088 -0.0133
  503loPI   C2A 8040  12.584  17.106   8.337 -0.0455  0.2123  0.5795
  503loPI   C3A 8041  12.571  17.213   7.922 -0.1694 -0.0787  0.0666
  503loPI   C4A 8042  12.517  17.203   7.502  0.0281 -0.1846 -0.0556
  503loPI   C5A 8043  12.665  17.004   7.126  0.2450  0.0389 -0.3361
  503loPI   C6A 8044  12.552  16.840   6.798  0.1240 -0.6252 -0.1120
  503loPI   C1B 8045  12.297  17.477   8.574  0.1637  0.3431  0.1182
  503loPI   C2B 8046  12.221  17.454   8.201  0.1156 -0.0894  0.2667
  503loPI   C3B 8047  12.157  17.502   7.798 -0.2712  0.0290 -0.0012
  503loPI   C4B 8048  12.115  17.533   7.318  0.0879  0.1603  0.3056
  504loPI    C1 8049  11.960  14.689   9.728 -0.0972 -0.0159 -0.1887
  504loPI    C2 8050  12.064  15.019   9.927 -0.3759  0.0531 -0.1537
  504loPI    C3 8051  11.893  14.715  10.122  0.1880 -0.2561 -0.1202
  504loPI   PO4 8052  11.831  14.669   9.511 -0.1242  0.1695  0.2277
  504loPI   GL1 8053  11.612  14.514   9.281 -0.0771 -0.1342  0.1305
  504loPI   GL2 8054  11.372  14.422   9.296 -0.5168  0.1119 -0.0393
  504loPI   C1A 8055  11.745  14.734   8.773  0.2254 -0.1407  0.0852
  504loPI   C2A 8056  11.693  14.683   8.411 -0.0991 -0.1471  0.2383
  504loPI   C3A 8057  11.359  14.693   8.124  0.0699 -0.0325  0.2058
  504loPI   C4A 8058  11.283  14.665   7.604 -0.2616 -0.0224  0.3993
  504loPI   C5A 8059  11.216  14.796   7.231 -0.0223  0.0547 -0.0946
  504loPI   C6A 8060  11.143  14.787   6.779 -0.1866  0.0354  0.1297
  504loPI   C1B 8061  11.136  14.632   8.962  0.2086 -0.0325  0.0369
  504loPI   C2B 8062  11.078  14.511   8.589 -0.2306 -0.0677  0.0735
  504loPI   C3B 8063  10.914  14.505   8.098 -0.1746 -0.0089  0.0629
  504loPI   C4B 8064  10.686  14.596   7.668  0.1375 -0.4216  0.0285
  505loPI    C1 8065   7.352   6.054   9.951 -0.1458  0.0859 -0.1498
  505loPI    C2 8066   7.117   6.079  10.274  0.2173  0.0459  0.1241
  505loPI    C3 8067   7.142   5.735  10.072  0.1543  0.0068  0.1825
  505loPI   PO4 8068   7.578   6.184   9.996  0.3148 -0.0227  0.3035
  505loPI   GL1 8069   7.786   6.309   9.614 -0.0710  0.1557  0.1731
  505loPI   GL2 8070   8.090   6.259   9.452 -0.1074 -0.0587 -0.2315
  505loPI   C1A 8071   7.702   6.371   9.088 -0.2206  0.0001 -0.1603
  505loPI   C2A 8072   7.759   6.141   8.690  0.0221 -0.2760 -0.1350
  505loPI   C3A 8073   7.723   5.810   8.325  0.2936 -0.2227  0.1200
  505loPI   C4A 8074   7.771   5.689   7.972 -0.1161 -0.0784  0.3264
  505loPI   C5A 8075   7.577   5.385   7.658  0.0410  0.0771 -0.0205
  505loPI   C6A 8076   7.321   5.016   7.668  0.1296  0.1403  0.0532
  505loPI   C1B 8077   8.153   6.276   9.027 -0.0491  0.3725  0.2587
  505loPI   C2B 8078   8.239   6.338   8.590  0.0772  0.2376 -0.0243
  505loPI   C3B 8079   8.163   5.978   8.172 -0.1424 -0.4420  0.0198
  505loPI   C4B 8080   8.130   6.040   7.808 -0.0466  0.0767  0.2826
  506loPI    C1 8081  14.787   3.519   9.744 -0.1152  0.0951  0.1914
  506loPI    C2 8082  14.916   3.611  10.111 -0.0466 -0.0379  0.2014
  506loPI    C3 8083  15.178   3.570   9.812 -0.1135  0.1987  0.1077
  506loPI   PO4 8084  14.534   3.607   9.707 -0.1144 -0.2361 -0.0094
  506loPI   GL1 8085  14.503   3.922   9.367 -0.0686  0.1264  0.2417
  506loPI   GL2 8086  14.602   3.585   9.233 -0.1332  0.0575  0.0099
  506loPI   C1A 8087  14.336   4.151   9.020  0.0131 -0.0500  0.1259
  506loPI   C2A 8088  14.376   4.392   8.635  0.1723  0.2359  0.1360
  506loPI   C3A 8089  14.623   4.609   8.479 -0.1547  0.0838 -0.1684
  506loPI   C4A 8090  14.785   4.655   8.064  0.0388 -0.1618  0.0222
  506loPI   C5A 8091  14.822   4.378   7.833  0.0643 -0.0171  0.0642
  506loPI   C6A 8092  14.876   4.045   7.658  0.2017  0.0372 -0.1401
  506loPI   C1B 8093  14.715   3.766   8.904 -0.0376  0.0418  0.0859
  506loPI   C2B 8094  14.901   3.829   8.516 -0.0507  0.0282  0.4044
  506loPI   C3B 8095  14.875   3.645   8.039 -0.1752  0.1663  0.0507
  506loPI   C4B 8096  14.525   3.611   7.773  0.4132 -0.3936 -0.3284
  507loPI    C1 8097  12.269   0.772   9.401 -0.0478  0.0197  0.0820
  507loPI    C2 8098  11.930   0.981   9.355 -0.1196 -0.0908  0.1067
  507loPI    C3 8099  11.923   0.625   9.539  0.0546  0.0331  0.3596
  507loPI   PO4 8100  12.383   0.710   9.213  0.2183  0.1710  0.1279
  507loPI   GL1 8101  12.411   0.767   8.813 -0.1842  0.2321  0.2583
  507loPI   GL2 8102  12.096   0.932   8.881  0.0519  0.0667  0.1724
  507loPI   C1A 8103  12.504   0.785   8.300  0.1124  0.1055  0.2203
  507loPI   C2A 8104  12.577   0.879   7.920 -0.1546 -0.1974 -0.0170
  507loPI   C3A 8105  12.363   0.981   7.502 -0.0528  0.0582 -0.1218
  507loPI   C4A 8106  12.392   0.704   7.193  0.0085  0.0974  0.3326
  507loPI   C5A 8107  12.252   0.458   6.855 -0.1063  0.2201  0.2954
  507loPI   C6A 8108  11.979   0.654   6.687  0.0211  0.1060 -0.2046
  507loPI   C1B 8109  12.120   0.982   8.450 -0.1240 -0.0761  0.1505
  507loPI   C2B 8110  11.908   1.189   8.017 -0.4204  0.1753  0.1108
  507loPI   C3B 8111  12.018   1.491   7.578  0.0130  0.1727 -0.0922
  507loPI   C4B 8112  12.280   1.792   7.264  0.0332  0.1558 -0.2363
  508loPI    C1 8113   2.376   6.254  10.358 -0.3572  0.2237 -0.0063
  508loPI    C2 8114   2.670   6.421  10.145 -0.1289 -0.1188  0.0325
  508loPI    C3 8115   2.578   6.566  10.506 -0.1326  0.1033 -0.0556
  508loPI   PO4 8116   2.212   6.224  10.150  0.0108  0.0488 -0.2287
  508loPI   GL1 8117   2.052   6.099   9.772 -0.3248  0.0684 -0.1632
  508loPI   GL2 8118   1.800   6.021   9.829 -0.3424  0.0197 -0.2459
  508loPI   C1A 8119   1.915   6.348   9.468  0.4467  0.0616  0.3118
  508loPI   C2A 8120   1.888   6.347   9.024  0.0069  0.1116  0.1528
  508loPI   C3A 8121   2.068   6.330   8.708 -0.2371 -0.0785 -0.1420
  508loPI   C4A 8122   2.068   6.303   8.348 -0.2199  0.1230 -0.0498
  508loPI   C5A 8123   2.231   6.403   8.010  0.3855  0.1547  0.0612
  508loPI   C6A 8124   2.113   6.651   7.740  0.4080 -0.0277  0.1087
  508loPI   C1B 8125   1.814   5.790   9.439 -0.1344 -0.5458 -0.0658
  508loPI   C2B 8126   1.734   5.794   8.916 -0.1436  0.0862 -0.0916
  508loPI   C3B 8127   1.704   5.982   8.472 -0.2746 -0.1194 -0.1531
  508loPI   C4B 8128   1.526   5.961   8.172 -0.0329  0.2539  0.1004
  509loPI    C1 8129   7.047   1.246   9.489  0.1651 -0.0798  0.0447
  509loPI    C2 8130   6.792   1.502   9.658  0.0144 -0.0767 -0.1828
  509loPI    C3 8131   7.185   1.576   9.668  0.0018 -0.0329  0.0849
  509loPI   PO4 8132   6.945   1.186   9.301 -0.0704  0.1674  0.1822
  509loPI   GL1 8133   7.004   1.346   8.911 -0.4196  0.4757  0.1430
  509loPI   GL2 8134   7.136   1.645   9.086  0.0066  0.0768 -0.1479
  509loPI   C1A 8135   6.869   1.309   8.613  0.2599  0.0012  0.3387
  509loPI   C2A 8136   6.925   1.245   8.253 -0.1142  0.1144 -0.0436
  509loPI   C3A 8137   7.058   1.402   7.931  0.0442  0.1355 -0.2484
  509loPI   C4A 8138   7.279   1.497   7.509  0.0319 -0.0173  0.1232
  509loPI   C5A 8139   7.487   1.865   7.322  0.0451  0.0800  0.3748
  509loPI   C6A 8140   7.562   2.004   6.977  0.0597  0.4156 -0.1433
  509loPI   C1B 8141   7.177   1.717   8.672  0.0937 -0.1500  0.1270
  509loPI   C2B 8142   6.981   1.755   8.318  0.3640 -0.0206 -0.0789
  509loPI   C3B 8143   6.884   1.895   7.892 -0.1685 -0.0023  0.2191
  509loPI   C4B 8144   6.870   1.715   7.401  0.2005  0.2592  0.0558
  510loPI    C1 8145   4.974  10.891  10.136 -0.1034 -0.0888 -0.4244
  510loPI    C2 8146   4.705  10.663  10.324  0.0274 -0.0896 -0.2361
  510loPI    C3 8147   5.090  10.555  10.318  0.0620  0.0353 -0.2970
  510loPI   PO4 8148   4.860  10.971   9.872  0.3800  0.1102  0.0087
  510loPI   GL1 8149   4.808  10.851   9.479 -0.0919  0.1890  0.0756
  510loPI   GL2 8150   4.632  11.026   9.324  0.2756 -0.1440 -0.1419
  510loPI   C1A 8151   4.932  10.819   9.046 -0.3704 -0.0262 -0.3112
  510loPI   C2A 8152   4.896  10.822   8.586 -0.0250  0.3734  0.3516
  510loPI   C3A 8153   5.133  10.613   8.350 -0.1262  0.2974 -0.0638
  510loPI   C4A 8154   5.179  10.407   8.072  0.1896  0.1125 -0.1237
  510loPI   C5A 8155   5.024  10.081   7.808  0.1004 -0.2661  0.1367
  510loPI   C6A 8156   4.633   9.924   7.998  0.3049 -0.5366 -0.1548
  510loPI   C1B 8157   4.416  10.876   9.033  0.3495  0.0355 -0.0196
  510loPI   C2B 8158   4.258  10.763   8.617 -0.0447 -0.3271  0.2375
  510loPI   C3B 8159   4.506  10.924   8.369  0.1201 -0.0220  0.0300
  510loPI   C4B 8160   4.666  10.907   7.966 -0.1820 -0.2845  0.2590
  511loPI    C1 8161  17.590  17.033   9.785 -0.1252  0.3843  0.0878
  511loPI    C2 8162  17.506  16.708  10.003  0.2369  0.1791 -0.0699
  511loPI    C3 8163  17.567  17.060  10.183 -0.0560  0.1406  0.1099
  511loPI   PO4 8164  17.710  16.987   9.657  0.2093  0.0587  0.0966
  511loPI   GL1 8165  17.839  16.861   9.197  0.0267 -0.2916  0.0188
  511loPI   GL2 8166  17.806  17.255   9.166 -0.3100 -0.0642  0.0755
  511loPI   C1A 8167  17.816  16.954   8.626  0.2458  0.3009  0.0082
  511loPI   C2A 8168  18.066  16.950   8.239  0.2442 -0.4230  0.1912
  511loPI   C3A 8169  18.109  17.140   7.912 -0.1293 -0.0072  0.0622
  511loPI   C4A 8170  18.235  17.078   7.486 -0.0560  0.1740 -0.4449
  511loPI   C5A 8171  18.669  17.142   7.200  0.2198 -0.0260 -0.4132
  511loPI   C6A 8172  18.891  17.476   7.105 -0.2422 -0.1082  0.1677
  511loPI   C1B 8173  18.210  17.104   8.976 -0.3003 -0.1384 -0.2799
  511loPI   C2B 8174  18.460  17.131   8.526 -0.2880 -0.0233 -0.3055
  511loPI   C3B 8175  18.550  17.064   8.118  0.4616  0.2899  0.0947
  511loPI   C4B 8176  18.678  17.087   7.704 -0.2953 -0.2926  0.0848
  512loPI    C1 8177   3.546  13.203   9.918  0.1837  0.1505  0.3457
  512loPI    C2 8178   3.799  13.057  10.191  0.0776 -0.0123  0.3582
  512loPI    C3 8179   3.586  13.386  10.272  0.0927 -0.0242  0.4475
  512loPI   PO4 8180   3.625  13.253   9.589  0.2712  0.0286 -0.0159
  512loPI   GL1 8181   3.611  13.183   9.168 -0.0258  0.0447  0.2576
  512loPI   GL2 8182   3.934  12.907   9.172 -0.0348 -0.3060  0.0932
  512loPI   C1A 8183   3.500  13.389   8.783  0.1766  0.1856  0.3149
  512loPI   C2A 8184   3.519  13.341   8.304 -0.1722 -0.3165 -0.0997
  512loPI   C3A 8185   3.275  13.273   7.964 -0.0650  0.0384 -0.1250
  512loPI   C4A 8186   3.127  13.450   7.561  0.0507  0.1686 -0.0686
  512loPI   C5A 8187   3.418  13.430   7.197 -0.0137  0.0393  0.2855
  512loPI   C6A 8188   3.599  13.393   6.792  0.0475  0.0499  0.2576
  512loPI   C1B 8189   3.828  13.006   8.783  0.1210  0.0708 -0.1640
  512loPI   C2B 8190   3.916  13.064   8.351 -0.2120 -0.0068 -0.4263
  512loPI   C3B 8191   3.723  13.075   7.931  0.0041  0.1239  0.0576
  512loPI   C4B 8192   3.553  13.134   7.539  0.2015 -0.0353  0.3971
  513loPI    C1 8193   2.308   4.753  10.869 -0.2045  0.1835 -0.2601
  513loPI    C2 8194   2.509   4.702  10.527 -0.2462  0.0637 -0.2670
  513loPI    C3 8195   2.631   4.518  10.861 -0.1707  0.2274 -0.2032
  513loPI   PO4 8196   2.051   4.921  10.625 -0.1078  0.1965  0.1647
  513loPI   GL1 8197   2.024   4.787  10.190  0.3751  0.1012  0.2429
  513loPI   GL2 8198   2.203   5.006  10.107  0.1141 -0.4081 -0.0013
  513loPI   C1A 8199   1.786   4.836   9.885  0.0824 -0.1183  0.1680
  513loPI   C2A 8200   1.871   4.812   9.505 -0.2048  0.1148 -0.3293
  513loPI   C3A 8201   1.865   4.841   9.091 -0.3828 -0.0788  0.1323
  513loPI   C4A 8202   1.934   4.996   8.666 -0.0484  0.3668  0.0158
  513loPI   C5A 8203   1.683   4.879   8.295 -0.2324  0.1976 -0.2246
  513loPI   C6A 8204   1.399   4.548   8.047 -0.3318 -0.0283  0.0033
  513loPI   C1B 8205   1.968   5.264   9.722 -0.1112 -0.2084 -0.0051
  513loPI   C2B 8206   1.849   5.312   9.312  0.2573  0.2145  0.0073
  513loPI   C3B 8207   1.542   5.311   8.975 -0.1236 -0.0110  0.0074
  513loPI   C4B 8208   1.469   5.276   8.514  0.2837  0.0717 -0.0953
  514loPI    C1 8209   8.759   2.110   9.659 -0.0476  0.1518 -0.1821
  514loPI    C2 8210   9.116   2.038   9.825 -0.1458 -0.0733 -0.0648
  514loPI    C3 8211   8.818   2.187  10.047 -0.0861  0.2465 -0.1947
  514loPI   PO4 8212   8.772   2.222   9.438 -0.1451  0.1001  0.0072
  514loPI   GL1 8213   8.536   2.388   9.225 -0.4066 -0.0242 -0.0369
  514loPI   GL2 8214   8.830   2.408   8.935  0.1273 -0.1640  0.0408
  514loPI   C1A 8215   8.359   2.488   8.788  0.0404  0.3996  0.2916
  514loPI   C2A 8216   8.093   2.577   8.428 -0.1460 -0.2884  0.2080
  514loPI   C3A 8217   8.064   2.829   8.109  0.0237 -0.1720 -0.1006
  514loPI   C4A 8218   7.690   2.761   7.872 -0.0797 -0.0071  0.0179
  514loPI   C5A 8219   7.545   2.351   7.655  0.0254  0.1368  0.3669
  514loPI   C6A 8220   7.154   2.218   7.625  0.2680  0.0354 -0.0555
  514loPI   C1B 8221   8.785   2.410   8.519  0.0787 -0.0383 -0.0543
  514loPI   C2B 8222   8.615   2.591   8.112  0.1139 -0.0668  0.1231
  514loPI   C3B 8223   8.549   2.896   7.853 -0.1700 -0.0373 -0.0456
  514loPI   C4B 8224   8.251   2.848   7.563  0.1150  0.3322 -0.5112
  515loPI    C1 8225   5.992  10.738   9.661  0.0800  0.1137 -0.1343
  515loPI    C2 8226   6.082  11.127   9.650  0.1074  0.1118 -0.0004
  515loPI    C3 8227   5.699  11.010   9.645  0.0920  0.1505  0.1979
  515loPI   PO4 8228   6.229  10.622   9.587 -0.0571 -0.0311  0.0931
  515loPI   GL1 8229   6.381  10.489   9.228 -0.1694  0.1968 -0.0319
  515loPI   GL2 8230   6.327  10.293   8.985  0.1963 -0.0232 -0.0401
  515loPI   C1A 8231   6.508  10.806   8.848 -0.1367 -0.4340 -0.0079
  515loPI   C2A 8232   6.433  10.924   8.395  0.2767 -0.0549 -0.0933
  515loPI   C3A 8233   6.437  10.926   7.977  0.0015  0.0182 -0.0080
  515loPI   C4A 8234   6.095  10.900   7.622 -0.5725  0.0296 -0.0102
  515loPI   C5A 8235   5.863  10.689   7.317 -0.1107  0.0578  0.2704
  515loPI   C6A 8236   6.026  10.454   7.046 -0.0235  0.1969  0.0709
  515loPI   C1B 8237   6.365  10.465   8.521  0.1293  0.1870  0.0273
  515loPI   C2B 8238   6.203  10.488   7.979  0.2340 -0.1251  0.0562
  515loPI   C3B 8239   6.435  10.510   7.507 -0.2834 -0.1428 -0.0486
  515loPI   C4B 8240   6.380  10.780   7.183 -0.1117  0.0956 -0.2445
  516loPI    C1 8241  18.832   0.884  10.379  0.1100 -0.1315  0.0701
  516loPI    C2 8242  18.468   1.014  10.275  0.2759  0.3611  0.0799
  516loPI    C3 8243  18.507   0.727  10.552 -0.1159 -0.0049 -0.2306
  516loPI   PO4 8244  18.970   0.775  10.117 -0.1908  0.3720  0.0057
  516loPI   GL1 8245  19.181   0.772   9.741 -0.0260 -0.1905 -0.0411
  516loPI   GL2 8246  18.977   0.966   9.657  0.3752 -0.5506 -0.1365
  516loPI   C1A 8247  18.996   0.663   9.260 -0.0551 -0.2182  0.1147
  516loPI   C2A 8248  19.143   0.772   8.797  0.0192  0.1122  0.0177
  516loPI   C3A 8249  19.250   0.723   8.404  0.0319 -0.0064 -0.2396
  516loPI   C4A 8250  19.310   0.756   7.989  0.1963  0.2533  0.2164
  516loPI   C5A 8251  19.226   0.597   7.533 -0.0720  0.0934 -0.0797
  516loPI   C6A 8252  19.177   0.527   7.153  0.3715  0.0515 -0.3569
  516loPI   C1B 8253  19.119   1.164   9.255 -0.2032 -0.0448 -0.0318
  516loPI   C2B 8254  19.192   1.314   8.853  0.0037  0.0304  0.1809
  516loPI   C3B 8255  19.151   1.301   8.409  0.1768  0.1191 -0.0330
  516loPI   C4B 8256  19.247   1.473   8.038  0.1204 -0.0216  0.0203
  517loPI    C1 8257   4.880   0.942   9.868 -0.2499  0.0612 -0.4206
  517loPI    C2 8258   4.842   1.315  10.008 -0.0535  0.0272 -0.2715
  517loPI    C3 8259   4.758   1.004  10.245 -0.1381 -0.0255 -0.3698
  517loPI   PO4 8260   4.750   1.037   9.585 -0.2019 -0.0749 -0.3443
  517loPI   GL1 8261   4.760   1.352   9.339 -0.1405  0.2761 -0.1186
  517loPI   GL2 8262   4.947   1.622   9.341  0.0153 -0.1335  0.0820
  517loPI   C1A 8263   4.774   1.357   8.871  0.0931 -0.2007 -0.1997
  517loPI   C2A 8264   4.773   1.091   8.477 -0.1054  0.1076 -0.2543
  517loPI   C3A 8265   4.580   1.070   8.096 -0.0697 -0.2096  0.0436
  517loPI   C4A 8266   4.509   1.207   7.685 -0.3287 -0.3788  0.2774
  517loPI   C5A 8267   4.319   1.486   7.470  0.1357  0.0925  0.3430
  517loPI   C6A 8268   3.968   1.745   7.200  0.0200 -0.0020  0.2754
  517loPI   C1B 8269   4.929   1.799   9.049  0.4680 -0.1351 -0.1023
  517loPI   C2B 8270   4.780   1.981   8.705  0.2609 -0.2145 -0.1034
  517loPI   C3B 8271   4.791   1.996   8.193 -0.1205 -0.1462  0.2840
  517loPI   C4B 8272   4.817   2.201   7.825  0.2458  0.0308  0.0095
  518loPI    C1 8273   0.410  18.109  10.372 -0.1562  0.0112 -0.0455
  518loPI    C2 8274   0.446  17.733  10.240  0.2774  0.0184  0.0371
  518loPI    C3 8275   0.377  17.802  10.627 -0.1351  0.0204 -0.0315
  518loPI   PO4 8276   0.627  18.211  10.086 -0.2301  0.1139  0.1649
  518loPI   GL1 8277   0.630  18.295   9.605 -0.3781 -0.3340  0.0771
  518loPI   GL2 8278   0.874  18.153   9.546 -0.2674 -0.2343 -0.0017
  518loPI   C1A 8279   0.826  18.447   9.164  0.0636  0.1193  0.0886
  518loPI   C2A 8280   0.685  18.606   8.714  0.0924  0.1210  0.1635
  518loPI   C3A 8281   0.344  18.901   8.412  0.4554  0.1399 -0.0282
  518loPI   C4A 8282   0.347  19.008   7.976 -0.0309  0.0166 -0.0705
  518loPI   C5A 8283   0.113  19.176   7.736 -0.0794 -0.0438  0.1977
  518loPI   C6A 8284  -0.360  19.220   7.575 -0.2614  0.0213  0.1738
  518loPI   C1B 8285   1.305  18.024   9.436 -0.0404  0.1406  0.1475
  518loPI   C2B 8286   1.522  17.955   9.016 -0.1211  0.3900  0.0129
  518loPI   C3B 8287   1.611  18.006   8.620  0.0859 -0.2341  0.1892
  518loPI   C4B 8288   1.320  18.042   8.326  0.1138 -0.0512 -0.0466
  519loPI    C1 8289  13.001   8.576   9.797 -0.1221 -0.2395 -0.1183
  519loPI    C2 8290  13.276   8.399  10.027  0.0565  0.1069 -0.0572
  519loPI    C3 8291  12.955   8.569  10.194 -0.1095 -0.1427 -0.1150
  519loPI   PO4 8292  13.132   8.654   9.579 -0.2328 -0.2182 -0.1238
  519loPI   GL1 8293  13.013   8.833   9.243  0.4015 -0.0116 -0.3501
  519loPI   GL2 8294  13.303   8.683   9.097  0.1664 -0.0398  0.2164
  519loPI   C1A 8295  12.849   8.781   8.762  0.2693  0.2474  0.0566
  519loPI   C2A 8296  12.627   8.864   8.420  0.1374  0.3057 -0.2066
  519loPI   C3A 8297  12.465   9.109   8.075  0.1246 -0.2711  0.1799
  519loPI   C4A 8298  12.222   8.982   7.678  0.0337 -0.1552  0.3035
  519loPI   C5A 8299  11.921   9.036   7.339  0.0094  0.0081 -0.4227
  519loPI   C6A 8300  11.811   8.840   6.953  0.2263  0.1786  0.0458
  519loPI   C1B 8301  13.456   8.810   8.761  0.0710  0.3228  0.1066
  519loPI   C2B 8302  13.647   8.861   8.348 -0.2620 -0.1193  0.4689
  519loPI   C3B 8303  13.818   9.021   7.847 -0.1431 -0.0535 -0.2752
  519loPI   C4B 8304  13.745   9.174   7.524  0.1341  0.1980 -0.2870
  520loPI    C1 8305   9.250  17.000   9.441 -0.0105 -0.1911 -0.0926
  520loPI    C2 8306   9.410  17.192   9.753 -0.0254 -0.0353 -0.1798
  520loPI    C3 8307   9.645  16.987   9.503 -0.0043 -0.0956 -0.1107
  520loPI   PO4 8308   9.108  17.139   9.341  0.0500  0.0306  0.1650
  520loPI   GL1 8309   8.919  17.262   9.089  0.2838 -0.0629  0.2294
  520loPI   GL2 8310   8.615  17.415   9.041  0.0007 -0.2586  0.0418
  520loPI   C1A 8311   8.950  17.588   8.725 -0.3247 -0.1762 -0.1884
  520loPI   C2A 8312   9.137  17.868   8.345  0.1763 -0.0094 -0.1033
  520loPI   C3A 8313   8.867  17.759   7.962  0.0742  0.3502 -0.2888
  520loPI   C4A 8314   8.971  17.843   7.580  0.1647 -0.2309 -0.0435
  520loPI   C5A 8315   9.034  17.865   7.139 -0.1190 -0.0279 -0.0706
  520loPI   C6A 8316   9.199  17.844   6.701  0.0951 -0.0724  0.0372
  520loPI   C1B 8317   8.540  17.284   8.664 -0.1521 -0.0266 -0.1998
  520loPI   C2B 8318   8.629  17.448   8.290 -0.0483  0.1965  0.0063
  520loPI   C3B 8319   8.573  17.392   7.880 -0.1673 -0.0120 -0.0927
  520loPI   C4B 8320   8.664  17.462   7.469 -0.1497 -0.0201 -0.1011
  521loPI    C1 8321  13.269  12.961   9.361  0.0046 -0.2659 -0.0673
  521loPI    C2 8322  13.389  12.692   9.631 -0.1625 -0.2993 -0.0255
  521loPI    C3 8323  13.081  12.934   9.713 -0.1727 -0.2657 -0.1611
  521loPI   PO4 8324  13.177  12.871   9.101  0.0877  0.1487 -0.0362
  521loPI   GL1 8325  13.385  12.713   8.734 -0.0919  0.1903  0.1203
  521loPI   GL2 8326  13.746  12.749   8.702 -0.3122 -0.0283 -0.0373
  521loPI   C1A 8327  13.314  12.567   8.393  0.0992 -0.0276 -0.1987
  521loPI   C2A 8328  13.431  12.544   7.967  0.1371  0.0094 -0.1460
  521loPI   C3A 8329  13.529  12.635   7.681  0.2167  0.1429  0.0054
  521loPI   C4A 8330  13.449  12.406   7.312  0.2125 -0.0204 -0.1343
  521loPI   C5A 8331  13.479  12.463   6.860 -0.2400 -0.3126 -0.0719
  521loPI   C6A 8332  13.518  12.434   6.389 -0.0203 -0.0511 -0.0310
  521loPI   C1B 8333  13.847  12.646   8.315  0.0611  0.1491  0.0461
  521loPI   C2B 8334  13.920  12.461   8.027  0.2291  0.5290 -0.0896
  521loPI   C3B 8335  13.859  12.284   7.564  0.2596 -0.1324  0.1761
  521loPI   C4B 8336  13.952  12.357   7.089 -0.1822  0.3188 -0.0939
  522loPI    C1 8337  14.332   4.814   9.528  0.2397 -0.0041 -0.0791
  522loPI    C2 8338  14.476   4.455   9.425  0.0341 -0.0786 -0.1122
  522loPI    C3 8339  14.459   4.561   9.811  0.5779  0.1040 -0.1296
  522loPI   PO4 8340  14.034   4.880   9.381 -0.0279  0.0190 -0.1708
  522loPI   GL1 8341  13.783   4.690   9.168  0.0224  0.0455  0.1773
  522loPI   GL2 8342  14.049   4.641   8.961 -0.1005  0.0470  0.0120
  522loPI   C1A 8343  13.620   4.853   8.828 -0.0533 -0.1010 -0.2888
  522loPI   C2A 8344  13.506   4.962   8.344 -0.0099 -0.0018  0.0306
  522loPI   C3A 8345  13.430   4.866   7.934 -0.0766 -0.0543 -0.2606
  522loPI   C4A 8346  13.224   4.813   7.536 -0.1052 -0.1277  0.4492
  522loPI   C5A 8347  12.870   4.938   7.363  0.1113  0.4149 -0.0750
  522loPI   C6A 8348  12.798   5.281   7.367 -0.1576 -0.0585  0.1344
  522loPI   C1B 8349  13.920   4.651   8.535  0.0396 -0.0315  0.1396
  522loPI   C2B 8350  13.845   4.657   8.114 -0.1563 -0.1735 -0.0116
  522loPI   C3B 8351  13.916   4.758   7.722  0.1266  0.0569 -0.1758
  522loPI   C4B 8352  14.135   5.020   7.435  0.1054 -0.2385 -0.3073
  523loPI    C1 8353  10.820   2.214   9.910  0.1396 -0.0158  0.2492
  523loPI    C2 8354  10.788   2.487   9.620 -0.1680 -0.2449  0.0609
  523loPI    C3 8355  10.930   2.592   9.978  0.1022  0.0681 -0.1320
  523loPI   PO4 8356  10.909   1.970   9.651  0.1411 -0.0790 -0.2414
  523loPI   GL1 8357  10.882   2.188   9.159 -0.1122  0.0128  0.0830
  523loPI   GL2 8358  11.007   2.479   9.188  0.1842  0.3809  0.1985
  523loPI   C1A 8359  10.594   2.193   8.731 -0.3287 -0.2432 -0.4074
  523loPI   C2A 8360  10.364   2.332   8.271  0.1559 -0.0148 -0.0104
  523loPI   C3A 8361  10.430   2.420   7.791  0.0441 -0.1981 -0.2504
  523loPI   C4A 8362  10.402   2.379   7.306 -0.0938  0.0223  0.3355
  523loPI   C5A 8363  10.284   2.175   6.887  0.0815  0.3299  0.0329
  523loPI   C6A 8364  10.053   1.895   6.774 -0.2920  0.2023 -0.1262
  523loPI   C1B 8365  10.836   2.626   8.824 -0.3588 -0.0776  0.0185
  523loPI   C2B 8366  10.896   2.543   8.438 -0.0307 -0.0262 -0.2797
  523loPI   C3B 8367  10.837   2.699   8.004 -0.0241 -0.0939 -0.2060
  523loPI   C4B 8368  11.219   2.734   7.638 -0.4284  0.2178 -0.0053
  524loPI    C1 8369  19.313  12.448   9.580  0.1207 -0.2787 -0.2605
  524loPI    C2 8370  19.700  12.545   9.606  0.0685 -0.1317 -0.0115
  524loPI    C3 8371  19.428  12.745   9.822 -0.1173 -0.4001  0.0073
  524loPI   PO4 8372  19.297  12.444   9.315  0.1540  0.0028  0.1210
  524loPI   GL1 8373  19.514  12.511   8.933  0.0569 -0.1645 -0.1239
  524loPI   GL2 8374  19.641  12.285   8.764  0.0895  0.0527  0.1557
  524loPI   C1A 8375  19.604  12.775   8.613 -0.0015  0.0843 -0.0416
  524loPI   C2A 8376  19.655  12.880   8.161 -0.0944  0.3002  0.0218
  524loPI   C3A 8377  19.619  12.802   7.720 -0.3939 -0.0103 -0.0514
  524loPI   C4A 8378  19.234  12.991   7.440  0.0226  0.0256  0.2697
  524loPI   C5A 8379  19.154  13.173   7.105 -0.0993 -0.0184  0.2473
  524loPI   C6A 8380  19.263  13.095   6.722 -0.1964  0.0388  0.2781
  524loPI   C1B 8381  19.847  12.405   8.405 -0.2122 -0.0563  0.1334
  524loPI   C2B 8382  19.892  12.354   7.992  0.0941 -0.2806  0.0402
  524loPI   C3B 8383  20.003  12.476   7.536  0.0019 -0.1562 -0.0910
  524loPI   C4B 8384  19.771  12.622   7.180  0.2463 -0.0770  0.2143
  525loPI    C1 8385  17.442   4.254  10.317 -0.2676 -0.2335 -0.0319
  525loPI    C2 8386  17.752   4.123  10.100 -0.2336  0.0656 -0.1682
  525loPI    C3 8387  17.455   3.873  10.196  0.0866 -0.2453  0.0342
  525loPI   PO4 8388  17.428   4.534  10.163  0.2102 -0.2489  0.0735
  525loPI   GL1 8389  17.681   4.632   9.782  0.1202 -0.1017  0.2840
  525loPI   GL2 8390  17.527   4.895   9.726  0.1070 -0.2352 -0.2504
  525loPI   C1A 8391  17.762   4.608   9.318 -0.1216 -0.0308 -0.0641
  525loPI   C2A 8392  17.873   4.617   8.818  0.1781  0.3361  0.0711
  525loPI   C3A 8393  18.159   4.579   8.536  0.1509 -0.0446 -0.1665
  525loPI   C4A 8394  18.148   4.678   8.130  0.0935  0.0376 -0.0108
  525loPI   C5A 8395  17.868   4.627   7.860 -0.0306  0.0281 -0.1761
  525loPI   C6A 8396  17.681   4.334   7.635 -0.0210 -0.0373 -0.1081
  525loPI   C1B 8397  17.438   4.998   9.308 -0.1996 -0.2950  0.3506
  525loPI   C2B 8398  17.782   5.063   9.018 -0.3159 -0.4217 -0.0557
  525loPI   C3B 8399  18.224   5.058   8.699  0.0271  0.2740 -0.4194
  525loPI   C4B 8400  18.586   4.893   8.466 -0.1692 -0.2574 -0.1734
  526loPI    C1 8401   3.492  11.877   9.586 -0.3031  0.1596 -0.0126
  526loPI    C2 8402   3.682  12.229   9.579 -0.1503  0.0792  0.0557
  526loPI    C3 8403   3.602  12.051   9.929  0.0608 -0.1068  0.0118
  526loPI   PO4 8404   3.483  11.910   9.242 -0.0589 -0.0049 -0.2118
  526loPI   GL1 8405   3.293  11.830   8.959 -0.4366 -0.0955 -0.1152
  526loPI   GL2 8406   3.233  11.488   8.769 -0.3785  0.5079 -0.0717
  526loPI   C1A 8407   3.111  11.885   8.520 -0.1479  0.1769 -0.0229
  526loPI   C2A 8408   3.170  11.781   8.070 -0.1381  0.3334 -0.0818
  526loPI   C3A 8409   3.281  11.907   7.637  0.2681  0.0651 -0.3454
  526loPI   C4A 8410   3.182  12.250   7.283 -0.2902 -0.0520  0.1820
  526loPI   C5A 8411   3.276  12.297   6.779 -0.0944  0.0028 -0.2883
  526loPI   C6A 8412   3.189  12.533   6.478  0.0348  0.2499 -0.2751
  526loPI   C1B 8413   3.496  11.422   8.344  0.0771 -0.1128 -0.1643
  526loPI   C2B 8414   3.614  11.574   7.916  0.2005 -0.1262 -0.0268
  526loPI   C3B 8415   3.718  11.578   7.542 -0.0525 -0.0380 -0.1863
  526loPI   C4B 8416   4.021  11.620   7.278  0.1998  0.1476 -0.2306
  527loPI    C1 8417  10.817   3.254   9.687 -0.2144 -0.0338  0.2968
  527loPI    C2 8418  10.994   2.911   9.581 -0.1246  0.0938  0.0265
  527loPI    C3 8419  11.149   3.134   9.874  0.0114  0.0713 -0.0275
  527loPI   PO4 8420  10.823   3.386   9.423  0.0522  0.2620 -0.0571
  527loPI   GL1 8421  11.080   3.435   9.077  0.0895 -0.0896  0.1641
  527loPI   GL2 8422  11.145   3.087   9.063 -0.0684  0.1731 -0.2986
  527loPI   C1A 8423  11.238   3.448   8.693  0.2807  0.0693 -0.2138
  527loPI   C2A 8424  11.373   3.442   8.399  0.4125 -0.0321  0.2636
  527loPI   C3A 8425  11.144   3.546   7.879 -0.2309  0.3266 -0.0906
  527loPI   C4A 8426  11.081   3.247   7.545 -0.1437 -0.2083  0.3885
  527loPI   C5A 8427  11.222   3.100   7.204 -0.1991  0.1687  0.0653
  527loPI   C6A 8428  11.375   3.060   6.773  0.1064 -0.1187 -0.0944
  527loPI   C1B 8429  10.801   3.185   8.768  0.3279  0.0051  0.0279
  527loPI   C2B 8430  10.830   3.497   8.446 -0.1807  0.3583 -0.0268
  527loPI   C3B 8431  10.812   3.849   8.208 -0.2069  0.1012 -0.4256
  527loPI   C4B 8432  10.933   4.003   7.821 -0.0666  0.1399 -0.1518
  528loPI    C1 8433  19.033   8.172  10.372  0.0727 -0.1741  0.0772
  528loPI    C2 8434  19.075   8.505  10.590 -0.2988 -0.1386  0.1009
  528loPI    C3 8435  19.391   8.269  10.522 -0.0491  0.1746  0.1520
  528loPI   PO4 8436  18.983   8.220  10.135 -0.1044 -0.1227  0.2454
  528loPI   GL1 8437  19.103   7.946   9.747  0.1141  0.0697 -0.0098
  528loPI   GL2 8438  19.417   7.910   9.653 -0.4734  0.2254 -0.0638
  528loPI   C1A 8439  18.983   7.979   9.325 -0.0127  0.1061 -0.1445
  528loPI   C2A 8440  18.963   8.021   8.866  0.0330  0.1545  0.1049
  528loPI   C3A 8441  18.960   8.060   8.391 -0.4446 -0.4102  0.0809
  528loPI   C4A 8442  19.111   8.132   8.044 -0.2645  0.0460  0.2198
  528loPI   C5A 8443  18.989   7.977   7.657 -0.0543 -0.0500 -0.0274
  528loPI   C6A 8444  19.089   7.751   7.252 -0.2013 -0.1464 -0.3586
  528loPI   C1B 8445  19.490   7.730   9.208  0.0949  0.0958  0.1454
  528loPI   C2B 8446  19.556   7.629   8.738 -0.1882 -0.0126  0.1984
  528loPI   C3B 8447  19.815   7.422   8.409 -0.0924  0.0224  0.1720
  528loPI   C4B 8448  19.836   7.536   7.985  0.0368  0.0695 -0.1366
  529loPI    C1 8449  17.594   1.985   9.879 -0.0814 -0.2629  0.1564
  529loPI    C2 8450  17.398   2.162  10.180  0.1643 -0.1606  0.2591
  529loPI    C3 8451  17.733   2.325  10.036 -0.0695 -0.0876 -0.2248
  529loPI   PO4 8452  17.332   1.768   9.801  0.0592 -0.2295 -0.1153
  529loPI   GL1 8453  17.207   1.554   9.457 -0.1967 -0.3849 -0.1493
  529loPI   GL2 8454  17.477   1.875   9.329  0.2227  0.1430  0.0681
  529loPI   C1A 8455  17.034   1.631   9.114 -0.0388  0.0787 -0.0125
  529loPI   C2A 8456  17.167   1.653   8.657 -0.1765 -0.2140 -0.3133
  529loPI   C3A 8457  17.337   1.504   8.284  0.0214  0.1300  0.0514
  529loPI   C4A 8458  17.293   1.500   7.978  0.2499 -0.1992 -0.0894
  529loPI   C5A 8459  17.325   1.266   7.645  0.0322 -0.5555 -0.0776
  529loPI   C6A 8460  17.189   1.077   7.324 -0.1304 -0.1155  0.1128
  529loPI   C1B 8461  17.603   1.924   8.967 -0.1659  0.0343 -0.0590
  529loPI   C2B 8462  17.616   1.871   8.477 -0.1428 -0.0849 -0.2424
  529loPI   C3B 8463  17.742   1.775   8.048  0.0962  0.0458 -0.2519
  529loPI   C4B 8464  17.732   1.652   7.578  0.0533  0.0615  0.1134
  530loPI    C1 8465  15.062   6.546   9.755  0.1385 -0.1960  0.0422
  530loPI    C2 8466  14.701   6.436   9.622  0.1114  0.0323 -0.0773
  530loPI    C3 8467  14.780   6.430  10.014 -0.0591  0.0878 -0.0414
  530loPI   PO4 8468  15.204   6.412   9.601 -0.2001 -0.0510 -0.4391
  530loPI   GL1 8469  15.461   6.330   9.200  0.1322 -0.1181  0.0633
  530loPI   GL2 8470  15.794   6.203   9.221  0.0305  0.2612 -0.2150
  530loPI   C1A 8471  15.475   6.239   8.740 -0.2430  0.0440  0.0867
  530loPI   C2A 8472  15.684   6.327   8.291 -0.0789  0.2550 -0.1737
  530loPI   C3A 8473  16.065   6.192   8.030  0.1729 -0.0984 -0.1458
  530loPI   C4A 8474  16.102   6.430   7.600 -0.2669 -0.4033  0.1239
  530loPI   C5A 8475  16.247   6.599   7.286 -0.2506  0.3877 -0.0251
  530loPI   C6A 8476  16.636   6.823   7.168 -0.1393 -0.1759 -0.0245
  530loPI   C1B 8477  16.049   6.098   8.935 -0.3117 -0.0676  0.3525
  530loPI   C2B 8478  16.084   5.889   8.486 -0.1577  0.0484  0.0357
  530loPI   C3B 8479  16.241   5.706   8.060 -0.0165 -0.1127  0.1254
  530loPI   C4B 8480  16.249   5.483   7.720 -0.0627 -0.2759  0.0115
  531loPI    C1 8481  17.349  12.636   9.620  0.1617  0.2199  0.0957
  531loPI    C2 8482  17.582  12.400   9.845  0.1622  0.0930 -0.0367
  531loPI    C3 8483  17.194  12.441   9.933  0.2073  0.2086  0.1114
  531loPI   PO4 8484  17.401  12.576   9.340 -0.0723  0.1993  0.1220
  531loPI   GL1 8485  17.627  12.611   8.937  0.0184 -0.2477  0.0930
  531loPI   GL2 8486  17.337  12.576   8.862 -0.0731  0.5077 -0.1278
  531loPI   C1A 8487  17.771  12.354   8.640 -0.2095  0.2569  0.1983
  531loPI   C2A 8488  17.886  12.421   8.191  0.0193  0.0540 -0.2921
  531loPI   C3A 8489  18.021  12.296   7.775  0.1971 -0.0096 -0.2181
  531loPI   C4A 8490  18.234  12.222   7.394 -0.0064  0.0161  0.0007
  531loPI   C5A 8491  18.390  12.514   7.049  0.0568 -0.0267  0.0524
  531loPI   C6A 8492  18.621  12.781   6.824 -0.1779  0.1175  0.1874
  531loPI   C1B 8493  17.418  12.698   8.513 -0.1412 -0.4413  0.0890
  531loPI   C2B 8494  17.517  12.808   8.079 -0.3328 -0.1436  0.2688
  531loPI   C3B 8495  17.631  12.620   7.786 -0.0026 -0.5386  0.2196
  531loPI   C4B 8496  17.752  12.452   7.368  0.0100  0.0581 -0.3337
  532loPI    C1 8497  16.223   3.852   9.799  0.2543  0.0804  0.0131
  532loPI    C2 8498  16.099   4.068  10.112  0.0025 -0.0321 -0.0066
  532loPI    C3 8499  16.476   3.936  10.097  0.0393  0.0454  0.2085
  532loPI   PO4 8500  16.175   3.996   9.611 -0.0771 -0.0164  0.2468
  532loPI   GL1 8501  16.107   4.267   9.308 -0.4938  0.1847  0.3835
  532loPI   GL2 8502  15.804   4.449   9.306 -0.1001 -0.0077  0.0673
  532loPI   C1A 8503  16.246   4.077   8.950  0.0939 -0.1085  0.1217
  532loPI   C2A 8504  16.524   4.037   8.604 -0.0290 -0.0371  0.0151
  532loPI   C3A 8505  16.763   4.088   8.230  0.1893 -0.4938  0.2142
  532loPI   C4A 8506  16.888   4.138   7.892  0.1909  0.0275 -0.1696
  532loPI   C5A 8507  17.253   4.172   7.507 -0.1389  0.0551  0.1836
  532loPI   C6A 8508  17.169   3.948   7.088 -0.3384 -0.0643 -0.2564
  532loPI   C1B 8509  15.542   4.515   8.942 -0.0224  0.1623 -0.0863
  532loPI   C2B 8510  15.509   4.487   8.518 -0.2384 -0.2165 -0.2249
  532loPI   C3B 8511  15.656   4.646   7.997 -0.0961 -0.2348  0.0988
  532loPI   C4B 8512  15.600   4.815   7.589  0.1402  0.1930 -0.0521
  533loPI    C1 8513   6.774  19.095   9.537  0.0392 -0.0225  0.0697
  533loPI    C2 8514   7.117  18.927   9.655  0.0333 -0.0696  0.0206
  533loPI    C3 8515   7.118  19.196   9.360  0.0247 -0.0891  0.0028
  533loPI   PO4 8516   6.619  18.849   9.587  0.2284  0.1700 -0.3658
  533loPI   GL1 8517   6.553  18.537   9.369 -0.1492  0.1428  0.5021
  533loPI   GL2 8518   6.676  18.705   9.119 -0.1237 -0.1451  0.2337
  533loPI   C1A 8519   6.404  18.311   9.019  0.2966  0.0402 -0.2890
  533loPI   C2A 8520   6.251  18.074   8.787 -0.2952  0.0750  0.1987
  533loPI   C3A 8521   6.278  18.094   8.281  0.0655  0.1743  0.1928
  533loPI   C4A 8522   6.210  18.100   7.933  0.0361  0.1849  0.0388
  533loPI   C5A 8523   6.118  17.996   7.570 -0.2778  0.0391 -0.0031
  533loPI   C6A 8524   6.094  18.312   7.265 -0.0239 -0.1106  0.2250
  533loPI   C1B 8525   6.680  18.864   8.728  0.0790  0.2282 -0.2205
  533loPI   C2B 8526   6.635  18.844   8.265 -0.1651 -0.1180 -0.0292
  533loPI   C3B 8527   6.693  18.453   7.901 -0.0801  0.1997  0.0509
  533loPI   C4B 8528   6.573  18.218   7.487 -0.0422  0.1072 -0.1102
  534loPI    C1 8529   5.341   5.985   9.922  0.0329 -0.3311  0.1614
  534loPI    C2 8530   5.500   6.264  10.160 -0.0993 -0.1593  0.0511
  534loPI    C3 8531   5.217   6.019  10.300 -0.4531  0.1918 -0.0293
  534loPI   PO4 8532   5.522   5.843   9.812 -0.3721  0.0866 -0.1016
  534loPI   GL1 8533   5.590   5.888   9.380 -0.1850 -0.0004  0.0064
  534loPI   GL2 8534   5.443   5.645   9.253 -0.3607 -0.1052  0.2976
  534loPI   C1A 8535   5.481   6.262   9.116  0.0755 -0.3730  0.0561
  534loPI   C2A 8536   5.432   6.420   8.630  0.1455  0.0372  0.0803
  534loPI   C3A 8537   5.337   6.357   8.207  0.1315  0.3620 -0.0021
  534loPI   C4A 8538   5.183   6.072   7.847  0.2998 -0.2428 -0.0762
  534loPI   C5A 8539   4.984   6.113   7.353 -0.1355  0.0177  0.1533
  534loPI   C6A 8540   4.875   5.801   6.959  0.2651  0.0257 -0.2144
  534loPI   C1B 8541   5.437   5.812   8.851  0.2396  0.1318 -0.2056
  534loPI   C2B 8542   5.434   5.679   8.441  0.1001  0.1651  0.0700
  534loPI   C3B 8543   5.586   5.880   8.115  0.2077  0.1211 -0.3495
  534loPI   C4B 8544   5.757   5.888   7.679  0.4184  0.0786 -0.1227
  535loPI    C1 8545   3.434  15.905  10.021  0.0584 -0.0723 -0.0081
  535loPI    C2 8546   3.054  16.018  10.077  0.0170 -0.2112 -0.0039
  535loPI    C3 8547   3.321  16.060  10.372  0.0012 -0.1294 -0.0011
  535loPI   PO4 8548   3.461  15.696   9.883  0.1872  0.2680 -0.2091
  535loPI   GL1 8549   3.552  15.653   9.493  0.1619  0.1065  0.2131
  535loPI   GL2 8550   3.203  15.639   9.425 -0.0599 -0.8633  0.1693
  535loPI   C1A 8551   3.696  15.753   9.096  0.0414 -0.3289 -0.2769
  535loPI   C2A 8552   3.879  15.933   8.809  0.0526 -0.1922 -0.0789
  535loPI   C3A 8553   3.971  15.927   8.444 -0.3629  0.0037  0.0361
  535loPI   C4A 8554   4.098  16.075   8.059 -0.1063 -0.0818 -0.1984
  535loPI   C5A 8555   3.923  16.272   7.723  0.1692  0.0336  0.1066
  535loPI   C6A 8556   3.894  16.347   7.319 -0.0592 -0.2918  0.2109
  535loPI   C1B 8557   3.145  15.945   9.102 -0.3484 -0.1944 -0.2752
  535loPI   C2B 8558   2.921  16.018   8.793 -0.0305  0.0868  0.1983
  535loPI   C3B 8559   2.871  15.985   8.422 -0.2230 -0.3028 -0.0117
  535loPI   C4B 8560   2.801  15.722   8.108 -0.1148  0.1155  0.2928
  536loPI    C1 8561   4.499  19.398   9.972 -0.2545  0.0157  0.1024
  536loPI    C2 8562   4.375  19.164  10.271 -0.1117 -0.1018  0.0711
  536loPI    C3 8563   4.481  19.543  10.344  0.1310 -0.1940  0.2081
  536loPI   PO4 8564   4.321  19.410   9.790 -0.1399 -0.2531  0.4992
  536loPI   GL1 8565   4.372  19.718   9.378 -0.0984 -0.0484 -0.1106
  536loPI   GL2 8566   4.100  19.780   9.312  0.4726  0.3505  0.0767
  536loPI   C1A 8567   4.306  19.714   8.869  0.4744 -0.1042 -0.0977
  536loPI   C2A 8568   4.084  19.681   8.627  0.0167  0.2041  0.2061
  536loPI   C3A 8569   4.139  19.544   8.257 -0.1382 -0.0551 -0.1594
  536loPI   C4A 8570   4.112  19.445   7.912  0.1105  0.1853 -0.0598
  536loPI   C5A 8571   4.084  19.297   7.444  0.1327  0.1107 -0.1483
  536loPI   C6A 8572   4.052  19.402   6.994 -0.1869 -0.3212 -0.1327
  536loPI   C1B 8573   3.893  19.947   9.001  0.0195  0.2524  0.3657
  536loPI   C2B 8574   3.826  20.124   8.634 -0.1213  0.1046 -0.1808
  536loPI   C3B 8575   3.792  19.948   8.275  0.1663 -0.1352  0.0850
  536loPI   C4B 8576   3.638  19.896   7.954 -0.1904  0.2297  0.0883
  537loPI    C1 8577  12.295  13.594   9.641 -0.0017  0.1392  0.0013
  537loPI    C2 8578  11.961  13.709   9.829  0.0357 -0.1773  0.2697
  537loPI    C3 8579  12.294  13.928   9.860 -0.0928  0.0368  0.1589
  537loPI   PO4 8580  12.162  13.443   9.379 -0.2160 -0.0090 -0.0141
  537loPI   GL1 8581  12.349  13.484   8.914  0.3514  0.0155 -0.2764
  537loPI   GL2 8582  12.555  13.461   8.729 -0.0970 -0.0369  0.4305
  537loPI   C1A 8583  12.020  13.367   8.518  0.2571  0.2333 -0.0698
  537loPI   C2A 8584  12.180  13.430   8.097 -0.0628  0.0776  0.4035
  537loPI   C3A 8585  12.367  13.338   7.703  0.2069  0.1563  0.1635
  537loPI   C4A 8586  12.242  13.424   7.343 -0.0639  0.3133  0.1435
  537loPI   C5A 8587  11.886  13.483   6.923 -0.1403 -0.2698 -0.2165
  537loPI   C6A 8588  11.568  13.716   6.620 -0.2759 -0.1783 -0.0044
  537loPI   C1B 8589  12.775  13.484   8.421  0.1218  0.2276  0.1956
  537loPI   C2B 8590  12.935  13.258   8.115  0.0469  0.1801  0.0283
  537loPI   C3B 8591  13.245  13.242   7.792  0.2608  0.2724 -0.0617
  537loPI   C4B 8592  13.563  13.414   7.480  0.0324  0.0347  0.0986
  538loPI    C1 8593  16.991   5.696  10.427  0.0675  0.0191  0.3080
  538loPI    C2 8594  17.213   5.395  10.285  0.0329  0.1454 -0.0230
  538loPI    C3 8595  17.289   5.546  10.648  0.4173  0.1150 -0.0861
  538loPI   PO4 8596  17.027   5.842  10.068  0.1354  0.0354 -0.0796
  538loPI   GL1 8597  16.924   6.152   9.979 -0.0483  0.0644  0.0928
  538loPI   GL2 8598  16.668   6.208   9.731  0.1316 -0.0595 -0.2352
  538loPI   C1A 8599  17.135   6.217   9.541  0.4934 -0.3388  0.3126
  538loPI   C2A 8600  17.085   6.020   9.114 -0.0342 -0.2873 -0.0658
  538loPI   C3A 8601  17.178   5.993   8.606  0.1259 -0.0138  0.1686
  538loPI   C4A 8602  17.191   5.909   8.155  0.2049 -0.1882 -0.1012
  538loPI   C5A 8603  17.219   5.685   7.687 -0.1941  0.3343  0.1429
  538loPI   C6A 8604  17.410   5.609   7.462 -0.1032  0.0284  0.0191
  538loPI   C1B 8605  16.744   5.933   9.491  0.0084  0.3812  0.0793
  538loPI   C2B 8606  16.698   5.576   9.234 -0.0982 -0.3578 -0.0487
  538loPI   C3B 8607  16.846   5.511   8.774  0.1461  0.2190  0.0104
  538loPI   C4B 8608  16.991   5.447   8.295  0.0018 -0.2534 -0.0888
  539loPI    C1 8609  12.744   7.468   9.768 -0.2773  0.1270  0.0971
  539loPI    C2 8610  13.061   7.261   9.641 -0.1763  0.4446 -0.1827
  539loPI    C3 8611  13.111   7.576   9.882 -0.3305  0.1418  0.2567
  539loPI   PO4 8612  12.556   7.444   9.570 -0.0240 -0.2068  0.2251
  539loPI   GL1 8613  12.658   7.440   9.146 -0.0009  0.1054 -0.0842
  539loPI   GL2 8614  12.853   7.245   9.148 -0.0463  0.0494 -0.3949
  539loPI   C1A 8615  12.358   7.571   8.813 -0.2055 -0.1878 -0.0341
  539loPI   C2A 8616  12.377   7.546   8.361 -0.2349  0.1460  0.2593
  539loPI   C3A 8617  12.150   7.505   8.028 -0.3030 -0.3113  0.0028
  539loPI   C4A 8618  12.264   7.657   7.675 -0.0188 -0.0822  0.0010
  539loPI   C5A 8619  12.088   8.119   7.452 -0.1858 -0.0625 -0.0664
  539loPI   C6A 8620  11.862   8.488   7.350 -0.1388  0.2187  0.4281
  539loPI   C1B 8621  12.817   7.351   8.684 -0.1648 -0.0733  0.0420
  539loPI   C2B 8622  12.891   7.562   8.256  0.1107 -0.4072 -0.2039
  539loPI   C3B 8623  12.737   7.794   7.970 -0.0002  0.0772 -0.1720
  539loPI   C4B 8624  12.563   8.066   7.621  0.1357  0.1909 -0.4428
  540loPI    C1 8625  11.297   2.464   9.582  0.0085 -0.3082  0.0533
  540loPI    C2 8626  11.421   2.710   9.871 -0.1603  0.0325 -0.1584
  540loPI    C3 8627  11.349   2.326   9.953  0.1186  0.0468  0.1734
  540loPI   PO4 8628  11.442   2.542   9.415 -0.0115  0.1186  0.1560
  540loPI   GL1 8629  11.463   2.744   8.986  0.0707 -0.2262 -0.0345
  540loPI   GL2 8630  11.758   2.726   8.884  0.2212 -0.0947 -0.1476
  540loPI   C1A 8631  11.257   2.891   8.609 -0.0947 -0.0562  0.0642
  540loPI   C2A 8632  11.244   2.942   8.147  0.1155  0.0728  0.2195
  540loPI   C3A 8633  11.498   3.178   7.787  0.1459  0.0442 -0.2940
  540loPI   C4A 8634  11.448   3.525   7.450  0.1344  0.1780 -0.0334
  540loPI   C5A 8635  11.214   3.818   7.387 -0.0011  0.2811 -0.3741
  540loPI   C6A 8636  11.013   4.225   7.272 -0.1315  0.0055  0.1052
  540loPI   C1B 8637  11.689   2.831   8.338  0.2483  0.0848 -0.1895
  540loPI   C2B 8638  11.719   2.759   7.944 -0.0764 -0.2156  0.1983
  540loPI   C3B 8639  11.730   2.839   7.484 -0.1228  0.1571 -0.2579
  540loPI   C4B 8640  11.721   3.106   7.152  0.0454  0.0600  0.0869
  541loPI    C1 8641   6.195  12.495   9.480  0.0176 -0.0060 -0.1023
  541loPI    C2 8642   6.354  12.623   9.824 -0.2392  0.1939 -0.0551
  541loPI    C3 8643   6.279  12.234   9.771 -0.0133  0.1366  0.0361
  541loPI   PO4 8644   6.244  12.628   9.291 -0.0233 -0.0973 -0.1579
  541loPI   GL1 8645   6.397  12.412   8.968 -0.1222 -0.3634  0.0622
  541loPI   GL2 8646   6.354  12.165   8.895 -0.1302  0.0417  0.2027
  541loPI   C1A 8647   6.527  12.296   8.456  0.2288 -0.0100 -0.1439
  541loPI   C2A 8648   6.520  11.909   8.190  0.5236  0.1030  0.0382
  541loPI   C3A 8649   6.476  11.788   7.692  0.0676  0.2300 -0.1332
  541loPI   C4A 8650   6.137  11.755   7.302 -0.1348 -0.2162  0.1903
  541loPI   C5A 8651   5.999  11.787   6.986  0.0321  0.0543  0.0501
  541loPI   C6A 8652   5.875  12.172   6.806  0.0031 -0.0904  0.0211
  541loPI   C1B 8653   6.215  11.870   8.630 -0.2592  0.2065 -0.0523
  541loPI   C2B 8654   6.040  11.647   8.211  0.1476  0.2288  0.1436
  541loPI   C3B 8655   6.100  11.341   7.872 -0.0908 -0.1123  0.1147
  541loPI   C4B 8656   6.021  11.301   7.366 -0.5999 -0.0208 -0.1662
  542loPI    C1 8657   3.637   0.079  10.129  0.1189 -0.1240 -0.1570
  542loPI    C2 8658   4.030   0.056  10.197  0.0755 -0.0045  0.1487
  542loPI    C3 8659   3.772  -0.079  10.471 -0.0977 -0.1077 -0.0622
  542loPI   PO4 8660   3.630   0.251   9.936 -0.3717  0.0149  0.0212
  542loPI   GL1 8661   3.674   0.227   9.551  0.1290  0.0888  0.0245
  542loPI   GL2 8662   3.906  -0.078   9.582 -0.2024  0.0683 -0.2617
  542loPI   C1A 8663   3.603   0.205   9.254  0.1508 -0.1529 -0.1417
  542loPI   C2A 8664   3.574   0.154   8.871 -0.0119  0.0483 -0.2278
  542loPI   C3A 8665   3.651   0.048   8.461 -0.0282 -0.1180  0.1087
  542loPI   C4A 8666   3.621  -0.036   7.979  0.1179  0.4189 -0.1570
  542loPI   C5A 8667   3.636  -0.149   7.613  0.1848  0.2839  0.4035
  542loPI   C6A 8668   3.447  -0.079   7.208  0.1594  0.0697 -0.0194
  542loPI   C1B 8669   3.987  -0.090   9.075 -0.3120 -0.4925  0.3661
  542loPI   C2B 8670   4.223  -0.239   8.623 -0.1861 -0.3830  0.2001
  542loPI   C3B 8671   4.410  -0.349   8.226 -0.1465  0.3156 -0.0832
  542loPI   C4B 8672   4.421  -0.396   7.791  0.0337  0.5782 -0.1535
  543loPI    C1 8673  18.122   7.876  10.126  0.3163 -0.0521  0.1436
  543loPI    C2 8674  18.061   8.033  10.489  0.1481 -0.1408  0.1545
  543loPI    C3 8675  17.791   8.088  10.199  0.1596 -0.2838  0.1158
  543loPI   PO4 8676  18.329   7.943  10.038  0.2599 -0.0226  0.4993
  543loPI   GL1 8677  18.390   7.822   9.715 -0.1452  0.1600  0.0191
  543loPI   GL2 8678  18.396   7.554   9.587  0.0364 -0.1242 -0.4468
  543loPI   C1A 8679  18.453   8.121   9.329  0.4029  0.4666  0.0065
  543loPI   C2A 8680  18.522   8.177   8.976 -0.3241 -0.0228  0.1287
  543loPI   C3A 8681  18.515   8.274   8.555  0.1767  0.1596 -0.2074
  543loPI   C4A 8682  18.665   8.518   8.222 -0.2092  0.1133 -0.1601
  543loPI   C5A 8683  18.983   8.598   8.012 -0.0719 -0.4440  0.0730
  543loPI   C6A 8684  19.175   8.890   7.678  0.0021 -0.0780 -0.5497
  543loPI   C1B 8685  18.535   7.657   9.255 -0.1433 -0.2986  0.2639
  543loPI   C2B 8686  18.602   7.680   8.824 -0.0739 -0.2016 -0.0512
  543loPI   C3B 8687  18.615   7.739   8.336 -0.0079 -0.0078 -0.1943
  543loPI   C4B 8688  18.656   7.970   8.038  0.0105 -0.0010 -0.0058
  544loPI    C1 8689   8.821   7.416   9.843 -0.1335 -0.0548  0.0293
  544loPI    C2 8690   8.675   7.062   9.958  0.0156 -0.1450 -0.0567
  544loPI    C3 8691   8.542   7.398  10.130  0.0284 -0.2574  0.1768
  544loPI   PO4 8692   8.905   7.327   9.558 -0.1173  0.3139  0.0618
  544loPI   GL1 8693   8.840   7.341   9.101 -0.0643 -0.0619 -0.0127
  544loPI   GL2 8694   8.699   6.994   9.118 -0.1323 -0.1577  0.0675
  544loPI   C1A 8695   8.552   7.397   8.732 -0.3035 -0.2213  0.0744
  544loPI   C2A 8696   8.462   7.447   8.327  0.2914  0.2435 -0.0629
  544loPI   C3A 8697   8.293   7.203   7.955 -0.1180  0.2592  0.0070
  544loPI   C4A 8698   8.155   7.031   7.523 -0.0582 -0.0071  0.0508
  544loPI   C5A 8699   7.830   7.176   7.476 -0.1634  0.0672 -0.1338
  544loPI   C6A 8700   7.547   7.284   7.184 -0.0839  0.0978  0.0717
  544loPI   C1B 8701   8.710   6.949   8.720 -0.2012 -0.4208 -0.1507
  544loPI   C2B 8702   8.731   7.046   8.336 -0.0348  0.2390  0.0605
  544loPI   C3B 8703   8.761   7.261   7.915 -0.0723 -0.3624  0.2395
  544loPI   C4B 8704   8.691   7.265   7.433 -0.0694 -0.2157 -0.0892
  545loPI    C1 8705   2.718   8.517  10.048  0.2782 -0.3911  0.1155
  545loPI    C2 8706   2.725   8.666  10.420 -0.0914  0.2330 -0.1102
  545loPI    C3 8707   3.068   8.588  10.228  0.1047  0.2229  0.2366
  545loPI   PO4 8708   2.531   8.682   9.913 -0.0521 -0.0798 -0.1213
  545loPI   GL1 8709   2.291   8.409   9.706 -0.1460 -0.0862 -0.3096
  545loPI   GL2 8710   2.117   8.096   9.607 -0.0532 -0.0090 -0.2998
  545loPI   C1A 8711   2.213   8.479   9.330 -0.2207  0.1504  0.0103
  545loPI   C2A 8712   2.324   8.331   8.898 -0.0842  0.0261 -0.1172
  545loPI   C3A 8713   2.470   8.414   8.536  0.0443 -0.0820 -0.2025
  545loPI   C4A 8714   2.548   8.522   8.124 -0.0235  0.0936 -0.0992
  545loPI   C5A 8715   2.441   8.735   7.751  0.0831 -0.1609  0.0792
  545loPI   C6A 8716   2.452   8.957   7.571  0.0617  0.1522 -0.1606
  545loPI   C1B 8717   2.045   7.991   9.266 -0.0843  0.0536 -0.0182
  545loPI   C2B 8718   1.998   7.892   8.847 -0.0716  0.2424 -0.0251
  545loPI   C3B 8719   1.942   7.884   8.437  0.0029 -0.4282  0.1938
  545loPI   C4B 8720   1.697   8.016   8.122 -0.1570 -0.2795  0.2664
  546loPI    C1 8721   5.688   0.803   9.814  0.0405  0.0639  0.0126
  546loPI    C2 8722   5.539   0.531  10.067  0.3099 -0.3444 -0.2577
  546loPI    C3 8723   5.762   0.832  10.207 -0.1816 -0.1205  0.0703
  546loPI   PO4 8724   5.515   0.881   9.637 -0.1594 -0.0912 -0.2898
  546loPI   GL1 8725   5.217   0.825   9.311  0.0133 -0.0435 -0.2085
  546loPI   GL2 8726   4.983   0.975   9.100  0.6186  0.1810  0.0608
  546loPI   C1A 8727   5.461   0.591   9.063  0.0244 -0.0133  0.5632
  546loPI   C2A 8728   5.474   0.496   8.647  0.2281  0.0125  0.3199
  546loPI   C3A 8729   5.593   0.404   8.120 -0.0561 -0.1040 -0.0579
  546loPI   C4A 8730   5.693   0.658   7.800  0.0677 -0.1175 -0.1747
  546loPI   C5A 8731   5.893   0.578   7.349 -0.1440 -0.2786  0.0886
  546loPI   C6A 8732   5.910   0.907   7.011  0.0410 -0.1086 -0.0200
  546loPI   C1B 8733   5.155   0.956   8.748  0.0985 -0.2685 -0.2841
  546loPI   C2B 8734   5.204   0.992   8.281  0.0241  0.1057  0.0003
  546loPI   C3B 8735   5.095   0.822   7.893  0.0820 -0.0612  0.5489
  546loPI   C4B 8736   5.339   0.731   7.410  0.1954 -0.0476 -0.1907
  547loPI    C1 8737  15.594  16.115   9.397  0.1041  0.0730 -0.0982
  547loPI    C2 8738  15.588  16.499   9.512 -0.0767 -0.0148  0.1973
  547loPI    C3 8739  15.863  16.250   9.660  0.1837  0.0478 -0.1665
  547loPI   PO4 8740  15.595  16.066   9.097  0.0275 -0.2931 -0.1845
  547loPI   GL1 8741  15.525  16.012   8.646  0.3155 -0.0229  0.0211
  547loPI   GL2 8742  15.862  16.158   8.612  0.1687  0.1264 -0.0934
  547loPI   C1A 8743  15.550  15.930   8.191 -0.1044 -0.1707  0.0625
  547loPI   C2A 8744  15.802  15.849   7.990  0.0822 -0.0268 -0.3184
  547loPI   C3A 8745  15.906  15.993   7.531  0.0434 -0.2623 -0.0709
  547loPI   C4A 8746  16.133  16.064   7.032 -0.1894  0.1246 -0.3077
  547loPI   C5A 8747  16.165  16.452   6.873  0.1761  0.0700 -0.0632
  547loPI   C6A 8748  16.563  16.487   6.604 -0.1956 -0.1671  0.3001
  547loPI   C1B 8749  15.736  16.370   8.164 -0.1956  0.0391 -0.2783
  547loPI   C2B 8750  15.826  16.486   7.782  0.5758 -0.1023  0.3364
  547loPI   C3B 8751  15.893  16.664   7.408  0.2207  0.1282 -0.0513
  547loPI   C4B 8752  16.037  17.004   7.121  0.1649 -0.0394  0.1263
  548loPI    C1 8753  10.441  16.148   9.386  0.3584  0.0056  0.0175
  548loPI    C2 8754  10.594  16.206   9.751  0.2114  0.1327  0.0602
  548loPI    C3 8755  10.264  15.985   9.705  0.1102  0.2886  0.0294
  548loPI   PO4 8756  10.686  16.008   9.253 -0.4057  0.1347 -0.2309
  548loPI   GL1 8757  10.690  15.965   8.883  0.1259 -0.2845 -0.1102
  548loPI   GL2 8758  10.372  15.694   8.925  0.1035 -0.0901  0.0554
  548loPI   C1A 8759  10.695  15.914   8.444 -0.0800  0.1763  0.4649
  548loPI   C2A 8760  10.520  15.809   8.242  0.3165  0.3498  0.0024
  548loPI   C3A 8761  10.276  15.768   7.860 -0.3196 -0.4213  0.1390
  548loPI   C4A 8762  10.344  15.561   7.569  0.0047 -0.2500 -0.1562
  548loPI   C5A 8763  10.478  15.263   7.242  0.0386 -0.1017 -0.2116
  548loPI   C6A 8764  10.771  15.055   7.050  0.2037 -0.2219  0.0803
  548loPI   C1B 8765  10.029  15.768   8.701  0.1942  0.2617  0.1755
  548loPI   C2B 8766   9.877  15.889   8.314  0.2763  0.0249 -0.0603
  548loPI   C3B 8767   9.759  15.666   7.916 -0.2235  0.0135  0.0858
  548loPI   C4B 8768   9.601  15.547   7.503  0.0206 -0.0810  0.0315
  549loPI    C1 8769   1.267   0.850  10.497 -0.4148 -0.0058  0.3923
  549loPI    C2 8770   1.576   0.628  10.619 -0.3148 -0.0493  0.0708
  549loPI    C3 8771   1.474   0.957  10.822  0.1407  0.1388  0.0079
  549loPI   PO4 8772   1.291   0.834  10.247 -0.0781 -0.1761  0.5492
  549loPI   GL1 8773   1.037   0.663   9.956 -0.0440  0.0669 -0.3130
  549loPI   GL2 8774   0.711   0.817   9.882 -0.1483  0.0770  0.0036
  549loPI   C1A 8775   1.303   0.615   9.673 -0.2493  0.1465  0.2758
  549loPI   C2A 8776   1.685   0.651   9.311 -0.1427  0.0276 -0.0462
  549loPI   C3A 8777   2.011   0.852   9.047  0.1554  0.2038  0.3987
  549loPI   C4A 8778   1.981   0.898   8.604  0.2353 -0.2151 -0.0944
  549loPI   C5A 8779   1.717   0.805   8.191  0.1663  0.1553  0.0296
  549loPI   C6A 8780   1.488   0.430   8.066 -0.1297 -0.1296 -0.0939
  549loPI   C1B 8781   0.940   1.025   9.600 -0.0931  0.1267  0.2148
  549loPI   C2B 8782   1.171   0.906   9.273  0.0274 -0.0811  0.1162
  549loPI   C3B 8783   1.092   1.126   8.893  0.0119 -0.1368 -0.0065
  549loPI   C4B 8784   1.020   1.240   8.555  0.0185  0.0124 -0.1053
  550loPI    C1 8785  11.929   2.821   9.835 -0.0598 -0.0157 -0.1819
  550loPI    C2 8786  11.810   2.449   9.750 -0.1244 -0.0439  0.0277
  550loPI    C3 8787  11.990   2.527  10.099  0.1279  0.0723 -0.1255
  550loPI   PO4 8788  12.063   2.916   9.627 -0.1578  0.2808  0.1833
  550loPI   GL1 8789  12.042   3.015   9.200 -0.3018  0.1179  0.3567
  550loPI   GL2 8790  12.395   2.823   9.061 -0.0776 -0.0951 -0.0120
  550loPI   C1A 8791  12.141   3.223   8.773 -0.0790 -0.2089 -0.2013
  550loPI   C2A 8792  12.340   3.455   8.420  0.2059 -0.2554 -0.0965
  550loPI   C3A 8793  12.276   3.499   8.060 -0.1767 -0.1626  0.3565
  550loPI   C4A 8794  12.237   3.662   7.658  0.2569 -0.0755 -0.1969
  550loPI   C5A 8795  12.236   3.781   7.266  0.5098  0.1270 -0.1264
  550loPI   C6A 8796  11.922   3.772   7.057 -0.1321 -0.0940  0.4323
  550loPI   C1B 8797  12.742   2.673   8.930  0.1784 -0.0282 -0.0480
  550loPI   C2B 8798  13.004   2.444   8.872 -0.1172  0.4848 -0.0642
  550loPI   C3B 8799  13.277   2.767   8.827 -0.0109 -0.1240  0.0541
  550loPI   C4B 8800  13.426   3.108   8.550  0.2875  0.1129 -0.1394
  551loPI    C1 8801   9.755   5.802  10.177  0.0887  0.2348 -0.0242
  551loPI    C2 8802  10.130   5.888  10.286  0.1208  0.0030  0.0540
  551loPI    C3 8803   9.841   5.875  10.561  0.1472 -0.2948  0.0707
  551loPI   PO4 8804   9.828   5.964   9.904  0.0067 -0.0463  0.1341
  551loPI   GL1 8805   9.997   6.205   9.426 -0.3854 -0.2740  0.0713
  551loPI   GL2 8806   9.768   6.410   9.332 -0.1070 -0.2321 -0.0520
  551loPI   C1A 8807  10.256   6.010   9.307  0.0017 -0.1234  0.0118
  551loPI   C2A 8808  10.493   5.971   8.962  0.0115  0.0498 -0.1125
  551loPI   C3A 8809  10.442   5.973   8.582 -0.0402 -0.1584 -0.0744
  551loPI   C4A 8810  10.598   5.814   8.192  0.1034  0.1155 -0.0375
  551loPI   C5A 8811  10.941   5.587   7.930  0.0084 -0.3244 -0.0084
  551loPI   C6A 8812  11.051   5.193   8.034 -0.2616  0.1696  0.0741
  551loPI   C1B 8813   9.786   6.285   8.884  0.0719 -0.1380  0.3555
  551loPI   C2B 8814   9.641   6.082   8.518  0.1589 -0.0002  0.0257
  551loPI   C3B 8815   9.650   5.660   8.199  0.4698  0.1694  0.1506
  551loPI   C4B 8816   9.393   5.318   8.141 -0.1089 -0.0917 -0.2812
  552loPI    C1 8817  16.633  16.349   9.134 -0.0152 -0.2324  0.2633
  552loPI    C2 8818  16.629  16.377   9.533  0.0183  0.1764  0.2394
  552loPI    C3 8819  16.963  16.460   9.329 -0.0829  0.2664  0.1084
  552loPI   PO4 8820  16.556  16.147   9.066 -0.1757  0.1836  0.4011
  552loPI   GL1 8821  16.662  15.956   8.718  0.2666  0.0447 -0.1187
  552loPI   GL2 8822  16.430  15.980   8.565 -0.0187 -0.3641  0.1401
  552loPI   C1A 8823  17.062  15.975   8.472 -0.2087  0.1417  0.0728
  552loPI   C2A 8824  17.189  16.030   8.052 -0.1183 -0.1149  0.1515
  552loPI   C3A 8825  17.245  16.170   7.676 -0.2500  0.2202  0.0755
  552loPI   C4A 8826  17.307  16.195   7.317  0.2306 -0.0211 -0.0442
  552loPI   C5A 8827  17.172  15.886   7.030 -0.0298  0.1405  0.2446
  552loPI   C6A 8828  16.947  15.577   6.710 -0.4241  0.0974  0.3897
  552loPI   C1B 8829  16.190  16.120   8.209 -0.2876  0.1785  0.2017
  552loPI   C2B 8830  16.302  16.258   7.829  0.0903  0.0997 -0.0706
  552loPI   C3B 8831  16.236  16.313   7.420  0.2745 -0.0535 -0.0374
  552loPI   C4B 8832  16.576  16.372   7.097  0.1209 -0.1530 -0.1655
  553loPI    C1 8833  18.080  11.274   9.785  0.2581  0.1423 -0.2648
  553loPI    C2 8834  18.476  11.299   9.836  0.2569  0.0209 -0.1901
  553loPI    C3 8835  18.229  11.418  10.127  0.2411 -0.0827 -0.1607
  553loPI   PO4 8836  18.009  11.365   9.566 -0.1827 -0.0312 -0.0203
  553loPI   GL1 8837  17.862  11.482   9.156 -0.0734  0.1446 -0.1749
  553loPI   GL2 8838  18.242  11.645   9.125  0.2591  0.0816 -0.4136
  553loPI   C1A 8839  17.754  11.566   8.823 -0.0945 -0.1555 -0.0969
  553loPI   C2A 8840  18.071  11.920   8.580 -0.3544 -0.1566  0.0624
  553loPI   C3A 8841  18.345  12.068   8.240 -0.0547  0.2374  0.2446
  553loPI   C4A 8842  18.538  11.955   7.860 -0.2659  0.1509  0.0825
  553loPI   C5A 8843  18.633  11.935   7.417 -0.4442  0.0751 -0.1518
  553loPI   C6A 8844  18.781  12.260   7.163 -0.1604  0.1629  0.1228
  553loPI   C1B 8845  18.306  11.453   8.784 -0.3101  0.2008 -0.1889
  553loPI   C2B 8846  18.204  11.483   8.314  0.2348  0.2140 -0.0231
  553loPI   C3B 8847  18.165  11.244   7.971  0.3449  0.3826 -0.2814
  553loPI   C4B 8848  18.321  10.808   8.012 -0.2161 -0.0044  0.1280
  554loPI    C1 8849  12.218  16.276   9.577  0.2245  0.1784 -0.0717
  554loPI    C2 8850  12.556  16.096   9.691  0.1630  0.0880 -0.0308
  554loPI    C3 8851  12.240  16.103   9.937  0.0331 -0.0983 -0.1895
  554loPI   PO4 8852  12.224  16.232   9.303 -0.0086  0.4053 -0.0298
  554loPI   GL1 8853  12.570  16.435   8.981 -0.0981 -0.0947  0.0659
  554loPI   GL2 8854  12.444  16.102   8.731  0.2089 -0.1633 -0.3187
  554loPI   C1A 8855  12.492  16.545   8.480  0.0097 -0.2617  0.0826
  554loPI   C2A 8856  12.416  16.619   8.123 -0.0850  0.2857  0.1877
  554loPI   C3A 8857  12.453  16.644   7.749  0.2074 -0.1281 -0.0872
  554loPI   C4A 8858  12.488  16.555   7.257  0.3800  0.1530  0.1037
  554loPI   C5A 8859  12.590  16.134   7.021 -0.1048  0.0591 -0.0458
  554loPI   C6A 8860  12.905  15.975   6.944  0.0399  0.2480  0.1525
  554loPI   C1B 8861  12.168  16.146   8.379  0.0686  0.0924 -0.1967
  554loPI   C2B 8862  12.223  16.134   7.905 -0.2619  0.0777 -0.3038
  554loPI   C3B 8863  12.507  16.158   7.570 -0.3217  0.2286  0.1337
  554loPI   C4B 8864  12.769  15.796   7.375 -0.0494  0.0035  0.0029
  555loPI    C1 8865   9.493  12.433   9.457  0.0979 -0.2320 -0.2778
  555loPI    C2 8866   9.543  12.790   9.284 -0.0920  0.0019  0.1370
  555loPI    C3 8867   9.781  12.678   9.586 -0.0712 -0.1989  0.0474
  555loPI   PO4 8868   9.293  12.346   9.372 -0.0152 -0.5406  0.1834
  555loPI   GL1 8869   9.240  12.196   9.019  0.2082 -0.3376 -0.3881
  555loPI   GL2 8870   9.578  12.442   8.897  0.1012  0.0398 -0.2956
  555loPI   C1A 8871   9.295  12.073   8.519  0.0261  0.0797 -0.1965
  555loPI   C2A 8872   9.370  12.178   8.068  0.0555  0.2816 -0.0068
  555loPI   C3A 8873   9.714  12.283   7.760 -0.0190  0.2767 -0.6333
  555loPI   C4A 8874  10.057  12.304   7.499  0.3847  0.0037 -0.2967
  555loPI   C5A 8875  10.447  12.417   7.381 -0.1153 -0.1136  0.2934
  555loPI   C6A 8876  10.872  12.458   7.134  0.1881 -0.0526 -0.0088
  555loPI   C1B 8877   9.803  12.465   8.546  0.2530 -0.0768 -0.2058
  555loPI   C2B 8878   9.732  12.621   8.155 -0.0980  0.0685  0.1217
  555loPI   C3B 8879   9.836  12.794   7.730  0.0638 -0.2807 -0.0633
  555loPI   C4B 8880  10.058  13.195   7.506 -0.1258  0.0030  0.0405
  556loPI    C1 8881   9.187   4.344   9.794 -0.0603  0.1209  0.0752
  556loPI    C2 8882   8.862   4.260   9.577  0.0920  0.0618 -0.1327
  556loPI    C3 8883   8.824   4.365   9.961 -0.1564 -0.1727 -0.0901
  556loPI   PO4 8884   9.298   4.519   9.729  0.1593  0.0519  0.0495
  556loPI   GL1 8885   9.531   4.650   9.373  0.0886 -0.5711  0.3455
  556loPI   GL2 8886   9.113   4.609   9.231  0.2793  0.3074  0.3463
  556loPI   C1A 8887   9.509   4.695   8.966  0.3521 -0.0908  0.1426
  556loPI   C2A 8888   9.145   4.651   8.763  0.1124  0.0116 -0.0975
  556loPI   C3A 8889   8.968   4.494   8.347  0.1499  0.0023  0.1392
  556loPI   C4A 8890   8.929   4.328   7.927  0.2130 -0.0617  0.2178
  556loPI   C5A 8891   9.083   4.107   7.600  0.3955  0.6462  0.1500
  556loPI   C6A 8892   8.839   4.031   7.190  0.4066  0.0022 -0.2187
  556loPI   C1B 8893   8.653   4.748   9.061 -0.1443  0.3023  0.0279
  556loPI   C2B 8894   8.316   4.933   9.010 -0.0778 -0.4085 -0.1985
  556loPI   C3B 8895   7.834   4.983   8.847  0.0366  0.0096 -0.2717
  556loPI   C4B 8896   7.667   5.172   8.499 -0.0205  0.1595 -0.0039
  557loPI    C1 8897  12.683   1.440   9.584 -0.1966 -0.1549 -0.1236
  557loPI    C2 8898  12.366   1.629   9.738 -0.0553  0.0145 -0.0369
  557loPI    C3 8899  12.339   1.243   9.637 -0.1927 -0.0622  0.2810
  557loPI   PO4 8900  12.797   1.593   9.403  0.1582  0.2886 -0.1760
  557loPI   GL1 8901  12.700   1.572   8.972  0.3210 -0.2910  0.2593
  557loPI   GL2 8902  12.748   1.970   8.890 -0.1981 -0.0063  0.0823
  557loPI   C1A 8903  12.642   1.688   8.481 -0.2664  0.1833  0.0351
  557loPI   C2A 8904  12.711   1.791   8.076  0.1857  0.4256 -0.0614
  557loPI   C3A 8905  12.731   2.132   7.975 -0.3115 -0.0046 -0.0512
  557loPI   C4A 8906  13.016   2.259   7.682  0.3172 -0.0230 -0.0642
  557loPI   C5A 8907  13.196   2.289   7.259  0.0836  0.2971 -0.0848
  557loPI   C6A 8908  13.183   2.441   6.858 -0.4089 -0.3072 -0.6382
  557loPI   C1B 8909  13.078   2.002   8.614  0.0810  0.0961 -0.2183
  557loPI   C2B 8910  13.187   2.361   8.241  0.2396 -0.1337  0.0255
  557loPI   C3B 8911  13.461   2.382   8.009  0.0429  0.0325  0.1544
  557loPI   C4B 8912  13.540   2.200   7.618 -0.1994  0.2610 -0.0659
  558loPI    C1 8913  17.695   8.985  10.152 -0.1358  0.0863  0.1504
  558loPI    C2 8914  17.750   9.254  10.442  0.1081 -0.1061  0.2857
  558loPI    C3 8915  17.454   8.987  10.472 -0.1272  0.1359  0.1567
  558loPI   PO4 8916  17.769   9.233   9.932 -0.0104  0.1025  0.3393
  558loPI   GL1 8917  17.728   9.307   9.648 -0.0089  0.1231  0.0056
  558loPI   GL2 8918  17.770   9.625   9.423 -0.1213  0.0028 -0.0531
  558loPI   C1A 8919  18.044   8.918   9.409  0.4492 -0.0533  0.3470
  558loPI   C2A 8920  18.326   8.773   9.085 -0.0302 -0.0683  0.0595
  558loPI   C3A 8921  18.526   8.775   8.691 -0.1888  0.2494 -0.2461
  558loPI   C4A 8922  18.378   8.966   8.325  0.1874  0.2341  0.0320
  558loPI   C5A 8923  18.368   8.917   7.818 -0.3698  0.1171 -0.0052
  558loPI   C6A 8924  18.267   8.765   7.464 -0.0415  0.3032 -0.2309
  558loPI   C1B 8925  17.538   9.451   9.124  0.0137  0.2477 -0.3898
  558loPI   C2B 8926  17.535   9.332   8.761  0.1901 -0.0651 -0.0884
  558loPI   C3B 8927  17.309   9.117   8.457 -0.0494  0.2896  0.1078
  558loPI   C4B 8928  17.135   8.744   8.352 -0.1281  0.1335 -0.3934
  559loPI    C1 8929   4.816   8.187  10.160  0.0263 -0.0286 -0.3557
  559loPI    C2 8930   4.602   8.383  10.435  0.0699 -0.1962 -0.2005
  559loPI    C3 8931   4.595   7.983  10.424  0.1956 -0.1953 -0.3403
  559loPI   PO4 8932   4.787   8.303   9.932  0.0383 -0.0434  0.1978
  559loPI   GL1 8933   4.576   8.123   9.565 -0.0230  0.1586  0.3562
  559loPI   GL2 8934   4.214   8.041   9.518 -0.0758 -0.1166  0.2027
  559loPI   C1A 8935   4.514   8.180   9.115  0.1609  0.3694  0.0553
  559loPI   C2A 8936   4.309   8.205   8.654 -0.1180  0.0674 -0.2002
  559loPI   C3A 8937   4.155   8.558   8.382  0.0585  0.2782 -0.0152
  559loPI   C4A 8938   4.245   8.736   7.991  0.0469  0.2980 -0.3511
  559loPI   C5A 8939   4.094   8.554   7.651  0.0241  0.1086  0.0968
  559loPI   C6A 8940   3.962   8.257   7.300 -0.0835 -0.5882  0.0746
  559loPI   C1B 8941   3.963   8.070   9.174  0.1565 -0.0448 -0.1836
  559loPI   C2B 8942   3.970   7.877   8.733  0.5038  0.0114  0.0046
  559loPI   C3B 8943   3.839   7.694   8.273  0.1725 -0.1022  0.1635
  559loPI   C4B 8944   3.902   7.751   7.896  0.0915  0.0648 -0.1646
  560loPI    C1 8945   9.801   1.513   9.794 -0.1410 -0.0388  0.1628
  560loPI    C2 8946  10.119   1.359   9.608 -0.3177  0.0555 -0.2279
  560loPI    C3 8947  10.150   1.707   9.801 -0.1469 -0.0138 -0.1274
  560loPI   PO4 8948   9.621   1.266   9.682  0.0467 -0.5572  0.1525
  560loPI   GL1 8949   9.728   1.034   9.271  0.0418  0.0881  0.1666
  560loPI   GL2 8950   9.762   0.725   9.046 -0.0971  0.0619 -0.2435
  560loPI   C1A 8951   9.714   1.175   8.815  0.3365  0.3697 -0.1047
  560loPI   C2A 8952   9.495   1.214   8.414  0.0251  0.0195  0.0286
  560loPI   C3A 8953   9.440   1.321   8.024 -0.3339 -0.1945 -0.0425
  560loPI   C4A 8954   9.459   1.521   7.716  0.1977  0.0165 -0.0555
  560loPI   C5A 8955   9.357   1.646   7.250 -0.2574 -0.0285  0.1124
  560loPI   C6A 8956   9.497   1.956   6.884 -0.2248  0.2359  0.3472
  560loPI   C1B 8957   9.624   0.721   8.553  0.1293 -0.1559 -0.0042
  560loPI   C2B 8958   9.674   0.863   8.075  0.0761  0.0495  0.0751
  560loPI   C3B 8959   9.938   0.749   7.726 -0.0819  0.0228  0.0200
  560loPI   C4B 8960  10.305   0.428   7.543  0.0407 -0.1013  0.0268
  561loPI    C1 8961  15.882  13.725   9.162 -0.2859 -0.0869 -0.0593
  561loPI    C2 8962  15.836  13.445   9.444 -0.0504  0.0187  0.0873
  561loPI    C3 8963  16.139  13.705   9.468 -0.0646  0.0689 -0.2314
  561loPI   PO4 8964  15.883  13.676   8.894  0.0616 -0.3507  0.1541
  561loPI   GL1 8965  16.307  13.602   8.661  0.0265  0.0809  0.1448
  561loPI   GL2 8966  16.650  13.715   8.701 -0.1161  0.1506 -0.3208
  561loPI   C1A 8967  16.298  13.311   8.362  0.3266  0.1052  0.0677
  561loPI   C2A 8968  16.171  13.296   7.914  0.1041  0.3110  0.1943
  561loPI   C3A 8969  15.736  13.343   7.673 -0.0145 -0.0403 -0.1931
  561loPI   C4A 8970  15.548  13.623   7.405 -0.0515  0.1739  0.1308
  561loPI   C5A 8971  15.493  13.923   7.085 -0.0223 -0.0901  0.1898
  561loPI   C6A 8972  15.551  14.162   6.645  0.2507 -0.1063  0.5062
  561loPI   C1B 8973  16.620  13.750   8.246 -0.1843  0.2211 -0.0477
  561loPI   C2B 8974  16.626  13.713   7.974  0.5323 -0.0862 -0.0454
  561loPI   C3B 8975  16.865  13.760   7.681  0.1819  0.1115  0.3109
  561loPI   C4B 8976  16.743  13.801   7.186  0.0665 -0.0044  0.2687
  562loPI    C1 8977  15.370  17.946   9.550 -0.1256  0.0504 -0.0179
  562loPI    C2 8978  14.981  18.015   9.613 -0.0924  0.0676  0.1774
  562loPI    C3 8979  15.202  17.842   9.898  0.0497  0.0826  0.0780
  562loPI   PO4 8980  15.308  17.882   9.187  0.4070 -0.2192 -0.0979
  562loPI   GL1 8981  14.978  17.844   8.832 -0.4266 -0.1951 -0.0705
  562loPI   GL2 8982  14.817  17.588   8.723  0.0146  0.3218 -0.0027
  562loPI   C1A 8983  15.095  18.068   8.384  0.0886 -0.0358  0.2003
  562loPI   C2A 8984  15.024  18.208   8.065 -0.1167 -0.1920  0.2804
  562loPI   C3A 8985  15.023  18.095   7.658  0.1697 -0.0830 -0.1108
  562loPI   C4A 8986  14.988  18.101   7.226  0.1195  0.2258 -0.0479
  562loPI   C5A 8987  14.701  18.469   7.080 -0.1794 -0.0861 -0.0605
  562loPI   C6A 8988  14.324  18.697   6.855  0.1587 -0.1706  0.1653
  562loPI   C1B 8989  15.002  17.528   8.341 -0.1217  0.1610  0.0882
  562loPI   C2B 8990  15.018  17.661   7.959  0.0958 -0.0109  0.2875
  562loPI   C3B 8991  14.946  17.597   7.573 -0.1194 -0.0807 -0.3095
  562loPI   C4B 8992  14.798  17.650   7.229  0.0189  0.5618  0.3213
  563loPI    C1 8993  15.659   9.247   9.427 -0.0579 -0.0499 -0.0789
  563loPI    C2 8994  15.757   9.026   9.746  0.3848  0.2352 -0.0092
  563loPI    C3 8995  15.413   9.231   9.742  0.2264 -0.0233  0.1485
  563loPI   PO4 8996  15.695   9.064   9.220 -0.1204  0.0286 -0.2936
  563loPI   GL1 8997  15.765   8.969   8.783 -0.2447 -0.1340 -0.0706
  563loPI   GL2 8998  15.785   8.611   8.919  0.0638  0.0726  0.2937
  563loPI   C1A 8999  15.600   9.109   8.317 -0.1268 -0.3597 -0.2919
  563loPI   C2A 9000  15.610   9.097   7.889  0.0064 -0.5073  0.0333
  563loPI   C3A 9001  15.871   9.067   7.564  0.2494 -0.2451 -0.1508
  563loPI   C4A 9002  16.299   9.108   7.384 -0.1435  0.1000 -0.0856
  563loPI   C5A 9003  16.619   8.956   7.051 -0.1916  0.2691  0.1856
  563loPI   C6A 9004  16.977   8.916   6.867 -0.4129  0.1114 -0.0927
  563loPI   C1B 9005  15.888   8.596   8.504  0.1416 -0.0208 -0.1637
  563loPI   C2B 9006  15.995   8.749   7.964  0.0239 -0.1134 -0.0108
  563loPI   C3B 9007  16.151   8.669   7.526  0.0642  0.0208 -0.1636
  563loPI   C4B 9008  16.318   8.563   7.174  0.2363 -0.0725 -0.0475
  564loPI    C1 9009  11.422   0.687   9.400 -0.0403 -0.1559  0.0339
  564loPI    C2 9010  11.553   0.973   9.647  0.1790 -0.1492 -0.0874
  564loPI    C3 9011  11.507   0.598   9.780  0.1601 -0.1164 -0.0007
  564loPI   PO4 9012  11.540   0.670   9.239  0.3065  0.0073  0.0079
  564loPI   GL1 9013  11.382   0.741   8.906  0.0379 -0.0287 -0.1609
  564loPI   GL2 9014  11.622   0.671   8.768 -0.0818  0.2445  0.0300
  564loPI   C1A 9015  11.103   0.885   8.637  0.1501  0.1833  0.0801
  564loPI   C2A 9016  11.050   0.894   8.183  0.1136  0.0679  0.2446
  564loPI   C3A 9017  11.029   0.845   7.822  0.2740  0.1481 -0.4219
  564loPI   C4A 9018  10.797   0.794   7.391  0.0851 -0.3111  0.0462
  564loPI   C5A 9019  10.661   1.060   7.031 -0.2422 -0.3967  0.3946
  564loPI   C6A 9020  10.739   1.298   6.632 -0.0099  0.0347 -0.1706
  564loPI   C1B 9021  11.593   0.825   8.306 -0.0380  0.3942 -0.2091
  564loPI   C2B 9022  11.715   0.818   7.817  0.3464 -0.0058 -0.2212
  564loPI   C3B 9023  11.859   0.675   7.438 -0.2248  0.0422 -0.0653
  564loPI   C4B 9024  11.671   0.540   7.046 -0.0247  0.0880  0.0941
  565loPI    C1 9025   9.002   0.268   9.414 -0.0448  0.2833 -0.2153
  565loPI    C2 9026   8.997   0.580   9.664 -0.1449  0.0291  0.1075
  565loPI    C3 9027   9.198   0.248   9.763  0.1830  0.0814 -0.3510
  565loPI   PO4 9028   9.003   0.399   9.102 -0.3035  0.1894  0.2715
  565loPI   GL1 9029   8.721   0.354   8.785  0.1863 -0.0922  0.1712
  565loPI   GL2 9030   8.560   0.078   8.712 -0.2829 -0.2183 -0.0096
  565loPI   C1A 9031   8.365   0.585   8.632  0.0971  0.4191 -0.1643
  565loPI   C2A 9032   8.086   0.618   8.255  0.3480  0.0586 -0.0214
  565loPI   C3A 9033   7.832   0.458   8.001  0.1197  0.2086 -0.3264
  565loPI   C4A 9034   7.435   0.465   7.653 -0.0364 -0.3822  0.0476
  565loPI   C5A 9035   7.364   0.597   7.193  0.0799 -0.1385  0.0953
  565loPI   C6A 9036   7.343   0.796   6.799 -0.0868  0.2126 -0.0816
  565loPI   C1B 9037   8.579   0.272   8.239  0.0169  0.0714  0.2005
  565loPI   C2B 9038   8.352   0.439   7.898  0.0710 -0.1588  0.0599
  565loPI   C3B 9039   8.320   0.436   7.402 -0.3136 -0.1000  0.0985
  565loPI   C4B 9040   8.707   0.394   7.046  0.2693  0.1090 -0.4963
  566loPI    C1 9041   0.214  16.501  10.049 -0.1577  0.1043 -0.2966
  566loPI    C2 9042   0.579  16.663  10.069 -0.2209  0.2085  0.0897
  566loPI    C3 9043   0.538  16.266  10.044 -0.0810  0.1990  0.0013
  566loPI   PO4 9044   0.090  16.807   9.911  0.0357 -0.1502  0.4891
  566loPI   GL1 9045   0.227  17.066   9.606  0.2456 -0.4737 -0.0505
  566loPI   GL2 9046  -0.022  16.873   9.421 -0.0508 -0.0391 -0.0732
  566loPI   C1A 9047   0.256  17.250   9.131 -0.1011 -0.3010 -0.1500
  566loPI   C2A 9048   0.479  17.217   8.638 -0.2543 -0.3505  0.1388
  566loPI   C3A 9049   0.593  17.138   8.257 -0.2641 -0.0338 -0.1326
  566loPI   C4A 9050   0.798  16.896   7.971  0.0411 -0.1992  0.0666
  566loPI   C5A 9051   0.970  16.819   7.523 -0.0936  0.1401  0.2712
  566loPI   C6A 9052   1.058  17.177   7.146  0.0398  0.0801  0.1362
  566loPI   C1B 9053   0.239  16.561   9.137  0.0127 -0.1005 -0.1115
  566loPI   C2B 9054   0.340  16.412   8.800 -0.0286 -0.1545  0.1896
  566loPI   C3B 9055   0.322  16.660   8.467 -0.0432 -0.0605  0.0018
  566loPI   C4B 9056   0.291  16.785   7.988 -0.1466 -0.0511 -0.2205
  567loPI    C1 9057  18.448  12.785   9.458 -0.0487  0.0842 -0.0822
  567loPI    C2 9058  18.251  13.105   9.594  0.0014  0.0977 -0.0406
  567loPI    C3 9059  18.609  13.149   9.421  0.1585  0.0320  0.2619
  567loPI   PO4 9060  18.327  12.684   9.346 -0.0904  0.1071  0.3428
  567loPI   GL1 9061  18.656  12.745   9.031 -0.0084 -0.2237 -0.0145
  567loPI   GL2 9062  19.016  12.669   8.900 -0.2576  0.1000  0.1100
  567loPI   C1A 9063  18.563  12.870   8.743 -0.0024  0.0013 -0.1129
  567loPI   C2A 9064  18.809  13.123   8.413 -0.0949  0.1112 -0.1045
  567loPI   C3A 9065  18.780  13.326   7.999 -0.0024 -0.2848 -0.0278
  567loPI   C4A 9066  18.537  13.372   7.544  0.0475  0.3161 -0.2018
  567loPI   C5A 9067  18.687  13.061   7.330 -0.4365 -0.0906 -0.1509
  567loPI   C6A 9068  18.848  12.787   7.253  0.2495  0.3330 -0.2852
  567loPI   C1B 9069  19.095  12.647   8.540  0.1452 -0.0722 -0.2521
  567loPI   C2B 9070  19.401  12.408   8.274 -0.0622  0.1400 -0.0503
  567loPI   C3B 9071  19.421  12.267   7.855  0.0065 -0.3518  0.2068
  567loPI   C4B 9072  19.597  12.153   7.505  0.2591 -0.0251  0.0923
  568loPI    C1 9073   0.974  13.259   9.697 -0.0476 -0.0240  0.0090
  568loPI    C2 9074   0.973  13.627   9.852  0.3671 -0.1784  0.3988
  568loPI    C3 9075   0.720  13.351   9.993 -0.0536 -0.0094 -0.0007
  568loPI   PO4 9076   1.100  13.317   9.413 -0.1605 -0.2209 -0.1189
  568loPI   GL1 9077   0.975  13.476   9.103  0.2246  0.0112  0.1902
  568loPI   GL2 9078   0.843  13.757   9.145 -0.1018 -0.1160  0.1387
  568loPI   C1A 9079   0.927  13.313   8.653 -0.1713 -0.0576  0.1213
  568loPI   C2A 9080   0.982  13.380   8.186  0.1345 -0.2749  0.1803
  568loPI   C3A 9081   0.977  13.424   7.701  0.3319  0.0709 -0.0730
  568loPI   C4A 9082   1.040  13.318   7.351 -0.0598  0.4546 -0.0824
  568loPI   C5A 9083   0.956  13.086   7.052  0.1557 -0.0043 -0.0984
  568loPI   C6A 9084   1.054  13.017   6.659  0.0774  0.0260 -0.1469
  568loPI   C1B 9085   0.612  13.863   8.687  0.2456 -0.2224 -0.2130
  568loPI   C2B 9086   0.649  13.865   8.233 -0.1307  0.3302 -0.1432
  568loPI   C3B 9087   0.512  13.946   7.854  0.0983 -0.2042  0.2316
  568loPI   C4B 9088   0.372  14.132   7.408 -0.2196  0.1618 -0.0756
  569loPI    C1 9089  14.960  16.489   9.469  0.0005 -0.0455  0.0191
  569loPI    C2 9090  14.688  16.647   9.715 -0.0775  0.0616 -0.1340
  569loPI    C3 9091  15.075  16.653   9.815 -0.1131  0.0630  0.0061
  569loPI   PO4 9092  14.820  16.650   9.236  0.3437  0.0628 -0.0954
  569loPI   GL1 9093  14.829  16.757   8.825 -0.2735 -0.1442  0.1836
  569loPI   GL2 9094  14.752  16.600   8.551 -0.1334 -0.1549  0.2288
  569loPI   C1A 9095  15.044  16.980   8.475  0.1779 -0.1554  0.2850
  569loPI   C2A 9096  15.067  17.144   8.100 -0.2915 -0.1462  0.3856
  569loPI   C3A 9097  15.096  17.140   7.640  0.2266  0.1883 -0.3982
  569loPI   C4A 9098  15.137  17.245   7.253 -0.2079  0.0265  0.2753
  569loPI   C5A 9099  15.168  17.265   6.912 -0.1195  0.0512  0.2232
  569loPI   C6A 9100  15.253  17.111   6.520 -0.0322  0.2944 -0.1737
  569loPI   C1B 9101  14.789  16.581   8.189  0.0134 -0.3400 -0.1188
  569loPI   C2B 9102  14.924  16.718   7.799 -0.1541 -0.0893 -0.0650
  569loPI   C3B 9103  14.977  16.739   7.351  0.2555  0.0248  0.2671
  569loPI   C4B 9104  15.171  16.712   7.001 -0.1875  0.0665 -0.2273
  570loPI    C1 9105   5.675  10.299   9.834  0.1437  0.3680  0.2112
  570loPI    C2 9106   6.010  10.409  10.023  0.1874  0.0127  0.3487
  570loPI    C3 9107   5.924  10.021   9.978 -0.1012  0.0988  0.1251
  570loPI   PO4 9108   5.657  10.368   9.589 -0.1483  0.0181 -0.3333
  570loPI   GL1 9109   5.891  10.516   9.258 -0.1981 -0.1614  0.1789
  570loPI   GL2 9110   5.815  10.165   9.047 -0.2902 -0.2615  0.2615
  570loPI   C1A 9111   5.979  10.722   8.792 -0.1739  0.1526 -0.0401
  570loPI   C2A 9112   5.723  10.657   8.480 -0.2346 -0.2897  0.2413
  570loPI   C3A 9113   5.652  10.436   8.062 -0.0906  0.3586 -0.0421
  570loPI   C4A 9114   5.820  10.313   7.698  0.1023  0.2174 -0.2135
  570loPI   C5A 9115   5.723  10.152   7.290 -0.1516  0.2471  0.0400
  570loPI   C6A 9116   5.497  10.333   7.087  0.1975 -0.2542 -0.1611
  570loPI   C1B 9117   5.957  10.115   8.665  0.0375 -0.0998  0.1063
  570loPI   C2B 9118   6.223  10.054   8.317 -0.0397  0.0141 -0.0999
  570loPI   C3B 9119   6.422   9.995   7.959 -0.4039 -0.0115 -0.1424
  570loPI   C4B 9120   6.312   9.890   7.601 -0.2385 -0.0337  0.0670
  571loPI    C1 9121  14.784   8.028   9.596  0.0649  0.1764  0.0749
  571loPI    C2 9122  14.517   7.765   9.737  0.1214  0.0251 -0.0957
  571loPI    C3 9123  14.631   8.075   9.963 -0.0528 -0.0167  0.0524
  571loPI   PO4 9124  14.704   8.095   9.338 -0.1754  0.2689 -0.2073
  571loPI   GL1 9125  14.528   8.524   8.970 -0.1219  0.0545  0.1896
  571loPI   GL2 9126  14.775   8.427   8.917 -0.1377 -0.1785 -0.1656
  571loPI   C1A 9127  14.294   8.318   8.679  0.1089 -0.1196  0.1448
  571loPI   C2A 9128  14.182   8.127   8.261  0.0941  0.3323  0.0163
  571loPI   C3A 9129  14.157   7.801   8.172  0.3139  0.0087  0.2646
  571loPI   C4A 9130  14.346   7.482   7.840 -0.1857  0.0515 -0.4013
  571loPI   C5A 9131  14.246   7.348   7.472  0.1961 -0.3603 -0.2521
  571loPI   C6A 9132  14.254   6.968   7.281  0.0599  0.0346  0.2307
  571loPI   C1B 9133  14.938   8.382   8.576  0.3085  0.0803  0.0542
  571loPI   C2B 9134  15.071   8.412   8.227 -0.1924  0.4221 -0.1575
  571loPI   C3B 9135  15.230   8.236   7.859 -0.2098 -0.1349 -0.1196
  571loPI   C4B 9136  15.254   8.337   7.471  0.1145 -0.0035 -0.0290
  572loPI    C1 9137  14.387  14.822   9.325  0.1135  0.1330  0.1181
  572loPI    C2 9138  14.759  14.736   9.444  0.1309 -0.1544 -0.1314
  572loPI    C3 9139  14.457  14.492   9.541  0.0488 -0.0613 -0.1524
  572loPI   PO4 9140  14.375  14.852   9.138 -0.0998 -0.2066 -0.0362
  572loPI   GL1 9141  14.184  14.774   8.750 -0.1672 -0.0839  0.2966
  572loPI   GL2 9142  14.479  14.686   8.519  0.0353 -0.0220  0.0780
  572loPI   C1A 9143  14.125  15.057   8.358  0.0717  0.0783 -0.0096
  572loPI   C2A 9144  14.044  15.036   7.942  0.1842 -0.1403 -0.0853
  572loPI   C3A 9145  14.030  15.007   7.558 -0.0010 -0.2934  0.3375
  572loPI   C4A 9146  13.821  14.945   7.060 -0.0796  0.0322 -0.3741
  572loPI   C5A 9147  14.068  15.211   6.721 -0.4594 -0.2528  0.0661
  572loPI   C6A 9148  14.289  15.507   6.440  0.0377  0.0891 -0.1227
  572loPI   C1B 9149  14.233  14.536   8.186  0.2506  0.2770  0.2639
  572loPI   C2B 9150  13.979  14.584   7.867 -0.1448  0.1288  0.3306
  572loPI   C3B 9151  14.022  14.554   7.381 -0.1646  0.1784  0.1043
  572loPI   C4B 9152  13.788  14.244   7.144 -0.0284  0.1657 -0.1131
  573loPI    C1 9153  14.444   0.864   9.752 -0.0164 -0.0104 -0.0341
  573loPI    C2 9154  14.802   0.776   9.597 -0.0434 -0.0072 -0.0984
  573loPI    C3 9155  14.703   0.641   9.960  0.0436  0.0365 -0.0581
  573loPI   PO4 9156  14.302   0.816   9.529  0.1089  0.2637  0.3012
  573loPI   GL1 9157  14.633   0.625   9.145 -0.3337  0.0449 -0.0998
  573loPI   GL2 9158  15.016   0.645   9.122  0.1347  0.1960 -0.0992
  573loPI   C1A 9159  14.433   0.644   8.731  0.0152  0.2141 -0.3258
  573loPI   C2A 9160  14.547   0.688   8.277  0.3046 -0.1259  0.1844
  573loPI   C3A 9161  14.603   0.577   7.880  0.1206 -0.0107 -0.2024
  573loPI   C4A 9162  14.749   0.537   7.469  0.2476  0.0056  0.0163
  573loPI   C5A 9163  14.647   0.490   7.135  0.0082 -0.0929  0.2016
  573loPI   C6A 9164  14.787   0.224   6.912  0.2331 -0.0665  0.1778
  573loPI   C1B 9165  14.985   0.585   8.745 -0.1696  0.0559 -0.0308
  573loPI   C2B 9166  15.018   0.612   8.316 -0.0702 -0.1975 -0.0389
  573loPI   C3B 9167  15.108   0.473   7.819  0.1253  0.1261 -0.2006
  573loPI   C4B 9168  15.279   0.571   7.546  0.0012  0.3121  0.0615
  574loPI    C1 9169   3.558  12.804   9.607  0.0828  0.2131  0.1519
  574loPI    C2 9170   3.187  12.697   9.710  0.2128 -0.2302  0.1811
  574loPI    C3 9171   3.490  12.639   9.965  0.3152  0.0655  0.1306
  574loPI   PO4 9172   3.575  12.682   9.430 -0.0515  0.0826 -0.3109
  574loPI   GL1 9173   3.585  12.528   9.061 -0.0417  0.0404 -0.0288
  574loPI   GL2 9174   3.394  12.337   8.876 -0.2831 -0.2505 -0.0047
  574loPI   C1A 9175   3.742  12.462   8.638 -0.0973 -0.0028  0.1214
  574loPI   C2A 9176   3.775  12.581   8.247 -0.1663 -0.1300  0.2302
  574loPI   C3A 9177   3.732  12.486   7.863 -0.0477  0.1168  0.1252
  574loPI   C4A 9178   3.862  12.564   7.438  0.0983 -0.1894  0.2857
  574loPI   C5A 9179   4.150  12.716   7.230 -0.1553  0.2262 -0.2219
  574loPI   C6A 9180   4.618  12.470   7.225  0.0907  0.1661 -0.2400
  574loPI   C1B 9181   3.328  12.336   8.453  0.2178 -0.0245  0.1443
  574loPI   C2B 9182   3.066  12.313   8.189 -0.4099  0.3879 -0.2653
  574loPI   C3B 9183   2.765  12.147   7.933 -0.3151 -0.1056  0.1471
  574loPI   C4B 9184   2.717  12.114   7.498 -0.1958 -0.1211  0.0515
  575loPI    C1 9185  16.001  13.160   8.772  0.0656  0.0425 -0.0903
  575loPI    C2 9186  16.397  13.121   8.811  0.0459  0.0538  0.1344
  575loPI    C3 9187  16.182  13.288   9.105 -0.1407 -0.0587  0.0639
  575loPI   PO4 9188  15.949  12.907   8.808 -0.0575  0.3546 -0.2266
  575loPI   GL1 9189  16.033  12.693   8.496 -0.0985 -0.0574 -0.0928
  575loPI   GL2 9190  16.412  12.773   8.454 -0.1440  0.2075  0.1161
  575loPI   C1A 9191  15.860  12.972   8.246 -0.0294 -0.0160  0.3756
  575loPI   C2A 9192  15.469  13.053   8.111 -0.0039 -0.2479  0.4780
  575loPI   C3A 9193  15.490  12.849   7.713  0.1747  0.3931  0.0591
  575loPI   C4A 9194  15.336  12.889   7.309 -0.0664 -0.1958 -0.1357
  575loPI   C5A 9195  15.620  13.140   6.988  0.1212 -0.0126 -0.0673
  575loPI   C6A 9196  16.029  13.353   6.907  0.0076 -0.2342 -0.1661
  575loPI   C1B 9197  16.438  12.779   8.078  0.0141  0.0983  0.0854
  575loPI   C2B 9198  16.369  12.694   7.619  0.3126 -0.0672  0.0156
  575loPI   C3B 9199  16.164  12.510   7.175 -0.1542 -0.2438  0.1192
  575loPI   C4B 9200  16.190  12.275   6.757 -0.1165 -0.4238  0.1755
  576loPI    C1 9201  13.272  10.623   9.855 -0.2551  0.1283 -0.1239
  576loPI    C2 9202  12.961  10.578  10.102 -0.2317 -0.0722 -0.1290
  576loPI    C3 9203  13.194  10.265  10.016  0.1310  0.1319  0.0844
  576loPI   PO4 9204  13.163  10.689   9.597 -0.1788 -0.0092  0.0014
  576loPI   GL1 9205  12.874  10.658   9.312 -0.0762  0.2159 -0.2794
  576loPI   GL2 9206  13.172  10.506   9.058  0.2302  0.2669 -0.1387
  576loPI   C1A 9207  12.451  10.811   9.058  0.1498 -0.1004 -0.0718
  576loPI   C2A 9208  12.269  11.154   8.839  0.2271  0.1948 -0.0208
  576loPI   C3A 9209  12.086  11.139   8.479 -0.0913  0.0572  0.2591
  576loPI   C4A 9210  12.028  11.077   8.101  0.0007  0.2346  0.0377
  576loPI   C5A 9211  11.942  10.781   7.777  0.1832  0.0353 -0.0445
  576loPI   C6A 9212  11.737  10.737   7.251  0.0191 -0.1987 -0.2710
  576loPI   C1B 9213  13.209  10.190   8.811 -0.0139  0.1531 -0.0828
  576loPI   C2B 9214  13.447  10.152   8.349  0.2240  0.1890  0.2091
  576loPI   C3B 9215  13.515  10.140   7.889 -0.0250 -0.0707  0.0596
  576loPI   C4B 9216  13.437  10.187   7.418 -0.0200 -0.1434  0.3420
  577loPI    C1 9217   5.203  12.488   9.580  0.0323  0.1753  0.2668
  577loPI    C2 9218   4.852  12.375   9.736 -0.0616  0.1366  0.0308
  577loPI    C3 9219   5.183  12.164   9.814 -0.1546 -0.0360 -0.0342
  577loPI   PO4 9220   5.112  12.565   9.370  0.1888 -0.2797  0.0442
  577loPI   GL1 9221   5.380  12.580   9.091 -0.1353 -0.3342 -0.1053
  577loPI   GL2 9222   5.762  12.368   9.026  0.0915 -0.1951  0.0362
  577loPI   C1A 9223   5.462  12.490   8.629 -0.1175  0.0239 -0.0210
  577loPI   C2A 9224   5.634  12.421   8.157  0.3108 -0.0338 -0.0337
  577loPI   C3A 9225   5.546  12.192   7.720  0.1076 -0.0499 -0.2504
  577loPI   C4A 9226   5.244  11.940   7.499  0.0874 -0.1198 -0.0466
  577loPI   C5A 9227   5.153  11.660   7.223  0.0051  0.0210  0.0706
  577loPI   C6A 9228   5.280  11.561   6.801 -0.0951  0.1762  0.1123
  577loPI   C1B 9229   6.000  12.375   8.622  0.4857 -0.3070 -0.0103
  577loPI   C2B 9230   6.079  12.683   8.182 -0.2670  0.3535  0.0047
  577loPI   C3B 9231   5.985  12.574   7.706 -0.1502 -0.3870 -0.0703
  577loPI   C4B 9232   5.956  12.206   7.336  0.0063  0.0733 -0.2254
  578loPI    C1 9233   1.728   1.405  10.546  0.0500  0.0729 -0.1574
  578loPI    C2 9234   1.753   1.369  10.944 -0.0079 -0.2162 -0.1778
  578loPI    C3 9235   1.418   1.508  10.776  0.0203 -0.0845 -0.1253
  578loPI   PO4 9236   1.683   1.193  10.413  0.0015 -0.1889  0.1841
  578loPI   GL1 9237   1.528   1.223  10.025 -0.0361  0.1536 -0.0578
  578loPI   GL2 9238   1.600   0.957   9.715 -0.1444 -0.0615  0.3590
  578loPI   C1A 9239   1.388   1.414   9.644  0.0162  0.3701 -0.0606
  578loPI   C2A 9240   1.190   1.382   9.305  0.0073 -0.0982  0.0927
  578loPI   C3A 9241   1.457   1.517   8.966 -0.4967  0.1207 -0.1947
  578loPI   C4A 9242   1.497   1.538   8.520 -0.2489 -0.2265 -0.2730
  578loPI   C5A 9243   1.644   1.304   8.222 -0.4023  0.0674 -0.0992
  578loPI   C6A 9244   1.582   1.279   7.751  0.1356 -0.0882 -0.1555
  578loPI   C1B 9245   1.700   1.136   9.308  0.2427 -0.0764 -0.0938
  578loPI   C2B 9246   1.521   0.975   8.947  0.0571  0.0304 -0.1479
  578loPI   C3B 9247   1.424   0.905   8.547 -0.0893 -0.0765 -0.2457
  578loPI   C4B 9248   1.234   1.017   8.166  0.1605  0.1467 -0.2215
  579loPI    C1 9249   6.180  14.391   9.744  0.0287  0.4210  0.2755
  579loPI    C2 9250   6.186  14.013   9.873 -0.1126  0.3108 -0.0302
  579loPI    C3 9251   6.065  14.306  10.117 -0.2048  0.1319  0.1418
  579loPI   PO4 9252   6.036  14.354   9.478  0.2372 -0.0157 -0.0676
  579loPI   GL1 9253   5.881  14.642   9.091 -0.1555  0.0368 -0.1163
  579loPI   GL2 9254   5.924  14.296   8.968 -0.1193 -0.0244 -0.4713
  579loPI   C1A 9255   5.467  14.603   9.164 -0.1027  0.0383  0.4444
  579loPI   C2A 9256   5.172  14.529   8.793 -0.2068  0.1582  0.1647
  579loPI   C3A 9257   4.881  14.500   8.460 -0.1523  0.1075  0.1578
  579loPI   C4A 9258   4.885  14.187   8.164 -0.0460 -0.2446  0.1153
  579loPI   C5A 9259   5.213  14.074   7.992 -0.1091 -0.1908 -0.0245
  579loPI   C6A 9260   5.472  13.899   7.700  0.3083  0.1402  0.3138
  579loPI   C1B 9261   5.721  14.409   8.698  0.1552  0.0297  0.2233
  579loPI   C2B 9262   5.829  14.396   8.272 -0.3218  0.0047  0.0957
  579loPI   C3B 9263   5.666  14.320   7.853 -0.0593 -0.1769 -0.1021
  579loPI   C4B 9264   5.841  14.123   7.508  0.2329  0.3514 -0.3127
  580loPI    C1 9265   8.233  11.135   9.665  0.1593  0.0896 -0.1874
  580loPI    C2 9266   8.334  10.773   9.801 -0.2395  0.0782  0.0958
  580loPI    C3 9267   8.505  11.099   9.956  0.1202  0.0169 -0.1597
  580loPI   PO4 9268   8.062  11.077   9.492  0.2895 -0.1530 -0.0278
  580loPI   GL1 9269   7.993  10.746   9.169  0.1689  0.0477  0.3059
  580loPI   GL2 9270   8.166  10.527   9.378  0.2438 -0.2587 -0.0288
  580loPI   C1A 9271   8.012  10.954   8.779 -0.0733 -0.0505  0.2277
  580loPI   C2A 9272   7.891  10.886   8.281 -0.1145 -0.0506 -0.1521
  580loPI   C3A 9273   7.767  10.737   7.825 -0.1796 -0.2611 -0.0578
  580loPI   C4A 9274   7.694  11.020   7.533  0.1851  0.2364 -0.4963
  580loPI   C5A 9275   7.924  11.300   7.308  0.2312  0.3046  0.2616
  580loPI   C6A 9276   8.320  11.264   7.227  0.1380  0.0814  0.2061
  580loPI   C1B 9277   8.398  10.559   8.934 -0.0439 -0.0971  0.1621
  580loPI   C2B 9278   8.305  10.573   8.508  0.4301  0.0458  0.3009
  580loPI   C3B 9279   8.226  10.647   8.076 -0.3441  0.0291  0.1052
  580loPI   C4B 9280   8.146  10.608   7.539 -0.1211  0.0168 -0.2105
  581loPI    C1 9281   3.067  14.454  10.290  0.0619 -0.1892 -0.0479
  581loPI    C2 9282   2.771  14.194  10.217 -0.2496  0.0546  0.3121
  581loPI    C3 9283   2.934  14.215  10.582  0.1592 -0.0179  0.1388
  581loPI   PO4 9284   2.982  14.727  10.127  0.0068 -0.3646 -0.3242
  581loPI   GL1 9285   2.818  14.858   9.757  0.0190 -0.2210 -0.2753
  581loPI   GL2 9286   2.501  15.005   9.602 -0.0481 -0.0508  0.0240
  581loPI   C1A 9287   2.809  14.658   9.264 -0.1466 -0.1582 -0.0891
  581loPI   C2A 9288   2.796  14.803   8.873 -0.0034 -0.1054  0.0420
  581loPI   C3A 9289   2.847  14.745   8.442 -0.2734  0.0076  0.1114
  581loPI   C4A 9290   3.116  14.718   8.141 -0.0602 -0.0895  0.2524
  581loPI   C5A 9291   3.242  14.583   7.726 -0.2250  0.3561  0.1503
  581loPI   C6A 9292   3.171  14.568   7.221 -0.2800 -0.4895  0.4240
  581loPI   C1B 9293   2.397  15.127   9.235 -0.0474 -0.1933 -0.2954
  581loPI   C2B 9294   2.285  15.211   8.694 -0.1745  0.3183  0.4052
  581loPI   C3B 9295   2.420  15.004   8.283 -0.2933 -0.2534  0.0107
  581loPI   C4B 9296   2.378  15.070   7.860  0.0354 -0.0688 -0.0551
  582loPI    C1 9297   5.984  15.160   9.948  0.0112 -0.0026 -0.1204
  582loPI    C2 9298   5.923  14.782  10.063 -0.1808  0.0940  0.1037
  582loPI    C3 9299   6.140  15.028  10.292  0.0999  0.0716 -0.1316
  582loPI   PO4 9300   5.727  15.198   9.801 -0.0122  0.0575  0.0390
  582loPI   GL1 9301   5.624  15.092   9.358 -0.0273 -0.0281 -0.2984
  582loPI   GL2 9302   5.789  15.330   9.247  0.3564  0.1815  0.1355
  582loPI   C1A 9303   5.232  15.052   9.152  0.0677  0.2569 -0.0226
  582loPI   C2A 9304   5.000  15.037   8.776 -0.3008 -0.0673  0.1355
  582loPI   C3A 9305   5.137  14.940   8.399 -0.4012  0.0580  0.0289
  582loPI   C4A 9306   5.167  15.041   7.951  0.0563  0.0653 -0.0686
  582loPI   C5A 9307   5.008  14.891   7.449  0.0083  0.0339 -0.1069
  582loPI   C6A 9308   4.778  14.562   7.177 -0.0304  0.0892  0.1922
  582loPI   C1B 9309   5.687  15.094   8.902 -0.0591  0.1902 -0.0627
  582loPI   C2B 9310   5.677  14.919   8.523  0.3845  0.0125  0.1805
  582loPI   C3B 9311   5.700  14.835   8.012  0.1634  0.0046 -0.0510
  582loPI   C4B 9312   5.519  14.712   7.616  0.3308  0.0588 -0.3176
  583loPI    C1 9313   4.491   2.594   9.989  0.0267 -0.0297 -0.0455
  583loPI    C2 9314   4.580   2.737  10.352  0.0949 -0.0738 -0.0446
  583loPI    C3 9315   4.708   2.374  10.243  0.2133  0.0051 -0.1725
  583loPI   PO4 9316   4.483   2.824   9.870  0.0618  0.0408 -0.2366
  583loPI   GL1 9317   4.404   2.996   9.420  0.0473 -0.2209  0.1006
  583loPI   GL2 9318   4.416   2.586   9.355  0.1447 -0.0537  0.0917
  583loPI   C1A 9319   4.091   2.966   9.063  0.1623 -0.2535  0.2546
  583loPI   C2A 9320   4.058   3.334   8.943  0.0206 -0.0762 -0.0065
  583loPI   C3A 9321   4.281   3.773   8.874  0.0822  0.1121 -0.1758
  583loPI   C4A 9322   4.270   3.945   8.489 -0.5234 -0.2191 -0.3766
  583loPI   C5A 9323   3.974   3.875   8.115  0.2007  0.0002  0.0115
  583loPI   C6A 9324   3.689   3.697   7.929 -0.1039  0.0610  0.1921
  583loPI   C1B 9325   4.283   2.251   9.526  0.0055 -0.2535 -0.0224
  583loPI   C2B 9326   3.994   1.962   9.373  0.1487 -0.0361 -0.1351
  583loPI   C3B 9327   3.786   1.951   9.108 -0.1247  0.1238 -0.1922
  583loPI   C4B 9328   3.806   2.070   8.763  0.0396 -0.1944 -0.0960
  584loPI    C1 9329   5.165   6.614  10.030 -0.1339  0.1749  0.1355
  584loPI    C2 9330   5.189   7.008   9.962 -0.3663  0.1400 -0.1702
  584loPI    C3 9331   4.961   6.870  10.261  0.1499  0.2609  0.2951
  584loPI   PO4 9332   5.153   6.454   9.799  0.2831 -0.3072  0.1468
  584loPI   GL1 9333   5.042   6.400   9.384 -0.1479  0.1497 -0.2758
  584loPI   GL2 9334   5.098   6.089   9.527 -0.3413 -0.1963 -0.1072
  584loPI   C1A 9335   4.878   6.524   8.997  0.3672  0.1045 -0.1826
  584loPI   C2A 9336   4.902   6.469   8.519 -0.0239 -0.3019  0.0374
  584loPI   C3A 9337   4.884   6.481   8.128 -0.0430 -0.2075 -0.1934
  584loPI   C4A 9338   4.990   6.548   7.702 -0.0640  0.0994  0.0981
  584loPI   C5A 9339   4.781   6.724   7.289 -0.0213 -0.0263 -0.2646
  584loPI   C6A 9340   4.625   6.730   6.865  0.3465 -0.5044 -0.0657
  584loPI   C1B 9341   5.067   6.065   9.049  0.1962 -0.1217  0.0974
  584loPI   C2B 9342   5.042   6.005   8.668 -0.1488 -0.0225  0.2669
  584loPI   C3B 9343   4.919   5.973   8.247 -0.1005 -0.5320  0.2850
  584loPI   C4B 9344   4.697   6.061   7.914  0.2206  0.1879  0.2555
  585loPI    C1 9345  18.605  14.833  10.048 -0.1881  0.1671 -0.1317
  585loPI    C2 9346  18.650  14.453  10.165  0.0995  0.1703 -0.2240
  585loPI    C3 9347  18.309  14.570   9.993  0.0924 -0.1019 -0.4006
  585loPI   PO4 9348  18.967  14.861  10.024 -0.1283 -0.0355 -0.0824
  585loPI   GL1 9349  19.202  14.972   9.611 -0.0408  0.2235  0.0801
  585loPI   GL2 9350  19.552  14.918   9.661 -0.2872 -0.0758 -0.0393
  585loPI   C1A 9351  19.354  14.984   9.135 -0.3646 -0.0213  0.2174
  585loPI   C2A 9352  19.275  15.056   8.716  0.2333 -0.3222 -0.4773
  585loPI   C3A 9353  19.210  15.088   8.146 -0.3382 -0.5077 -0.0987
  585loPI   C4A 9354  19.046  15.022   7.719  0.3121  0.2783  0.0521
  585loPI   C5A 9355  18.884  15.147   7.287  0.0915  0.2562  0.1195
  585loPI   C6A 9356  18.883  15.199   6.867  0.0618  0.2057 -0.4090
  585loPI   C1B 9357  19.821  14.821   9.268  0.1030 -0.3272  0.1049
  585loPI   C2B 9358  19.749  15.000   8.795  0.3210 -0.0587 -0.0348
  585loPI   C3B 9359  19.721  15.208   8.408  0.2525 -0.0275  0.4480
  585loPI   C4B 9360  19.732  15.234   7.979 -0.0450  0.0959  0.1399
  586loPI    C1 9361  10.917  17.289   9.258 -0.0894  0.0465  0.0603
  586loPI    C2 9362  10.715  17.508   9.524 -0.2762 -0.3211  0.2280
  586loPI    C3 9363  10.566  17.450   9.157 -0.0801  0.0789  0.0795
  586loPI   PO4 9364  11.075  17.352   9.212 -0.1572 -0.1537  0.0922
  586loPI   GL1 9365  11.125  17.484   8.818 -0.2062  0.1711 -0.0416
  586loPI   GL2 9366  10.826  17.273   8.776 -0.0520  0.2826  0.2072
  586loPI   C1A 9367  11.312  17.393   8.542 -0.0878 -0.0273  0.1023
  586loPI   C2A 9368  11.278  17.525   8.138  0.4305 -0.4202 -0.0407
  586loPI   C3A 9369  11.225  17.630   7.667 -0.1759 -0.2411  0.0787
  586loPI   C4A 9370  11.224  17.686   7.176  0.0576 -0.2186  0.4203
  586loPI   C5A 9371  11.396  17.672   6.713 -0.1401  0.1914  0.0798
  586loPI   C6A 9372  11.160  17.505   6.326  0.0150  0.3951  0.3828
  586loPI   C1B 9373  10.663  17.476   8.435 -0.2938 -0.0651  0.1134
  586loPI   C2B 9374  10.674  17.512   8.059  0.0523 -0.3450  0.2028
  586loPI   C3B 9375  10.618  17.476   7.622  0.1179 -0.0280  0.0992
  586loPI   C4B 9376  10.368  17.628   7.361  0.3946 -0.1415  0.0900
  587loPI    C1 9377  14.232  16.711   9.092  0.1073 -0.3073 -0.0488
  587loPI    C2 9378  14.220  16.497   9.430  0.1432 -0.0724  0.1032
  587loPI    C3 9379  14.331  16.881   9.440 -0.0986  0.0071 -0.1401
  587loPI   PO4 9380  14.328  16.611   8.932  0.2272 -0.0214 -0.1081
  587loPI   GL1 9381  14.204  16.297   8.560 -0.2022 -0.2128  0.2541
  587loPI   GL2 9382  14.280  16.597   8.432 -0.0177  0.0915  0.2896
  587loPI   C1A 9383  14.139  16.229   8.124 -0.0006  0.1044 -0.0330
  587loPI   C2A 9384  14.157  16.096   7.798 -0.0014 -0.0591  0.0200
  587loPI   C3A 9385  14.297  16.298   7.431 -0.2268  0.3402  0.1239
  587loPI   C4A 9386  14.664  16.401   7.144 -0.3436  0.0056 -0.1576
  587loPI   C5A 9387  14.620  16.106   6.792  0.1250 -0.1870 -0.3695
  587loPI   C6A 9388  14.815  15.931   6.413  0.1292 -0.1489 -0.1379
  587loPI   C1B 9389  14.345  16.624   8.000  0.0462 -0.2001 -0.1430
  587loPI   C2B 9390  14.499  16.736   7.531 -0.2635  0.1056 -0.0692
  587loPI   C3B 9391  14.272  16.740   7.116 -0.1923  0.0089 -0.2661
  587loPI   C4B 9392  14.259  16.813   6.682  0.2283 -0.1836 -0.3109
  588loPI    C1 9393   9.495   0.248   9.179 -0.0827 -0.2291  0.1285
  588loPI    C2 9394   9.874   0.155   9.268 -0.0635 -0.2147  0.0621
  588loPI    C3 9395   9.672   0.411   9.499  0.1075  0.1131 -0.1423
  588loPI   PO4 9396   9.404   0.049   9.105  0.1365  0.2802  0.1096
  588loPI   GL1 9397   9.143   0.120   8.763  0.0325  0.2575  0.1761
  588loPI   GL2 9398   9.022  -0.169   8.706  0.0770  0.2420 -0.1299
  588loPI   C1A 9399   9.060   0.181   8.395 -0.1046 -0.3914  0.2375
  588loPI   C2A 9400   8.965   0.369   7.946  0.2488 -0.0177  0.0940
  588loPI   C3A 9401   8.984   0.417   7.495 -0.3059  0.0111  0.0939
  588loPI   C4A 9402   9.127   0.677   7.120 -0.1010 -0.1353 -0.2521
  588loPI   C5A 9403   9.419   0.926   6.938  0.3634  0.1112 -0.0853
  588loPI   C6A 9404   9.704   1.120   7.256  0.0466  0.0552  0.4094
  588loPI   C1B 9405   8.802  -0.199   8.226 -0.0593  0.0357  0.2868
  588loPI   C2B 9406   8.958  -0.329   7.830  0.1537  0.1485 -0.1942
  588loPI   C3B 9407   8.999  -0.523   7.335 -0.4383 -0.1947 -0.0319
  588loPI   C4B 9408   9.140  -0.440   7.005  0.0511 -0.3711  0.5182
  589loPI    C1 9409   5.302   1.646   9.987  0.0366  0.1459  0.0361
  589loPI    C2 9410   5.094   1.938  10.165 -0.0659 -0.0633  0.2663
  589loPI    C3 9411   5.399   1.764  10.357  0.1695  0.0750  0.0245
  589loPI   PO4 9412   5.293   1.781   9.709 -0.1374  0.1857 -0.0891
  589loPI   GL1 9413   5.148   2.076   9.463  0.0025  0.0656  0.0450
  589loPI   GL2 9414   5.364   2.007   9.301  0.1010 -0.1537 -0.0672
  589loPI   C1A 9415   4.955   2.236   9.146  0.1389  0.3197  0.2908
  589loPI   C2A 9416   4.587   2.440   8.894  0.5033 -0.0383  0.1423
  589loPI   C3A 9417   4.599   2.392   8.422 -0.0689 -0.3769  0.0601
  589loPI   C4A 9418   4.585   2.535   8.110 -0.0126 -0.3433  0.1912
  589loPI   C5A 9419   4.429   2.516   7.728 -0.1579  0.1122  0.1287
  589loPI   C6A 9420   4.008   2.727   7.583  0.0451  0.2010 -0.0988
  589loPI   C1B 9421   5.342   2.006   8.860  0.1315 -0.2533  0.1321
  589loPI   C2B 9422   5.213   1.890   8.448  0.0062  0.0444 -0.1055
  589loPI   C3B 9423   4.887   1.561   8.431 -0.0931  0.0094  0.1892
  589loPI   C4B 9424   4.961   1.320   7.957  0.1887 -0.1039  0.0581
  590loPI    C1 9425   3.434   8.922  10.161  0.0286  0.0610  0.0300
  590loPI    C2 9426   3.737   9.136  10.311 -0.0189  0.1621 -0.0173
  590loPI    C3 9427   3.417   9.058  10.537  0.1350 -0.1293  0.1048
  590loPI   PO4 9428   3.526   8.755   9.960  0.0472 -0.0408 -0.2249
  590loPI   GL1 9429   3.532   8.695   9.517  0.1110  0.0212  0.0019
  590loPI   GL2 9430   3.781   8.576   9.354  0.3735 -0.2719  0.0596
  590loPI   C1A 9431   3.226   8.766   9.126 -0.3772  0.2608 -0.3092
  590loPI   C2A 9432   3.202   8.979   8.781  0.2435  0.0695  0.0447
  590loPI   C3A 9433   3.304   9.193   8.429  0.1571 -0.2429  0.0605
  590loPI   C4A 9434   3.452   9.091   7.966 -0.1322 -0.1530  0.0459
  590loPI   C5A 9435   3.266   8.944   7.652 -0.0402  0.1979  0.1738
  590loPI   C6A 9436   2.877   8.726   7.514 -0.2189 -0.3046 -0.4580
  590loPI   C1B 9437   3.667   8.813   8.896 -0.1332  0.3344 -0.0240
  590loPI   C2B 9438   3.657   8.820   8.452 -0.3251  0.2933 -0.1559
  590loPI   C3B 9439   3.762   8.705   8.015  0.2615 -0.1646 -0.0695
  590loPI   C4B 9440   3.883   9.097   7.640 -0.0080  0.1036 -0.0682
  591loPI    C1 9441   1.635   5.699  10.723 -0.1173  0.0230  0.1060
  591loPI    C2 9442   1.921   5.960  10.625  0.0108 -0.2091 -0.1517
  591loPI    C3 9443   1.702   6.018  10.955  0.3298 -0.0100  0.0308
  591loPI   PO4 9444   1.505   5.617  10.457 -0.2302 -0.0997 -0.0900
  591loPI   GL1 9445   1.471   5.536  10.027 -0.1336  0.0433 -0.1726
  591loPI   GL2 9446   1.361   5.192  10.077 -0.1821  0.0553  0.2503
  591loPI   C1A 9447   1.469   5.494   9.565  0.0307  0.1314 -0.0440
  591loPI   C2A 9448   1.266   5.712   9.279  0.2016  0.0607 -0.1362
  591loPI   C3A 9449   1.216   5.719   8.794  0.1646 -0.0981 -0.4259
  591loPI   C4A 9450   1.161   5.669   8.362 -0.2606  0.3116 -0.1179
  591loPI   C5A 9451   0.930   5.816   8.167  0.0542 -0.2442 -0.0369
  591loPI   C6A 9452   0.785   5.800   7.859 -0.3805  0.3585 -0.3130
  591loPI   C1B 9453   1.073   5.249   9.677  0.1342  0.0372  0.0315
  591loPI   C2B 9454   1.088   5.170   9.287  0.1521  0.1131  0.1766
  591loPI   C3B 9455   1.075   5.215   8.832 -0.1974  0.0423  0.0607
  591loPI   C4B 9456   0.960   5.198   8.434 -0.3142 -0.0361  0.2007
  592loPI    C1 9457   8.747  17.563  10.142  0.0859  0.0643  0.1797
  592loPI    C2 9458   9.126  17.455  10.073  0.0572  0.0997 -0.0409
  592loPI    C3 9459   8.907  17.256  10.343  0.1274 -0.1404 -0.1580
  592loPI   PO4 9460   8.630  17.647   9.864 -0.2213 -0.0032 -0.2960
  592loPI   GL1 9461   8.571  17.159   9.547  0.2963 -0.1038  0.2196
  592loPI   GL2 9462   8.601  16.959   9.375  0.0921 -0.0349  0.0406
  592loPI   C1A 9463   8.206  17.263   9.393 -0.2150 -0.0456 -0.1815
  592loPI   C2A 9464   7.862  17.665   9.235  0.0653 -0.2116 -0.0142
  592loPI   C3A 9465   7.741  17.819   8.877 -0.0321 -0.1969 -0.1859
  592loPI   C4A 9466   7.638  17.462   8.508  0.0396 -0.1774 -0.0846
  592loPI   C5A 9467   7.516  17.285   8.128 -0.0776 -0.2330  0.0842
  592loPI   C6A 9468   7.172  17.137   7.841  0.1255 -0.0118  0.3782
  592loPI   C1B 9469   8.463  16.772   8.973 -0.1106  0.0330  0.0669
  592loPI   C2B 9470   8.415  16.809   8.503 -0.2739  0.2575  0.1028
  592loPI   C3B 9471   8.272  17.071   8.221  0.2862 -0.0376 -0.0159
  592loPI   C4B 9472   8.576  16.872   7.971 -0.0685  0.1384 -0.3312
  593loPI    C1 9473   1.416  14.873   9.825  0.2144 -0.1685  0.2415
  593loPI    C2 9474   1.608  15.222   9.847  0.1599 -0.1395  0.2587
  593loPI    C3 9475   1.382  15.099  10.153 -0.2996  0.0906  0.0213
  593loPI   PO4 9476   1.483  14.734   9.697  0.1222  0.1133  0.2559
  593loPI   GL1 9477   1.349  14.642   9.309  0.1485 -0.2071 -0.0431
  593loPI   GL2 9478   1.293  14.319   9.230  0.1105 -0.1795 -0.1553
  593loPI   C1A 9479   1.347  14.707   8.891 -0.0598 -0.0294 -0.3071
  593loPI   C2A 9480   1.175  14.706   8.611 -0.0917 -0.3052 -0.2657
  593loPI   C3A 9481   1.073  14.814   8.249 -0.0514 -0.1990 -0.0972
  593loPI   C4A 9482   1.074  14.919   7.894 -0.0508  0.0197 -0.2138
  593loPI   C5A 9483   1.223  15.043   7.499 -0.0191 -0.2106 -0.0399
  593loPI   C6A 9484   1.314  14.853   7.099 -0.4476 -0.0100  0.3092
  593loPI   C1B 9485   1.039  14.260   8.842  0.1503 -0.0949 -0.0149
  593loPI   C2B 9486   0.936  14.294   8.412  0.3602  0.1353 -0.2104
  593loPI   C3B 9487   0.999  14.385   7.908  0.1049 -0.2783  0.0419
  593loPI   C4B 9488   0.958  14.581   7.454  0.0566  0.0941 -0.2727
  594loPI    C1 9489   4.170   8.655  10.323 -0.1328 -0.1616 -0.1865
  594loPI    C2 9490   3.822   8.726  10.507 -0.1530  0.1418 -0.3349
  594loPI    C3 9491   4.154   8.669  10.723 -0.3186 -0.3094 -0.1875
  594loPI   PO4 9492   4.064   8.659   9.987  0.1364  0.1963 -0.0052
  594loPI   GL1 9493   4.241   8.838   9.601  0.1631 -0.0651  0.0302
  594loPI   GL2 9494   4.283   8.563   9.416 -0.1166 -0.0294 -0.2005
  594loPI   C1A 9495   4.082   9.003   9.194  0.1972  0.2606  0.0955
  594loPI   C2A 9496   3.989   9.141   8.684 -0.0585  0.0444 -0.2514
  594loPI   C3A 9497   3.973   9.247   8.237 -0.1629 -0.2040  0.3318
  594loPI   C4A 9498   4.409   9.304   7.970  0.0080  0.2482 -0.1488
  594loPI   C5A 9499   4.757   9.346   7.833 -0.1246 -0.0593 -0.0847
  594loPI   C6A 9500   5.038   9.521   8.002  0.0393 -0.3328 -0.3060
  594loPI   C1B 9501   4.148   8.509   9.050  0.0481  0.2008  0.0105
  594loPI   C2B 9502   3.842   8.353   8.770  0.1292 -0.1853 -0.1491
  594loPI   C3B 9503   3.716   8.226   8.312  0.1503  0.1320  0.1691
  594loPI   C4B 9504   3.476   8.272   7.930 -0.1019  0.0750  0.0227
  595loPI    C1 9505   8.070   3.893   9.631  0.2427  0.0369 -0.0329
  595loPI    C2 9506   8.290   3.616   9.818  0.3399  0.1089 -0.0394
  595loPI    C3 9507   7.992   3.799  10.012  0.6624  0.4349  0.1617
  595loPI   PO4 9508   8.122   3.719   9.365 -0.1004 -0.3439  0.2051
  595loPI   GL1 9509   7.961   3.400   9.044 -0.1434  0.1075  0.2605
  595loPI   GL2 9510   8.069   3.201   9.064  0.3477 -0.0376 -0.0400
  595loPI   C1A 9511   8.060   3.537   8.686 -0.1164 -0.2236 -0.1264
  595loPI   C2A 9512   8.002   3.661   8.229 -0.2280 -0.1317  0.1356
  595loPI   C3A 9513   8.024   3.678   7.785 -0.0044 -0.1142 -0.0759
  595loPI   C4A 9514   7.877   3.587   7.476  0.1812 -0.1900 -0.0905
  595loPI   C5A 9515   7.560   3.674   7.422 -0.1195 -0.0813  0.1012
  595loPI   C6A 9516   7.149   3.605   7.416 -0.2401  0.0098  0.1413
  595loPI   C1B 9517   8.245   3.027   8.753 -0.0245 -0.1717 -0.1325
  595loPI   C2B 9518   8.500   3.276   8.386 -0.1939  0.2434 -0.0489
  595loPI   C3B 9519   8.590   3.441   8.045 -0.1751 -0.0565  0.0500
  595loPI   C4B 9520   8.384   3.374   7.586 -0.1723 -0.0378 -0.2100
  596loPI    C1 9521   7.518   1.370  10.002 -0.1474  0.0410  0.0296
  596loPI    C2 9522   7.800   1.287  10.274 -0.1812 -0.0811  0.0278
  596loPI    C3 9523   7.424   1.359  10.391 -0.1206  0.2233  0.0421
  596loPI   PO4 9524   7.656   1.357   9.715 -0.0123  0.4994 -0.0320
  596loPI   GL1 9525   7.598   1.468   9.287  0.1016 -0.0491  0.0718
  596loPI   GL2 9526   7.555   1.816   9.304 -0.1314 -0.0759  0.0565
  596loPI   C1A 9527   7.657   1.429   8.937  0.3359  0.1402 -0.0999
  596loPI   C2A 9528   7.844   1.528   8.555  0.0379 -0.3289  0.1727
  596loPI   C3A 9529   7.933   1.639   8.154  0.0134  0.3399  0.4974
  596loPI   C4A 9530   8.225   1.519   7.786  0.1244  0.0215  0.1401
  596loPI   C5A 9531   8.348   1.443   7.253  0.1574 -0.0215  0.1106
  596loPI   C6A 9532   8.518   1.241   6.871  0.1878  0.2242 -0.2084
  596loPI   C1B 9533   7.724   1.970   9.035  0.1224 -0.1383  0.1268
  596loPI   C2B 9534   7.660   2.018   8.642  0.1362  0.3285  0.1024
  596loPI   C3B 9535   7.490   1.882   8.278 -0.0913 -0.0097  0.2935
  596loPI   C4B 9536   7.403   1.812   7.871 -0.0077  0.1688  0.3410
  597loPI    C1 9537  12.903   0.248   8.673  0.3838 -0.0299  0.0012
  597loPI    C2 9538  13.147   0.051   8.922  0.1195 -0.2940  0.0577
  597loPI    C3 9539  12.764  -0.058   8.890  0.0350  0.0397 -0.1180
  597loPI   PO4 9540  13.072   0.562   8.721  0.1500  0.0601 -0.0459
  597loPI   GL1 9541  13.199   0.853   8.454  0.0484 -0.0362 -0.1290
  597loPI   GL2 9542  13.373   1.105   8.408 -0.1585  0.0741  0.1304
  597loPI   C1A 9543  12.975   0.612   8.107 -0.1465 -0.4605 -0.0933
  597loPI   C2A 9544  12.883   0.424   7.763  0.0559 -0.0118  0.1188
  597loPI   C3A 9545  13.192   0.138   7.542  0.0320  0.2406  0.1869
  597loPI   C4A 9546  13.321   0.052   7.090  0.0650 -0.2114  0.2825
  597loPI   C5A 9547  13.573   0.015   6.679  0.1083 -0.2574 -0.2292
  597loPI   C6A 9548  13.989   0.113   6.571  0.3570 -0.1090  0.2147
  597loPI   C1B 9549  13.303   0.969   7.911  0.0758 -0.0313 -0.1793
  597loPI   C2B 9550  13.035   0.846   7.630  0.0834 -0.3407  0.1543
  597loPI   C3B 9551  12.917   0.854   7.256  0.1923  0.1656 -0.0837
  597loPI   C4B 9552  12.777   0.990   6.969  0.1759  0.3306 -0.1291
  598loPI    C1 9553   6.428   9.144   9.512 -0.2173 -0.0427  0.0765
  598loPI    C2 9554   6.264   9.108   9.875  0.0393 -0.0036  0.1991
  598loPI    C3 9555   6.659   9.154   9.838 -0.0159  0.2906 -0.0712
  598loPI   PO4 9556   6.259   9.249   9.357  0.0506 -0.0525 -0.1355
  598loPI   GL1 9557   6.053   9.151   9.043  0.0269 -0.3254  0.1861
  598loPI   GL2 9558   6.080   8.774   9.205  0.1154 -0.1593 -0.1006
  598loPI   C1A 9559   5.953   9.057   8.629  0.0965 -0.0576  0.2049
  598loPI   C2A 9560   5.986   9.029   8.137 -0.0018  0.0253 -0.2526
  598loPI   C3A 9561   5.919   8.800   7.822 -0.0840 -0.1573 -0.2772
  598loPI   C4A 9562   5.772   8.478   7.499 -0.2054 -0.3594  0.1743
  598loPI   C5A 9563   5.450   8.228   7.310  0.0311 -0.0861 -0.2297
  598loPI   C6A 9564   5.454   7.834   7.126  0.1207  0.2485 -0.0772
  598loPI   C1B 9565   5.660   8.629   8.914  0.1650 -0.1297  0.1842
  598loPI   C2B 9566   5.334   8.650   8.653  0.0991 -0.1395  0.0814
  598loPI   C3B 9567   5.186   8.717   8.325  0.0034 -0.2979  0.3769
  598loPI   C4B 9568   4.973   9.120   8.287  0.1580 -0.0877  0.0121
  599loPI    C1 9569  15.469   9.710   9.539  0.0483  0.2709  0.0859
  599loPI    C2 9570  15.211   9.773   9.838  0.0084  0.0760  0.0939
  599loPI    C3 9571  15.542   9.995   9.809  0.1011 -0.0202  0.3853
  599loPI   PO4 9572  15.283   9.596   9.304  0.0885  0.3901  0.1637
  599loPI   GL1 9573  15.268   9.265   9.009  0.1302  0.1996  0.0925
  599loPI   GL2 9574  15.535   9.416   8.905 -0.0847 -0.3331  0.2412
  599loPI   C1A 9575  15.172   9.243   8.593  0.2292 -0.3088 -0.2545
  599loPI   C2A 9576  15.129   9.010   8.223 -0.1002  0.3487  0.0755
  599loPI   C3A 9577  15.141   8.808   7.841  0.1146 -0.1422  0.0388
  599loPI   C4A 9578  15.339   8.877   7.460  0.4483 -0.3218  0.0513
  599loPI   C5A 9579  15.637   8.905   7.208 -0.0080  0.1420 -0.1184
  599loPI   C6A 9580  15.977   8.858   7.077 -0.2234 -0.2539 -0.3628
  599loPI   C1B 9581  15.802   9.491   8.523  0.1691  0.1192  0.1444
  599loPI   C2B 9582  15.726   9.571   8.076  0.0670 -0.1011 -0.1291
  599loPI   C3B 9583  15.466   9.604   7.660  0.0541 -0.2651  0.0120
  599loPI   C4B 9584  15.370   9.340   7.277  0.0942 -0.1836 -0.3135
  600loPI    C1 9585  13.861  11.317   9.575 -0.1621  0.0502  0.1135
  600loPI    C2 9586  14.217  11.248   9.742 -0.2010  0.1620  0.2451
  600loPI    C3 9587  14.093  11.623   9.686 -0.1716  0.1268 -0.0747
  600loPI   PO4 9588  13.873  11.159   9.279  0.4382 -0.1463 -0.0612
  600loPI   GL1 9589  13.798  11.089   8.812  0.1770  0.3407  0.0459
  600loPI   GL2 9590  13.631  10.917   8.962  0.2596  0.1650 -0.0940
  600loPI   C1A 9591  13.797  10.946   8.385  0.0094 -0.1903  0.0772
  600loPI   C2A 9592  13.816  10.959   7.951 -0.1286  0.2983  0.0828
  600loPI   C3A 9593  13.848  11.094   7.453 -0.0781  0.1403  0.2584
  600loPI   C4A 9594  13.792  10.813   7.133 -0.2407 -0.2544 -0.0967
  600loPI   C5A 9595  13.626  10.408   7.026  0.1576  0.1615 -0.1430
  600loPI   C6A 9596  13.782  10.100   7.123 -0.0729  0.2626 -0.0202
  600loPI   C1B 9597  13.370  10.728   8.601  0.0205  0.1020  0.0899
  600loPI   C2B 9598  13.432  10.628   8.200 -0.0574 -0.0619  0.1642
  600loPI   C3B 9599  13.433  10.660   7.737  0.3485 -0.2754 -0.1380
  600loPI   C4B 9600  13.339  10.841   7.311  0.0132  0.0421  0.3611
  601loPI    C1 9601   0.460   0.590  10.324  0.1206  0.0146 -0.1633
  601loPI    C2 9602   0.845   0.600  10.433  0.0596  0.0738  0.0513
  601loPI    C3 9603   0.570   0.793  10.650 -0.1133 -0.0987 -0.0113
  601loPI   PO4 9604   0.559   0.285  10.141  0.2090 -0.1733  0.0848
  601loPI   GL1 9605   0.760   0.269   9.768 -0.0182  0.0007 -0.2725
  601loPI   GL2 9606   0.510   0.079   9.561 -0.3612 -0.1530 -0.1347
  601loPI   C1A 9607   0.807   0.550   9.434  0.0535 -0.3031  0.0842
  601loPI   C2A 9608   0.809   0.609   9.022 -0.3465 -0.0160  0.1124
  601loPI   C3A 9609   0.742   0.705   8.625  0.1339  0.0366 -0.4563
  601loPI   C4A 9610   0.668   0.799   8.272  0.1860  0.0326  0.1699
  601loPI   C5A 9611   0.487   0.984   7.857 -0.0224 -0.0757  0.0343
  601loPI   C6A 9612   0.156   1.065   7.635 -0.0797  0.0956 -0.1603
  601loPI   C1B 9613   0.405   0.398   9.283 -0.1661  0.0895  0.1897
  601loPI   C2B 9614   0.277   0.539   8.895  0.1381  0.0562  0.2090
  601loPI   C3B 9615   0.285   0.464   8.433  0.2799  0.1125  0.0787
  601loPI   C4B 9616   0.439   0.386   8.010 -0.0632 -0.1484  0.1262
  602loPI    C1 9617   6.006  15.754   9.978  0.3514 -0.2204 -0.0841
  602loPI    C2 9618   5.658  15.590  10.089  0.2100 -0.0700 -0.2968
  602loPI    C3 9619   5.979  15.559  10.326 -0.0450  0.1163  0.0831
  602loPI   PO4 9620   5.944  15.756   9.668  0.1026 -0.0673 -0.1221
  602loPI   GL1 9621   6.003  15.779   9.277  0.1118  0.0577 -0.0593
  602loPI   GL2 9622   6.024  16.063   9.027 -0.0168 -0.2207 -0.0171
  602loPI   C1A 9623   5.978  15.579   8.882 -0.2859  0.2207 -0.2339
  602loPI   C2A 9624   5.790  15.668   8.549  0.1866 -0.0668  0.1582
  602loPI   C3A 9625   5.808  15.544   8.185  0.3217  0.2008  0.0121
  602loPI   C4A 9626   5.775  15.321   7.836 -0.0398 -0.0697  0.4531
  602loPI   C5A 9627   5.841  15.173   7.341 -0.1084 -0.0142 -0.0852
  602loPI   C6A 9628   6.018  14.982   6.924  0.2263  0.2508  0.0892
  602loPI   C1B 9629   6.128  16.072   8.630  0.1572  0.1892 -0.1748
  602loPI   C2B 9630   6.004  15.981   8.192 -0.1337 -0.1424 -0.3098
  602loPI   C3B 9631   6.081  16.110   7.826 -0.0898  0.0561  0.1343
  602loPI   C4B 9632   6.234  16.210   7.447  0.0679 -0.2361 -0.0893
  603loPI    C1 9633   3.908   1.190  10.351 -0.0061  0.1129 -0.0796
  603loPI    C2 9634   4.248   1.061  10.518 -0.1627  0.1730  0.2942
  603loPI    C3 9635   3.896   0.916  10.643 -0.2910  0.3260  0.1139
  603loPI   PO4 9636   3.897   1.223  10.026  0.0241  0.0472  0.2340
  603loPI   GL1 9637   3.702   1.371   9.567  0.1189 -0.1585 -0.3468
  603loPI   GL2 9638   3.456   1.262   9.763  0.2785 -0.0031 -0.0595
  603loPI   C1A 9639   3.847   1.482   9.155 -0.1298 -0.0808  0.2438
  603loPI   C2A 9640   3.981   1.618   8.774 -0.0708 -0.5372 -0.0200
  603loPI   C3A 9641   3.933   1.761   8.288 -0.1429 -0.0560 -0.0787
  603loPI   C4A 9642   3.700   1.774   7.881  0.0936  0.1726 -0.0557
  603loPI   C5A 9643   3.567   1.584   7.566  0.4157 -0.2355  0.0570
  603loPI   C6A 9644   3.295   1.262   7.453  0.2745 -0.2024  0.2259
  603loPI   C1B 9645   3.267   1.178   9.399 -0.2783  0.3956 -0.0132
  603loPI   C2B 9646   3.342   1.055   8.950  0.1454 -0.1914  0.1233
  603loPI   C3B 9647   3.495   1.014   8.641 -0.1965  0.0939  0.0230
  603loPI   C4B 9648   3.365   0.798   8.268  0.2581  0.4835  0.2884
  604loPI    C1 9649  10.372   7.185  10.094 -0.0748 -0.0335  0.0098
  604loPI    C2 9650  10.195   7.206  10.452 -0.1405 -0.2322 -0.0100
  604loPI    C3 9651  10.547   7.386  10.392 -0.0947 -0.2578  0.1753
  604loPI   PO4 9652  10.248   7.258   9.923 -0.0087 -0.1922  0.0761
  604loPI   GL1 9653   9.984   7.125   9.550  0.0665  0.0994 -0.4700
  604loPI   GL2 9654  10.156   6.912   9.517  0.0255 -0.0133 -0.2797
  604loPI   C1A 9655  10.080   7.223   9.116 -0.1234  0.1244 -0.0689
  604loPI   C2A 9656  10.208   7.220   8.755 -0.0504  0.0353  0.0678
  604loPI   C3A 9657  10.138   7.258   8.373  0.0523 -0.0591  0.0750
  604loPI   C4A 9658  10.174   7.228   7.990 -0.4575 -0.0343  0.1046
  604loPI   C5A 9659  10.104   7.254   7.573 -0.0705  0.2315  0.4651
  604loPI   C6A 9660  10.102   7.275   7.184 -0.1380  0.2527  0.0315
  604loPI   C1B 9661  10.137   6.692   9.178  0.1155 -0.3416  0.1786
  604loPI   C2B 9662   9.956   6.772   8.782 -0.3944  0.5188  0.3360
  604loPI   C3B 9663   9.629   6.643   8.436  0.4484  0.2006  0.2721
  604loPI   C4B 9664   9.487   6.515   7.984  0.0136  0.2304 -0.2315
  605loPI    C1 9665   9.101  19.053   9.405 -0.1524  0.1004 -0.0090
  605loPI    C2 9666   8.997  19.267   9.726  0.0153  0.1785 -0.0061
  605loPI    C3 9667   9.015  18.868   9.750 -0.1062  0.1754  0.0429
  605loPI   PO4 9668   9.225  19.030   9.200 -0.0301 -0.0369 -0.0346
  605loPI   GL1 9669   9.303  18.879   8.817 -0.3097 -0.0895 -0.0874
  605loPI   GL2 9670   9.495  19.151   8.754 -0.0454 -0.0418 -0.0444
  605loPI   C1A 9671   9.238  18.631   8.461 -0.0834  0.3281 -0.2671
  605loPI   C2A 9672   9.412  18.343   8.193 -0.2118  0.1444 -0.2304
  605loPI   C3A 9673   9.307  18.047   7.863  0.1026 -0.2077  0.2559
  605loPI   C4A 9674   9.436  18.005   7.421 -0.1032  0.5124  0.3323
  605loPI   C5A 9675   9.543  17.872   7.023 -0.3033  0.1412 -0.1901
  605loPI   C6A 9676  10.050  17.815   6.993 -0.0553 -0.0524  0.0439
  605loPI   C1B 9677   9.388  19.084   8.316 -0.2937  0.0584 -0.0095
  605loPI   C2B 9678   9.391  19.378   8.025 -0.2356 -0.1298 -0.0183
  605loPI   C3B 9679   9.374  19.475   7.552 -0.0886  0.2778  0.1976
  605loPI   C4B 9680   9.242  19.537   7.195 -0.3018 -0.0232 -0.1155
  606loPI    C1 9681  10.023   3.671   9.714  0.0367 -0.2236 -0.1517
  606loPI    C2 9682   9.702   3.603   9.943 -0.1153  0.0398 -0.2823
  606loPI    C3 9683  10.059   3.664  10.113 -0.2029  0.1085 -0.1200
  606loPI   PO4 9684  10.040   3.841   9.610 -0.0374 -0.3164 -0.0588
  606loPI   GL1 9685   9.890   4.058   9.223  0.1712  0.4032 -0.1512
  606loPI   GL2 9686   9.891   3.812   9.081 -0.0538 -0.1176 -0.4157
  606loPI   C1A 9687   9.959   4.137   8.722  0.1253 -0.3848  0.2602
  606loPI   C2A 9688  10.042   4.342   8.409 -0.0706 -0.0242 -0.1880
  606loPI   C3A 9689  10.119   4.451   8.002  0.2942 -0.0120  0.1294
  606loPI   C4A 9690   9.987   4.171   7.661 -0.0737 -0.1500  0.4384
  606loPI   C5A 9691  10.211   4.198   7.244 -0.1123 -0.1712  0.1267
  606loPI   C6A 9692  10.539   4.527   7.284 -0.0008 -0.1026 -0.3535
  606loPI   C1B 9693   9.848   3.626   8.561  0.0665  0.0826 -0.3818
  606loPI   C2B 9694   9.839   3.833   8.212 -0.0361 -0.2174  0.3042
  606loPI   C3B 9695   9.878   3.686   7.759 -0.2953 -0.0642  0.3324
  606loPI   C4B 9696  10.094   3.728   7.378 -0.0542  0.3513 -0.1232
  607loPI    C1 9697  11.312  10.970   9.687  0.0340 -0.1813 -0.0675
  607loPI    C2 9698  11.175  10.915  10.058 -0.1031  0.1648 -0.0627
  607loPI    C3 9699  11.470  11.176   9.991  0.3003 -0.2931 -0.1271
  607loPI   PO4 9700  11.218  10.790   9.551 -0.0425  0.3105  0.1039
  607loPI   GL1 9701  11.359  10.681   9.025 -0.0704  0.1882 -0.0557
  607loPI   GL2 9702  11.171  10.932   8.984 -0.2697 -0.2202 -0.1542
  607loPI   C1A 9703  11.326  10.582   8.605 -0.2268 -0.0183  0.2403
  607loPI   C2A 9704  11.271  10.365   8.151 -0.0323 -0.0362 -0.0742
  607loPI   C3A 9705  11.137  10.370   7.693  0.1514  0.1621  0.1591
  607loPI   C4A 9706  11.313  10.425   7.216 -0.0598 -0.1740 -0.1110
  607loPI   C5A 9707  11.276  10.660   6.841  0.0075  0.2027  0.3532
  607loPI   C6A 9708  11.367  11.047   6.643  0.1481  0.2586 -0.0911
  607loPI   C1B 9709  11.190  11.144   8.599  0.3530  0.5082 -0.3451
  607loPI   C2B 9710  10.945  11.133   8.188 -0.2018 -0.3780 -0.0701
  607loPI   C3B 9711  10.779  11.174   7.888 -0.1320  0.3375 -0.0388
  607loPI   C4B 9712  10.749  11.066   7.436 -0.1296  0.1991 -0.1580
  608loPI    C1 9713  11.316  12.830   9.583 -0.2732 -0.0156 -0.1257
  608loPI    C2 9714  11.277  13.122   9.853  0.3790  0.1548 -0.1993
  608loPI    C3 9715  11.488  12.794   9.943  0.1983 -0.0028 -0.3423
  608loPI   PO4 9716  11.036  12.917   9.345  0.0698  0.1366  0.2484
  608loPI   GL1 9717  11.013  13.256   9.049  0.2939 -0.0530  0.0680
  608loPI   GL2 9718  11.260  13.062   8.952 -0.0605  0.2879 -0.0793
  608loPI   C1A 9719  10.978  13.445   8.677 -0.1505 -0.0264  0.1267
  608loPI   C2A 9720  10.867  13.381   8.295 -0.0550 -0.1322 -0.0122
  608loPI   C3A 9721  10.812  13.627   7.940  0.1276  0.1806 -0.1468
  608loPI   C4A 9722  10.758  13.682   7.583  0.2761 -0.0227  0.0620
  608loPI   C5A 9723  10.387  13.721   7.281  0.0528 -0.0079 -0.0199
  608loPI   C6A 9724  10.131  13.392   7.054  0.0829  0.0039 -0.0978
  608loPI   C1B 9725  11.661  12.906   8.795  0.0461  0.2250 -0.1301
  608loPI   C2B 9726  11.952  12.859   8.429  0.0151 -0.1485 -0.0443
  608loPI   C3B 9727  12.074  12.917   8.038  0.3959  0.1722  0.1195
  608loPI   C4B 9728  12.079  12.930   7.662 -0.0974 -0.4109  0.2294
  609POPI    C1 9729  11.476  16.028   9.907 -0.0659  0.1382 -0.3376
  609POPI    C2 9730  11.698  16.278   9.687  0.1977  0.2368  0.0307
  609POPI    C3 9731  11.730  16.280  10.085 -0.1265 -0.0772  0.0639
  609POPI   PO4 9732  11.523  15.819   9.689 -0.4181 -0.0583 -0.2274
  609POPI   GL1 9733  11.390  15.944   9.311 -0.0499  0.0868  0.0353
  609POPI   GL2 9734  11.759  15.937   9.293 -0.1593 -0.0800  0.0150
  609POPI   C1A 9735  11.291  15.889   8.921  0.1160 -0.3118 -0.3150
  609POPI   D2A 9736  11.201  15.956   8.506 -0.3100 -0.0088  0.0705
  609POPI   C3A 9737  11.070  16.028   8.123 -0.0515 -0.2390 -0.5419
  609POPI   C4A 9738  10.740  15.942   7.853 -0.1331  0.1113  0.0197
  609POPI   C1B 9739  11.889  16.109   8.808 -0.1315  0.2995 -0.2210
  609POPI   C2B 9740  11.714  16.006   8.416 -0.0242  0.2021 -0.0115
  609POPI   C3B 9741  11.742  16.130   7.980  0.1992  0.0223 -0.1604
  609POPI   C4B 9742  11.791  16.020   7.532 -0.3028 -0.1593 -0.2815
  610POPI    C1 9743  10.912   9.455   9.552  0.1918 -0.1751  0.1324
  610POPI    C2 9744  10.933   9.818   9.718 -0.2313 -0.0018 -0.1716
  610POPI    C3 9745  10.868   9.496   9.947  0.1472  0.1068  0.1001
  610POPI   PO4 9746  11.119   9.393   9.467  0.3445 -0.1282  0.1736
  610POPI   GL1 9747  11.222   9.416   9.010  0.0435 -0.0802 -0.0610
  610POPI   GL2 9748  11.542   9.480   9.075  0.0680 -0.1779  0.0695
  610POPI   C1A 9749  11.278   9.360   8.641  0.1829 -0.0623  0.0251
  610POPI   D2A 9750  11.280   9.387   8.276  0.2209  0.2066 -0.0207
  610POPI   C3A 9751  11.528   9.528   7.958  0.1118  0.3017  0.0489
  610POPI   C4A 9752  11.445   9.463   7.561 -0.1765 -0.0497 -0.1409
  610POPI   C1B 9753  11.468   9.800   8.783  0.1403 -0.0436  0.3172
  610POPI   C2B 9754  11.399  10.066   8.518 -0.1416 -0.2924  0.0693
  610POPI   C3B 9755  11.190   9.847   8.214 -0.0203 -0.1963 -0.1094
  610POPI   C4B 9756  11.059   9.789   7.762 -0.3661  0.0962  0.3443
  611POPI    C1 9757   5.032  17.417   9.917  0.0287  0.0550 -0.0327
  611POPI    C2 9758   5.284  17.257  10.183  0.1004 -0.3283 -0.3237
  611POPI    C3 9759   5.377  17.601  10.002  0.0225 -0.0298  0.1843
  611POPI   PO4 9760   4.954  17.135   9.803 -0.1746  0.1134 -0.1683
  611POPI   GL1 9761   5.036  17.002   9.438 -0.1991 -0.4240  0.1866
  611POPI   GL2 9762   5.050  17.282   9.322 -0.0839  0.1092  0.1950
  611POPI   C1A 9763   4.769  16.880   9.112  0.1724  0.1550  0.1966
  611POPI   D2A 9764   4.661  16.518   8.806 -0.1518 -0.1334 -0.0844
  611POPI   C3A 9765   4.884  16.448   8.480  0.0208 -0.1002 -0.1260
  611POPI   C4A 9766   5.251  16.343   8.451 -0.0757  0.0535  0.0836
  611POPI   C1B 9767   4.716  17.399   9.062  0.2514 -0.1299  0.2207
  611POPI   C2B 9768   4.449  17.400   8.743 -0.0913  0.0345  0.2460
  611POPI   C3B 9769   4.209  17.343   8.389 -0.0774  0.2903  0.1529
  611POPI   C4B 9770   4.187  17.287   7.975 -0.1676 -0.1940  0.0019
  612POPI    C1 9771  15.463  11.893   9.335  0.2259  0.0685  0.1135
  612POPI    C2 9772  15.626  11.834   9.695  0.1196  0.0739  0.1629
  612POPI    C3 9773  15.241  11.939   9.665  0.0368 -0.2535  0.0360
  612POPI   PO4 9774  15.647  12.016   9.247 -0.3258  0.2884 -0.0968
  612POPI   GL1 9775  15.733  11.909   8.786  0.0012 -0.0161  0.1123
  612POPI   GL2 9776  15.560  12.079   8.547  0.0815  0.2812 -0.4180
  612POPI   C1A 9777  16.045  11.813   8.548  0.0105 -0.0542  0.1157
  612POPI   D2A 9778  16.167  11.342   8.414 -0.1267  0.0541 -0.1619
  612POPI   C3A 9779  16.232  11.393   8.079  0.1723  0.2649  0.0219
  612POPI   C4A 9780  16.125  11.583   7.625  0.0049  0.0268 -0.0455
  612POPI   C1B 9781  15.758  11.941   8.131  0.1144 -0.1697 -0.2279
  612POPI   C2B 9782  16.214  11.860   8.025 -0.0991 -0.4217  0.0156
  612POPI   C3B 9783  16.632  11.570   7.975 -0.1167  0.2172  0.3443
  612POPI   C4B 9784  16.824  11.415   7.616 -0.1055  0.1255 -0.0729
  613POPI    C1 9785  10.214   6.287   9.953 -0.2494 -0.1617  0.2789
  613POPI    C2 9786  10.519   6.214   9.704 -0.1184  0.1863  0.3312
  613POPI    C3 9787  10.300   5.911   9.848  0.0836 -0.0517  0.1452
  613POPI   PO4 9788  10.019   6.532   9.780 -0.1851  0.0814 -0.1668
  613POPI   GL1 9789   9.617   6.801   9.596  0.1386  0.0712 -0.0253
  613POPI   GL2 9790   9.278   6.690   9.407 -0.1335  0.2263 -0.0276
  613POPI   C1A 9791   9.664   6.901   9.133 -0.1202  0.2695  0.0835
  613POPI   D2A 9792   9.670   7.152   8.668 -0.0745  0.1513 -0.0911
  613POPI   C3A 9793   9.591   7.124   8.315 -0.1108  0.2043 -0.1741
  613POPI   C4A 9794   9.840   6.887   8.098 -0.1764 -0.2218  0.0122
  613POPI   C1B 9795   9.193   6.745   8.908 -0.0479 -0.0089 -0.3449
  613POPI   C2B 9796   9.182   6.840   8.455 -0.2344  0.0811  0.0424
  613POPI   C3B 9797   9.157   6.994   7.973 -0.2111  0.0818 -0.1895
  613POPI   C4B 9798   9.359   6.793   7.592  0.1094 -0.0273 -0.2362
  614POPI    C1 9799  16.608   7.785   9.919  0.2538  0.1359 -0.0491
  614POPI    C2 9800  16.851   8.100   9.877  0.1757  0.1758 -0.2052
  614POPI    C3 9801  16.454   8.153   9.891  0.1751  0.1122  0.0638
  614POPI   PO4 9802  16.754   7.636   9.805  0.1389 -0.2453 -0.1833
  614POPI   GL1 9803  16.957   7.526   9.498 -0.0019 -0.0788 -0.1031
  614POPI   GL2 9804  17.099   7.269   9.399  0.0675 -0.1054 -0.0198
  614POPI   C1A 9805  17.052   7.675   9.069 -0.0616  0.2057 -0.0335
  614POPI   D2A 9806  17.071   7.515   8.738 -0.3943 -0.0351 -0.2894
  614POPI   C3A 9807  16.849   7.735   8.473  0.3401 -0.1480  0.5435
  614POPI   C4A 9808  16.578   7.879   7.958 -0.0514  0.2199  0.1523
  614POPI   C1B 9809  16.900   7.015   9.177 -0.0722  0.3352  0.3495
  614POPI   C2B 9810  16.538   6.883   9.113  0.0620 -0.0126  0.2996
  614POPI   C3B 9811  16.418   6.664   8.786  0.0326 -0.1602 -0.0221
  614POPI   C4B 9812  16.345   6.345   8.439 -0.3969  0.1522 -0.0722
  615POPI    C1 9813  18.233   5.598  10.235  0.1020  0.2599  0.0273
  615POPI    C2 9814  18.086   5.482   9.882 -0.1515  0.3246  0.1094
  615POPI    C3 9815  17.980   5.835  10.036  0.1087  0.3820  0.1628
  615POPI   PO4 9816  18.531   5.562  10.104  0.1905  0.1156 -0.0397
  615POPI   GL1 9817  18.703   5.668   9.701  0.0368  0.0338 -0.2258
  615POPI   GL2 9818  18.831   5.332   9.754 -0.1918  0.0165  0.2196
  615POPI   C1A 9819  18.799   5.668   9.330  0.0778 -0.6111 -0.0963
  615POPI   D2A 9820  18.531   5.757   8.982 -0.0049  0.1321 -0.1469
  615POPI   C3A 9821  18.593   5.813   8.521  0.3516  0.1724  0.1802
  615POPI   C4A 9822  18.470   5.721   8.003 -0.1908  0.2880  0.2368
  615POPI   C1B 9823  18.994   4.940   9.613 -0.2377  0.1174  0.0836
  615POPI   C2B 9824  18.955   4.839   9.197 -0.2337 -0.1588  0.3281
  615POPI   C3B 9825  18.997   4.585   8.704 -0.3599 -0.0765  0.2408
  615POPI   C4B 9826  18.880   4.163   8.848  0.2188  0.1866  0.0693
  616POPI    C1 9827  13.590  18.511   9.420 -0.2714  0.2172  0.0528
  616POPI    C2 9828  13.329  18.357   9.681 -0.3602 -0.0616 -0.1945
  616POPI    C3 9829  13.669  18.162   9.600 -0.1395  0.2269  0.0157
  616POPI   PO4 9830  13.383  18.564   9.150  0.1382  0.3212  0.3207
  616POPI   GL1 9831  13.340  18.543   8.757 -0.0790  0.0990 -0.1119
  616POPI   GL2 9832  13.631  18.452   8.658 -0.2421  0.2777 -0.1562
  616POPI   C1A 9833  13.375  18.889   8.400 -0.3202  0.0508  0.0821
  616POPI   D2A 9834  13.304  19.145   8.007  0.0465 -0.0157 -0.1317
  616POPI   C3A 9835  13.522  19.014   7.618  0.1975 -0.3141 -0.0473
  616POPI   C4A 9836  13.695  19.162   7.253  0.1567 -0.4728  0.1712
  616POPI   C1B 9837  13.805  18.584   8.355  0.5337  0.2257 -0.0013
  616POPI   C2B 9838  14.005  18.600   7.974 -0.1430  0.1105 -0.1044
  616POPI   C3B 9839  13.958  18.760   7.675 -0.0571  0.0033 -0.2489
  616POPI   C4B 9840  13.980  18.723   7.220  0.0017 -0.0452 -0.0180
  617POPI    C1 9841   4.695  13.592   9.628  0.1885 -0.0610 -0.0095
  617POPI    C2 9842   4.351  13.784   9.695  0.0689 -0.2887  0.0395
  617POPI    C3 9843   4.512  13.558   9.982  0.2684 -0.1711  0.0216
  617POPI   PO4 9844   4.685  13.400   9.369 -0.2207  0.0828  0.1333
  617POPI   GL1 9845   4.898  13.213   9.049  0.2482  0.1386 -0.1637
  617POPI   GL2 9846   4.845  12.784   9.000  0.0075 -0.0953  0.1685
  617POPI   C1A 9847   4.989  13.232   8.579  0.0941  0.2121  0.0368
  617POPI   D2A 9848   4.944  13.455   8.210  0.0306  0.0392 -0.0027
  617POPI   C3A 9849   4.661  13.682   7.905  0.1876  0.0179  0.1974
  617POPI   C4A 9850   4.362  14.022   7.765  0.2316 -0.0116  0.0103
  617POPI   C1B 9851   4.755  12.644   8.646 -0.0181 -0.1411  0.3889
  617POPI   C2B 9852   4.799  12.803   8.196  0.3673  0.4536 -0.0528
  617POPI   C3B 9853   5.171  13.055   7.897 -0.3556  0.1016 -0.1773
  617POPI   C4B 9854   5.108  13.422   7.656 -0.0155 -0.0188  0.0375
  618POPI    C1 9855  10.881  18.397   9.207  0.1809  0.3927  0.0685
  618POPI    C2 9856  11.186  18.489   8.965  0.0233 -0.1499 -0.3583
  618POPI    C3 9857  11.239  18.228   9.262  0.0511  0.0047 -0.2262
  618POPI   PO4 9858  10.713  18.335   9.006 -0.0748  0.1305  0.1063
  618POPI   GL1 9859  10.720  18.377   8.552 -0.0345  0.0495 -0.1413
  618POPI   GL2 9860  10.827  18.696   8.684  0.0839  0.0425  0.2626
  618POPI   C1A 9861  10.777  18.507   8.099 -0.0228  0.0664  0.2876
  618POPI   D2A 9862  10.907  18.786   7.808 -0.2841 -0.0261 -0.4401
  618POPI   C3A 9863  10.913  18.555   7.408  0.3392 -0.1836 -0.0615
  618POPI   C4A 9864  10.907  18.499   6.948  0.0496  0.2623  0.2190
  618POPI   C1B 9865  10.935  18.903   8.380  0.2580 -0.0612 -0.1083
  618POPI   C2B 9866  11.274  18.928   8.130  0.2813  0.1812  0.3208
  618POPI   C3B 9867  11.433  18.688   7.822  0.2631 -0.1303 -0.1184
  618POPI   C4B 9868  11.373  18.640   7.437  0.0418  0.3830  0.0047
  619POPI    C1 9869   0.767   5.174  10.867 -0.0842  0.0784 -0.1355
  619POPI    C2 9870   0.658   5.525  11.025  0.0531  0.0085  0.1192
  619POPI    C3 9871   0.585   5.184  11.223  0.0705 -0.0942 -0.0495
  619POPI   PO4 9872   0.685   5.110  10.640 -0.0452  0.1653 -0.0448
  619POPI   GL1 9873   0.736   4.854  10.206 -0.1624  0.0154 -0.0011
  619POPI   GL2 9874   0.464   4.606  10.194  0.1469  0.0926 -0.0725
  619POPI   C1A 9875   0.869   4.789   9.780  0.0655  0.1374  0.1761
  619POPI   D2A 9876   0.594   4.947   9.409  0.1145 -0.2571 -0.2065
  619POPI   C3A 9877   0.667   4.914   9.000 -0.1476  0.0345  0.1029
  619POPI   C4A 9878   0.814   4.756   8.578  0.2281 -0.0793  0.3049
  619POPI   C1B 9879   0.248   4.952   9.795 -0.4001 -0.2713 -0.1209
  619POPI   C2B 9880   0.067   4.882   9.553  0.1353  0.1295 -0.0360
  619POPI   C3B 9881   0.166   4.853   9.228  0.1016 -0.1124 -0.0662
  619POPI   C4B 9882  -0.042   4.825   8.904 -0.0215 -0.1043 -0.1404
  620POPI    C1 9883   6.270   9.637   9.868 -0.0037  0.2320  0.0452
  620POPI    C2 9884   6.337   9.848  10.201  0.0676  0.1531  0.0815
  620POPI    C3 9885   6.462   9.469  10.177  0.1877  0.2026 -0.0878
  620POPI   PO4 9886   6.011   9.570   9.757  0.2673 -0.0660  0.1701
  620POPI   GL1 9887   5.634   9.764   9.513 -0.2159  0.0241  0.1850
  620POPI   GL2 9888   5.416   9.982   9.260 -0.2019 -0.0993  0.0960
  620POPI   C1A 9889   5.562   9.522   9.176  0.0776  0.0122  0.0812
  620POPI   D2A 9890   5.498   9.197   8.886  0.2078 -0.0017  0.0563
  620POPI   C3A 9891   5.493   9.084   8.411 -0.1172 -0.1197 -0.0067
  620POPI   C4A 9892   5.486   8.872   7.993 -0.2264  0.0467 -0.0571
  620POPI   C1B 9893   5.510   9.933   8.752  0.0498  0.1170 -0.2509
  620POPI   C2B 9894   5.688   9.908   8.329 -0.1571  0.1710 -0.0108
  620POPI   C3B 9895   5.481   9.973   7.934 -0.0283  0.0581  0.1087
  620POPI   C4B 9896   5.361   9.780   7.525  0.4169  0.0308  0.1106
  621POPI    C1 9897   2.486  13.735   9.871  0.1710 -0.1001  0.0696
  621POPI    C2 9898   2.325  13.828  10.224 -0.0599 -0.0849 -0.0378
  621POPI    C3 9899   2.373  13.444  10.121  0.0467 -0.0892  0.0269
  621POPI   PO4 9900   2.569  13.964   9.837 -0.1298 -0.0466  0.0150
  621POPI   GL1 9901   2.544  14.195   9.408  0.2364  0.1666 -0.1105
  621POPI   GL2 9902   2.408  14.512   9.503 -0.0366  0.0532  0.3448
  621POPI   C1A 9903   2.315  14.173   9.021 -0.1758 -0.0031 -0.1426
  621POPI   D2A 9904   2.191  13.932   8.638 -0.1518 -0.1153  0.0620
  621POPI   C3A 9905   2.116  14.101   8.280  0.0781 -0.0732 -0.0313
  621POPI   C4A 9906   1.827  14.237   7.909 -0.1425 -0.0751 -0.1988
  621POPI   C1B 9907   2.368  14.659   9.036  0.0960  0.1650 -0.1530
  621POPI   C2B 9908   2.335  14.660   8.626 -0.5697  0.1823 -0.0337
  621POPI   C3B 9909   2.069  14.611   8.277 -0.2989  0.1366  0.0886
  621POPI   C4B 9910   2.150  14.636   7.714  0.1606  0.1656  0.1653
  622POPI    C1 9911  10.880   4.305  10.109  0.2244 -0.2656 -0.1005
  622POPI    C2 9912  11.235   4.371  10.280  0.1956 -0.0897 -0.1071
  622POPI    C3 9913  10.919   4.594  10.383  0.0871 -0.2449 -0.1018
  622POPI   PO4 9914  10.877   4.279   9.790  0.0452 -0.2782 -0.0610
  622POPI   GL1 9915  11.020   4.336   9.345 -0.1046  0.0258 -0.2036
  622POPI   GL2 9916  11.036   4.615   9.296 -0.3069 -0.1661  0.0075
  622POPI   C1A 9917  11.259   4.364   8.881  0.0361 -0.1591  0.0206
  622POPI   D2A 9918  11.569   4.693   8.764 -0.0747  0.0542 -0.2120
  622POPI   C3A 9919  11.650   4.653   8.385  0.1191  0.0297  0.0290
  622POPI   C4A 9920  11.548   4.732   7.935 -0.2827 -0.2769  0.0728
  622POPI   C1B 9921  10.852   4.586   8.916 -0.1992  0.1767  0.0683
  622POPI   C2B 9922  11.022   4.752   8.566 -0.2256 -0.0688  0.0961
  622POPI   C3B 9923  11.282   5.017   8.472 -0.2103 -0.0029 -0.0700
  622POPI   C4B 9924  11.754   5.109   8.305  0.1430 -0.1969  0.2019
  623POPI    C1 9925   7.643  19.037   9.795  0.0513  0.2354 -0.0940
  623POPI    C2 9926   8.020  19.051   9.928  0.1067  0.2617 -0.2517
  623POPI    C3 9927   7.750  19.313  10.063  0.1015  0.1326 -0.0076
  623POPI   PO4 9928   7.572  19.095   9.530 -0.2084 -0.1262 -0.1909
  623POPI   GL1 9929   7.546  19.214   9.162 -0.0759  0.3845 -0.2652
  623POPI   GL2 9930   7.672  18.988   9.033 -0.1953  0.1508 -0.1535
  623POPI   C1A 9931   7.494  19.375   8.708 -0.1089  0.0513  0.1945
  623POPI   D2A 9932   7.512  19.634   8.353  0.5444 -0.0292 -0.1801
  623POPI   C3A 9933   7.381  19.461   7.976 -0.2973  0.0450 -0.1172
  623POPI   C4A 9934   7.397  19.248   7.635  0.5424  0.0205 -0.1193
  623POPI   C1B 9935   7.520  18.829   8.675  0.1971  0.2819  0.0727
  623POPI   C2B 9936   7.487  18.904   8.155 -0.0329  0.1597 -0.4232
  623POPI   C3B 9937   7.599  18.765   7.739  0.0983 -0.0676  0.2706
  623POPI   C4B 9938   7.590  18.547   7.273  0.0315  0.0806 -0.6993
  624POPI    C1 9939  10.800  19.268   9.571 -0.0110 -0.1950  0.0488
  624POPI    C2 9940  11.158  19.235   9.746 -0.0031  0.0929  0.0911
  624POPI    C3 9941  10.825  19.195   9.963  0.0051  0.1061  0.1063
  624POPI   PO4 9942  10.757  19.547   9.446 -0.1971 -0.0372  0.0292
  624POPI   GL1 9943  10.501  19.871   9.083  0.0275 -0.3423  0.1377
  624POPI   GL2 9944  10.196  19.846   8.999 -0.7357 -0.0835 -0.0450
  624POPI   C1A 9945  10.655  20.025   8.655 -0.1080  0.0240 -0.1085
  624POPI   D2A 9946  10.624  19.977   8.244 -0.0216 -0.2701 -0.2966
  624POPI   C3A 9947  10.403  20.121   7.957 -0.0663  0.0032  0.1836
  624POPI   C4A 9948  10.391  20.388   7.586 -0.0676 -0.0310  0.0813
  624POPI   C1B 9949   9.881  19.720   8.700  0.1523  0.1784 -0.2066
  624POPI   C2B 9950   9.567  19.661   8.430 -0.0405 -0.4812 -0.0122
  624POPI   C3B 9951   9.446  19.849   8.107  0.0380  0.0099  0.3628
  624POPI   C4B 9952   9.385  20.107   7.636  0.1031  0.0454 -0.0213
  625DPPI    C1 9953  15.761   2.324   9.906 -0.1557  0.1768  0.0035
  625DPPI    C2 9954  15.408   2.167  10.011 -0.0534 -0.0156  0.0649
  625DPPI    C3 9955  15.740   2.060  10.206  0.1280 -0.3046 -0.3865
  625DPPI   PO4 9956  15.727   2.307   9.609 -0.1828  0.3664 -0.2330
  625DPPI   GL1 9957  15.437   2.171   9.339  0.3496 -0.1959 -0.0193
  625DPPI   GL2 9958  15.140   2.219   9.225  0.1255 -0.4535 -0.2420
  625DPPI   C1A 9959  15.546   2.316   8.897  0.1381 -0.0482 -0.2718
  625DPPI   C2A 9960  15.902   2.303   8.543  0.0851 -0.1957  0.2211
  625DPPI   C3A 9961  15.884   2.363   8.133  0.1726 -0.0280 -0.2382
  625DPPI   C4A 9962  16.003   2.497   7.785 -0.1259  0.1320  0.0803
  625DPPI   C1B 9963  15.025   2.060   8.811 -0.4254  0.0520 -0.3167
  625DPPI   C2B 9964  15.011   1.943   8.388 -0.0014  0.1409  0.2518
  625DPPI   C3B 9965  15.023   2.040   8.050 -0.3609 -0.1231  0.3958
  625DPPI   C4B 9966  15.011   2.299   7.586 -0.2112 -0.1853  0.1943
  626DPPI    C1 9967   9.447  13.473   9.330  0.3029  0.3900  0.2911
  626DPPI    C2 9968   9.200  13.693   9.105  0.2227  0.0219  0.0111
  626DPPI    C3 9969   9.240  13.773   9.495  0.0062  0.3693 -0.0343
  626DPPI   PO4 9970   9.434  13.263   9.253 -0.0810  0.0916  0.1497
  626DPPI   GL1 9971   9.319  12.949   8.850  0.1203  0.1656 -0.1640
  626DPPI   GL2 9972   9.275  13.321   8.774 -0.1926 -0.3140 -0.2754
  626DPPI   C1A 9973   9.326  12.644   8.502 -0.0145  0.1966 -0.1569
  626DPPI   C2A 9974   9.269  12.714   8.098  0.2166  0.1197  0.3154
  626DPPI   C3A 9975   9.335  12.560   7.691  0.3044 -0.0414 -0.3586
  626DPPI   C4A 9976   9.331  12.414   7.380 -0.1038  0.0536 -0.0226
  626DPPI   C1B 9977   9.390  13.525   8.507 -0.1488 -0.1271  0.0324
  626DPPI   C2B 9978   9.328  13.800   8.275 -0.0566  0.2117 -0.1881
  626DPPI   C3B 9979   9.419  13.844   7.863 -0.0457  0.1941  0.0335
  626DPPI   C4B 9980   9.489  14.041   7.434  0.1538 -0.0826 -0.1078
  627DPPI    C1 9981  11.456  18.797   9.344  0.2453 -0.3310  0.1529
  627DPPI    C2 9982  11.634  18.795   9.702 -0.0663  0.0006  0.3170
  627DPPI    C3 9983  11.563  19.142   9.517  0.0232 -0.1645 -0.0347
  627DPPI   PO4 9984  11.631  18.623   9.231 -0.1913 -0.1464 -0.1178
  627DPPI   GL1 9985  11.824  18.554   8.837  0.0089  0.2283 -0.0596
  627DPPI   GL2 9986  12.047  18.867   8.956  0.2298  0.0449 -0.2042
  627DPPI   C1A 9987  11.652  18.497   8.395  0.2185 -0.1029  0.2068
  627DPPI   C2A 9988  11.751  18.370   8.011 -0.0696 -0.0551 -0.3438
  627DPPI   C3A 9989  11.698  18.295   7.596 -0.0012  0.0187 -0.1193
  627DPPI   C4A 9990  11.906  18.396   7.236 -0.2705  0.1714 -0.2332
  627DPPI   C1B 9991  12.028  18.881   8.540  0.2141  0.1613  0.1589
  627DPPI   C2B 9992  11.800  18.880   8.188 -0.1878 -0.3033 -0.0425
  627DPPI   C3B 9993  11.968  18.833   7.838  0.3749  0.0771  0.0709
  627DPPI   C4B 9994  12.133  18.610   7.639  0.1135 -0.2316 -0.0731
  628DPPI    C1 9995  13.145   1.556   9.773 -0.2532  0.0531  0.0766
  628DPPI    C2 9996  13.444   1.463  10.023 -0.3046  0.1018  0.1565
  628DPPI    C3 9997  13.138   1.210   9.974 -0.1281 -0.0640 -0.1170
  628DPPI   PO4 9998  13.299   1.611   9.562  0.0271  0.4702  0.0787
  628DPPI   GL1 9999  13.190   1.602   9.074 -0.2481 -0.1992  0.1080
  628DPPI   GL210000  13.172   1.914   9.148 -0.3031 -0.0230 -0.2575
  628DPPI   C1A10001  13.094   1.497   8.587  0.0509  0.2501 -0.0103
  628DPPI   C2A10002  13.191   1.638   8.216  0.1161  0.1529 -0.0544
  628DPPI   C3A10003  13.194   1.770   7.820  0.2887  0.0805  0.2026
  628DPPI   C4A10004  13.343   1.809   7.432  0.2274 -0.0975 -0.0178
  628DPPI   C1B10005  13.493   2.132   8.959  0.3299 -0.0690  0.0695
  628DPPI   C2B10006  13.543   2.361   8.585  0.2971  0.3243 -0.2719
  628DPPI   C3B10007  13.655   2.688   8.374  0.0083  0.0544 -0.0719
  628DPPI   C4B10008  13.755   3.114   8.232 -0.2982 -0.1401 -0.0273
  629DPPI    C110009   9.435  11.435   9.465  0.1592 -0.0593 -0.0409
  629DPPI    C210010   9.728  11.614   9.670  0.2218 -0.1796 -0.0248
  629DPPI    C310011   9.580  11.264   9.796 -0.1047  0.0030  0.1100
  629DPPI   PO410012   9.509  11.433   9.163  0.3980  0.0692  0.0408
  629DPPI   GL110013   9.329  11.671   8.878 -0.0400 -0.1323 -0.0736
  629DPPI   GL210014   9.615  11.804   8.805 -0.0068 -0.2257  0.2007
  629DPPI   C1A10015   9.382  11.506   8.478 -0.0620 -0.2493  0.0356
  629DPPI   C2A10016   9.510  11.714   8.130  0.1577 -0.1043  0.1448
  629DPPI   C3A10017   9.371  11.815   7.730  0.0685 -0.3471 -0.3461
  629DPPI   C4A10018   9.235  11.605   7.299 -0.1977  0.4409 -0.3185
  629DPPI   C1B10019   9.811  11.966   8.474 -0.3366  0.0530  0.0558
  629DPPI   C2B10020  10.037  11.896   8.053 -0.0562 -0.1223 -0.2051
  629DPPI   C3B10021  10.077  11.801   7.602  0.3736  0.2455  0.1158
  629DPPI   C4B10022  10.123  11.905   7.125 -0.0239  0.0605 -0.1357
  630DPPI    C110023   4.254  14.378   9.880  0.1542  0.1571 -0.0015
  630DPPI    C210024   4.259  14.043  10.099 -0.2049  0.0015 -0.2225
  630DPPI    C310025   4.571  14.293  10.109 -0.1324 -0.0984  0.3118
  630DPPI   PO410026   4.182  14.420   9.601  0.2339  0.0172 -0.0518
  630DPPI   GL110027   4.035  14.781   9.315 -0.1637  0.1273 -0.2852
  630DPPI   GL210028   3.882  14.454   9.174  0.3449 -0.1638  0.1537
  630DPPI   C1A10029   3.802  15.010   9.074  0.1172 -0.0697  0.3596
  630DPPI   C2A10030   3.654  15.242   8.645  0.2002  0.0062  0.0927
  630DPPI   C3A10031   3.791  15.453   8.347 -0.0904  0.0082 -0.0379
  630DPPI   C4A10032   4.054  15.530   7.972 -0.1258 -0.1537 -0.2583
  630DPPI   C1B10033   3.861  14.307   8.778 -0.0871 -0.5225  0.3936
  630DPPI   C2B10034   3.847  14.442   8.416 -0.3522 -0.0376  0.2303
  630DPPI   C3B10035   3.527  14.375   8.127  0.2654 -0.4214 -0.3150
  630DPPI   C4B10036   3.695  14.316   7.780 -0.1834  0.2871  0.1119
  631DPPI    C110037  12.488   8.391   9.808  0.0282 -0.0268 -0.0252
  631DPPI    C210038  12.456   8.699  10.062  0.0343  0.0695 -0.1404
  631DPPI    C310039  12.411   8.324  10.195 -0.0774  0.1250 -0.0191
  631DPPI   PO410040  12.356   8.439   9.512  0.0097  0.3242  0.0807
  631DPPI   GL110041  12.436   8.296   9.154 -0.2735 -0.0924 -0.0303
  631DPPI   GL210042  12.871   8.330   9.393 -0.0962 -0.0643  0.1089
  631DPPI   C1A10043  12.169   8.050   8.909  0.1548  0.0607  0.1291
  631DPPI   C2A10044  11.952   8.081   8.497  0.3052  0.3088 -0.0890
  631DPPI   C3A10045  11.806   8.421   8.246 -0.2840  0.1085 -0.4178
  631DPPI   C4A10046  11.693   8.575   7.872  0.1434  0.1452  0.1608
  631DPPI   C1B10047  12.845   8.287   8.890  0.0360  0.1257  0.0282
  631DPPI   C2B10048  12.855   8.358   8.441 -0.2596  0.1191 -0.2393
  631DPPI   C3B10049  12.731   8.289   8.021 -0.2899 -0.2624  0.4608
  631DPPI   C4B10050  12.905   8.420   7.645  0.1656 -0.3301  0.1525
  632DPPI    C110051  19.367  17.315  10.001 -0.1652  0.1265 -0.0976
  632DPPI    C210052  19.497  17.397  10.370  0.2092 -0.1388 -0.1648
  632DPPI    C310053  19.199  17.135  10.317 -0.1012  0.1789 -0.0335
  632DPPI   PO410054  19.515  17.560   9.887  0.0060 -0.0610 -0.4780
  632DPPI   GL110055  19.534  17.580   9.445  0.1851  0.2285  0.0240
  632DPPI   GL210056  19.514  17.975   9.457 -0.0392  0.0086 -0.3360
  632DPPI   C1A10057  19.449  17.686   9.068 -0.3498 -0.2332 -0.0790
  632DPPI   C2A10058  19.506  17.636   8.630 -0.0562  0.2262  0.0972
  632DPPI   C3A10059  19.852  17.644   8.389  0.2040 -0.0196  0.2077
  632DPPI   C4A10060  20.241  17.589   8.038 -0.0870 -0.1615 -0.1609
  632DPPI   C1B10061  19.668  18.289   9.171 -0.2953  0.0447  0.0901
  632DPPI   C2B10062  19.774  18.741   9.028 -0.1034 -0.0162  0.3058
  632DPPI   C3B10063  20.002  19.097   8.996 -0.0395  0.0547  0.1043
  632DPPI   C4B10064  20.170  19.493   9.090 -0.0392  0.0471  0.4142
  633DPPI    C110065   6.739   5.725  10.456  0.0236  0.0536 -0.0706
  633DPPI    C210066   6.916   5.932  10.749  0.1737 -0.0628 -0.0779
  633DPPI    C310067   6.742   5.580  10.829  0.0666 -0.0146 -0.0972
  633DPPI   PO410068   6.661   5.883  10.061 -0.2230 -0.1082  0.1174
  633DPPI   GL110069   6.786   5.925   9.619  0.0645  0.3744 -0.0901
  633DPPI   GL210070   6.854   6.212   9.349 -0.1121 -0.0003 -0.4118
  633DPPI   C1A10071   6.608   5.674   9.212 -0.0518 -0.1808  0.1865
  633DPPI   C2A10072   6.406   5.319   8.977  0.0669  0.1234  0.0698
  633DPPI   C3A10073   6.581   4.958   8.783  0.3108  0.2163 -0.0134
  633DPPI   C4A10074   6.892   4.668   8.895  0.0847 -0.3630  0.0732
  633DPPI   C1B10075   6.892   6.148   8.809 -0.1232  0.3718 -0.1827
  633DPPI   C2B10076   6.787   5.973   8.366 -0.0328  0.2481  0.0479
  633DPPI   C3B10077   6.710   5.872   7.945 -0.2933 -0.1622 -0.2049
  633DPPI   C4B10078   6.760   5.816   7.509 -0.0690 -0.0258  0.1008
  634DPPI    C110079  19.282   1.169  10.376  0.1200 -0.0782  0.0663
  634DPPI    C210080  19.559   1.430  10.499 -0.0436  0.2256 -0.1968
  634DPPI    C310081  19.256   1.332  10.741  0.0806  0.1898 -0.0541
  634DPPI   PO410082  19.254   1.181  10.062  0.0118 -0.0096  0.0380
  634DPPI   GL110083  19.426   1.284   9.657 -0.2528 -0.1150 -0.3496
  634DPPI   GL210084  19.842   1.260   9.732  0.3431  0.0825 -0.2961
  634DPPI   C1A10085  19.451   1.563   9.317  0.1186 -0.1581 -0.0344
  634DPPI   C2A10086  19.689   1.501   8.928  0.0768 -0.1520 -0.1491
  634DPPI   C3A10087  19.936   1.386   8.555  0.1748  0.3257  0.2414
  634DPPI   C4A10088  20.232   1.350   8.122  0.0475 -0.0429  0.3019
  634DPPI   C1B10089  19.879   1.402   9.392 -0.3658  0.1268 -0.1899
  634DPPI   C2B10090  20.181   1.392   9.070  0.2719  0.1716 -0.1040
  634DPPI   C3B10091  20.050   1.043   8.968  0.1355 -0.0666 -0.0791
  634DPPI   C4B10092  19.955   0.894   9.405  0.0355 -0.0760  0.1366
  635PYPI    C110093   9.692  14.835   9.738  0.1490  0.1175  0.1025
  635PYPI    C210094  10.054  14.734   9.875  0.0082 -0.1165  0.3104
  635PYPI    C310095   9.781  14.886  10.125 -0.1464 -0.2510  0.2253
  635PYPI   PO410096   9.716  14.952   9.553 -0.3302 -0.1541 -0.1700
  635PYPI   GL110097   9.721  15.187   9.132  0.0993  0.0159  0.1162
  635PYPI   GL210098   9.820  15.501   9.104  0.1006  0.0810  0.0049
  635PYPI   C1A10099   9.817  15.223   8.648 -0.0529  0.0410 -0.0014
  635PYPI   C2A10100   9.639  15.339   8.296 -0.0621  0.2451  0.1098
  635PYPI   D3A10101   9.329  15.114   8.125  0.0918 -0.3687 -0.0355
  635PYPI   C4A10102   8.838  15.044   8.213  0.2597 -0.1396 -0.1098
  635PYPI   C1B10103   9.476  15.663   8.780 -0.2029  0.0773 -0.1075
  635PYPI   C2B10104   9.353  15.913   8.298  0.3268  0.1617 -0.0457
  635PYPI   C3B10105   9.482  16.026   7.978  0.0612 -0.0195 -0.0748
  635PYPI   C4B10106   9.402  16.340   7.674  0.0818 -0.0184 -0.3698
  636PYPI    C110107   4.678  11.867   9.548 -0.0775  0.1785 -0.0040
  636PYPI    C210108   4.383  11.953   9.805  0.0021  0.2065  0.0787
  636PYPI    C310109   4.740  11.835   9.942  0.0441  0.2177 -0.0197
  636PYPI   PO410110   4.539  11.895   9.333  0.0501 -0.4303 -0.2482
  636PYPI   GL110111   4.465  11.652   9.000 -0.1704 -0.2096  0.3861
  636PYPI   GL210112   4.398  11.379   9.074  0.1384  0.1184  0.0415
  636PYPI   C1A10113   4.577  12.137   8.797  0.2717 -0.2311 -0.0592
  636PYPI   C2A10114   4.551  12.233   8.430 -0.3030 -0.0978 -0.1025
  636PYPI   D3A10115   4.715  12.340   7.952  0.0264 -0.0540 -0.4131
  636PYPI   C4A10116   4.672  12.691   7.698 -0.0237  0.1040 -0.2581
  636PYPI   C1B10117   4.677  11.274   8.686 -0.0986  0.4135 -0.0524
  636PYPI   C2B10118   4.910  11.303   8.339 -0.2364 -0.0581  0.0813
  636PYPI   C3B10119   5.136  11.079   8.092 -0.0112 -0.0137  0.0323
  636PYPI   C4B10120   5.078  10.811   7.732 -0.1878  0.0336 -0.0719
  637PYPI    C110121  11.726  18.041   9.431 -0.1612  0.1445  0.3159
  637PYPI    C210122  11.935  17.733   9.284 -0.1597  0.3276 -0.0788
  637PYPI    C310123  11.759  17.703   9.642 -0.1504 -0.1255 -0.1065
  637PYPI   PO410124  11.729  18.152   9.156 -0.0712 -0.0724  0.1876
  637PYPI   GL110125  11.568  18.144   8.783 -0.0574  0.0290 -0.1085
  637PYPI   GL210126  11.209  18.005   8.816 -0.1206 -0.2571 -0.0300
  637PYPI   C1A10127  11.541  17.985   8.385 -0.2772  0.0983  0.2528
  637PYPI   C2A10128  11.559  17.920   7.993  0.2446  0.2103  0.0020
  637PYPI   D3A10129  11.790  17.833   7.688  0.1711 -0.1379  0.1055
  637PYPI   C4A10130  11.753  17.957   7.219  0.2890  0.0818 -0.1505
  637PYPI   C1B10131  10.904  17.900   8.464  0.3495 -0.2661 -0.0061
  637PYPI   C2B10132  10.701  18.056   8.108 -0.1907  0.4568  0.0587
  637PYPI   C3B10133  10.739  18.093   7.667  0.0631 -0.0823  0.0121
  637PYPI   C4B10134  10.808  17.871   7.322  0.1667  0.1639 -0.1371
  638PYPI    C110135  18.089   3.428  10.085  0.0633  0.1042  0.2450
  638PYPI    C210136  18.293   3.481   9.746  0.1262 -0.0635  0.2555
  638PYPI    C310137  18.248   3.113   9.896  0.2778  0.0311  0.5396
  638PYPI   PO410138  17.886   3.628  10.072 -0.1341 -0.0236 -0.0036
  638PYPI   GL110139  17.809   3.756   9.771  0.0384  0.0487 -0.0295
  638PYPI   GL210140  18.113   3.962   9.778  0.0159 -0.0145  0.2770
  638PYPI   C1A10141  17.765   4.072   9.346  0.0623 -0.0322  0.2014
  638PYPI   C2A10142  17.732   4.175   9.007  0.0633  0.0475  0.1923
  638PYPI   D3A10143  17.522   4.309   8.616  0.3109  0.2607  0.1035
  638PYPI   C4A10144  17.700   4.479   8.314  0.1392 -0.3536  0.1258
  638PYPI   C1B10145  18.082   3.696   9.369 -0.1511 -0.1655 -0.0678
  638PYPI   C2B10146  18.091   3.760   8.931  0.1069  0.0663  0.1775
  638PYPI   C3B10147  18.091   4.052   8.710 -0.0173 -0.2321 -0.2923
  638PYPI   C4B10148  18.218   4.114   8.259 -0.0434  0.1945 -0.3905
  639PYPI    C110149   1.437  17.052  10.341  0.0466  0.2346 -0.0662
  639PYPI    C210150   1.449  17.361  10.596  0.3262 -0.0593  0.2879
  639PYPI    C310151   1.249  17.028  10.693  0.4341 -0.1740  0.1235
  639PYPI   PO410152   1.423  17.224  10.090  0.0160 -0.1284  0.1123
  639PYPI   GL110153   1.622  17.294   9.762 -0.1511  0.0829 -0.1630
  639PYPI   GL210154   1.933  17.451   9.692 -0.1443  0.1484  0.0501
  639PYPI   C1A10155   1.370  17.149   9.412 -0.2446  0.1089 -0.1409
  639PYPI   C2A10156   1.093  17.122   9.165  0.1704  0.0154  0.2365
  639PYPI   D3A10157   0.964  17.430   8.841  0.1596  0.1055 -0.0768
  639PYPI   C4A10158   1.344  17.607   8.502 -0.2478 -0.0701 -0.0766
  639PYPI   C1B10159   1.660  17.543   9.332 -0.2914  0.1485  0.1750
  639PYPI   C2B10160   1.445  17.468   8.980 -0.0456  0.2591 -0.0413
  639PYPI   C3B10161   1.490  17.149   8.715  0.2430  0.0935  0.2641
  639PYPI   C4B10162   1.403  16.735   8.510 -0.1864 -0.3742 -0.0064
  640PYPI    C110163   1.026   9.774   9.578  0.0013  0.1176  0.0425
  640PYPI    C210164   1.053   9.776   9.977 -0.0308 -0.0235  0.0459
  640PYPI    C310165   0.704   9.859   9.800 -0.0438 -0.0687  0.0500
  640PYPI   PO410166   1.298   9.955   9.552 -0.0882 -0.4005  0.0478
  640PYPI   GL110167   1.332  10.126   9.208  0.2218  0.2049  0.1918
  640PYPI   GL210168   1.594  10.006   9.045  0.0890 -0.2822 -0.3487
  640PYPI   C1A10169   1.313  10.211   8.649 -0.1360  0.3081  0.1095
  640PYPI   C2A10170   1.494  10.159   8.202 -0.0052 -0.3732 -0.2341
  640PYPI   D3A10171   1.639  10.006   7.862  0.3277 -0.0846  0.2689
  640PYPI   C4A10172   1.805  10.075   7.421  0.1191  0.3080  0.2076
  640PYPI   C1B10173   1.674   9.778   8.800 -0.0511  0.1723 -0.0369
  640PYPI   C2B10174   1.787   9.751   8.345 -0.5414  0.0476  0.3975
  640PYPI   C3B10175   1.818   9.479   7.896  0.1709 -0.2010 -0.3282
  640PYPI   C4B10176   1.842   9.454   7.459  0.0498  0.0194  0.0005
  641ERGO   ROH10177   9.160   0.810   8.743  0.2170  0.2035  0.0262
  641ERGO    R110178   9.050   0.805   8.482  0.1780 -0.1012  0.0455
  641ERGO    R210179   8.975   1.034   8.348 -0.0956 -0.2748 -0.1059
  641ERGO    R310180   9.139   0.935   8.155 -0.0189 -0.2326 -0.0632
  641ERGO    R410181   8.999   1.158   8.026 -0.0943 -0.3103 -0.1198
  641ERGO    R510182   9.011   0.953   7.953  0.0070 -0.3169 -0.0884
  641ERGO    C110183   9.167   1.138   7.658 -0.0215 -0.2913 -0.0879
  641ERGO    C210184   9.183   1.112   7.373  0.4531  0.0422  0.0970
  642ERGO   ROH10185  10.673   1.101   8.864  0.4169 -0.1500  0.0637
  642ERGO    R110186  10.726   1.111   8.586  0.2738 -0.0311  0.0401
  642ERGO    R210187  10.540   1.035   8.397  0.1904  0.0138  0.1059
  642ERGO    R310188  10.588   1.284   8.297  0.0979  0.0612  0.1765
  642ERGO    R410189  10.525   1.120   8.062  0.3296  0.0593  0.1101
  642ERGO    R510190  10.702   1.244   8.090  0.2415  0.1633  0.2330
  642ERGO    C110191  10.561   1.402   7.773  0.3238  0.1303  0.1789
  642ERGO    C210192  10.619   1.456   7.386  0.0781 -0.1193 -0.0533
  643ERGO   ROH10193   2.664  11.553   8.834 -0.1763  0.1391  0.0240
  643ERGO    R110194   2.630  11.435   8.579 -0.0390  0.0901  0.0278
  643ERGO    R210195   2.482  11.553   8.379 -0.0458 -0.0136 -0.0287
  643ERGO    R310196   2.710  11.521   8.235  0.0141  0.0921  0.0407
  643ERGO    R410197   2.516  11.631   8.044  0.0560  0.1051  0.0081
  643ERGO    R510198   2.634  11.450   8.019  0.1104  0.1438 -0.0105
  643ERGO    C110199   2.750  11.647   7.713  0.1716  0.2734  0.0946
  643ERGO    C210200   2.778  11.640   7.369  0.1374 -0.1396 -0.0663
  644ERGO   ROH10201   9.529   7.846   5.522 -0.1476 -0.2425 -0.0004
  644ERGO    R110202   9.573   8.001   5.755 -0.1336 -0.1029 -0.0962
  644ERGO    R210203   9.374   8.050   5.942 -0.0841 -0.0992 -0.0543
  644ERGO    R310204   9.558   7.948   6.115  0.0234  0.0786 -0.0591
  644ERGO    R410205   9.388   8.120   6.280 -0.2264 -0.1647 -0.0333
  644ERGO    R510206   9.605   8.128   6.265 -0.2234  0.1090 -0.0046
  644ERGO    C110207   9.568   8.066   6.639 -0.2085 -0.0360 -0.0256
  644ERGO    C210208   9.626   7.951   6.973  0.0836  0.4285 -0.0401
  645ERGO   ROH10209  15.129   9.757   8.847  0.2749 -0.1635  0.0529
  645ERGO    R110210  15.161   9.807   8.570  0.2049 -0.0499  0.0637
  645ERGO    R210211  15.299   9.635   8.402  0.1928  0.0323 -0.0393
  645ERGO    R310212  15.068   9.641   8.259  0.1563  0.0573  0.0225
  645ERGO    R410213  15.243   9.459   8.110  0.1095  0.0957 -0.0608
  645ERGO    R510214  15.140   9.634   8.031  0.0885  0.1051  0.0042
  645ERGO    C110215  14.993   9.364   7.805  0.0268  0.1561 -0.0153
  645ERGO    C210216  14.965   9.181   7.545  0.0456 -0.1557  0.4024
  646ERGO   ROH10217  10.292   8.823   9.420 -0.2107 -0.1426  0.0036
  646ERGO    R110218  10.440   8.843   9.180 -0.0891 -0.1534  0.0755
  646ERGO    R210219  10.609   8.643   9.091 -0.1450 -0.2178  0.0998
  646ERGO    R310220  10.459   8.662   8.865 -0.0372 -0.0832  0.0394
  646ERGO    R410221  10.720   8.565   8.774 -0.0848 -0.2927  0.1400
  646ERGO    R510222  10.613   8.739   8.698  0.0908 -0.2026  0.1048
  646ERGO    C110223  10.645   8.536   8.377  0.0516 -0.2100  0.1068
  646ERGO    C210224  10.724   8.485   7.962 -0.3248  0.2312 -0.3710
  647ERGO   ROH10225  14.418  14.140   8.758 -0.2452  0.0561 -0.1673
  647ERGO    R110226  14.507  14.205   8.497 -0.2363  0.0754 -0.1591
  647ERGO    R210227  14.629  14.020   8.331 -0.1915  0.1012 -0.1498
  647ERGO    R310228  14.432  14.094   8.158 -0.1889  0.0681 -0.1681
  647ERGO    R410229  14.607  13.918   8.002 -0.2450 -0.0594 -0.0979
  647ERGO    R510230  14.544  14.120   7.948 -0.1974 -0.0657 -0.1927
  647ERGO    C110231  14.409  13.928   7.648 -0.2737 -0.1839 -0.0848
  647ERGO    C210232  14.255  14.120   7.396 -0.0443  0.3499  0.1190
  648ERGO   ROH10233   6.446  15.656   9.142  0.0043 -0.1184 -0.1269
  648ERGO    R110234   6.504  15.731   8.875  0.1313 -0.0656 -0.0862
  648ERGO    R210235   6.571  15.548   8.680 -0.0017 -0.0559 -0.1487
  648ERGO    R310236   6.366  15.664   8.545  0.1322  0.1952 -0.1410
  648ERGO    R410237   6.508  15.504   8.343 -0.2477 -0.2288 -0.0817
  648ERGO    R510238   6.459  15.717   8.330  0.1212 -0.1485 -0.2332
  648ERGO    C110239   6.278  15.587   8.020 -0.2652 -0.0937 -0.0357
  648ERGO    C210240   6.121  15.653   7.767  0.0448  0.3063  0.1426
  649ERGO   ROH10241   3.395   1.758   9.394 -0.1148 -0.0256 -0.1366
  649ERGO    R110242   3.337   1.635   9.146 -0.0611  0.0013 -0.1615
  649ERGO    R210243   3.308   1.779   8.912  0.0424  0.0199 -0.1589
  649ERGO    R310244   3.499   1.608   8.821  0.0351 -0.0139 -0.1137
  649ERGO    R410245   3.338   1.673   8.584  0.2008  0.1526 -0.1895
  649ERGO    R510246   3.386   1.473   8.659  0.0792  0.0987 -0.2439
  649ERGO    C110247   3.535   1.450   8.308  0.2861  0.1980 -0.1651
  649ERGO    C210248   3.492   1.329   7.978 -0.1811 -0.0580 -0.3091
  650ERGO   ROH10249   7.233  12.411   7.780  0.2386 -0.0511  0.0433
  650ERGO    R110250   7.228  12.317   7.513  0.0386 -0.0168  0.0347
  650ERGO    R210251   7.438  12.356   7.337 -0.0620 -0.0644 -0.0905
  650ERGO    R310252   7.423  12.086   7.310 -0.1659 -0.0572 -0.1213
  650ERGO    R410253   7.542  12.180   7.059  0.1688 -0.0938  0.0113
  650ERGO    R510254   7.366  12.052   7.080  0.0758 -0.0107 -0.1938
  650ERGO    C110255   7.589  11.823   6.872  0.2056 -0.1043  0.0417
  650ERGO    C210256   7.770  11.845   6.619 -0.1274  0.0540  0.1179
  651ERGO   ROH10257   3.553   3.209   9.571  0.0335 -0.0527  0.1354
  651ERGO    R110258   3.557   3.309   9.306  0.1432 -0.0407  0.1405
  651ERGO    R210259   3.399   3.204   9.105  0.2625 -0.0649  0.0569
  651ERGO    R310260   3.318   3.462   9.078  0.2230 -0.0804  0.0298
  651ERGO    R410261   3.456   3.401   8.827  0.1586 -0.1102  0.0032
  651ERGO    R510262   3.497   3.569   8.960  0.1753 -0.0802 -0.0412
  651ERGO    C110263   3.414   3.758   8.639  0.0610 -0.1512 -0.0534
  651ERGO    C210264   3.374   3.732   8.299 -0.1736 -0.1702  0.0013
  652ERGO   ROH10265  14.880  11.275   5.724 -0.0136 -0.1525  0.1542
  652ERGO    R110266  14.605  11.284   5.791 -0.0616 -0.2077 -0.0246
  652ERGO    R210267  14.476  11.076   5.920 -0.0330 -0.1161  0.1655
  652ERGO    R310268  14.407  11.271   6.096 -0.2361  0.0789 -0.1233
  652ERGO    R410269  14.215  11.055   6.146 -0.0122 -0.0446  0.1947
  652ERGO    R510270  14.168  11.263   6.103 -0.2271 -0.1555 -0.1154
  652ERGO    C110271  13.999  11.226   6.443 -0.1906  0.1800 -0.0593
  652ERGO    C210272  13.939  11.469   6.650 -0.0391 -0.1013  0.2095
  653ERGO   ROH10273  15.059   6.687   9.233 -0.0651  0.0540  0.1212
  653ERGO    R110274  15.121   6.812   8.987  0.0306  0.0426  0.1391
  653ERGO    R210275  15.293   6.700   8.802  0.0009 -0.0298  0.1524
  653ERGO    R310276  15.083   6.734   8.634  0.0386  0.0879  0.1289
  653ERGO    R410277  15.298   6.632   8.463 -0.0171 -0.0715  0.1604
  653ERGO    R510278  15.182   6.813   8.430  0.1052 -0.0008  0.1286
  653ERGO    C110279  15.104   6.625   8.108  0.0078  0.0147  0.1430
  653ERGO    C210280  15.092   6.432   7.713 -0.2953  0.0165  0.1843
  654ERGO   ROH10281  15.302   1.178   8.586 -0.1734  0.0400  0.0604
  654ERGO    R110282  15.303   1.378   8.386 -0.0942  0.0413  0.0605
  654ERGO    R210283  15.511   1.408   8.207 -0.0012  0.0683  0.1639
  654ERGO    R310284  15.312   1.389   8.023  0.0935  0.0397  0.0659
  654ERGO    R410285  15.556   1.426   7.864  0.1523  0.0956  0.1852
  654ERGO    R510286  15.374   1.544   7.852  0.1400  0.0567  0.1041
  654ERGO    C110287  15.394   1.418   7.492  0.3305  0.0847  0.1056
  654ERGO    C210288  15.341   1.402   7.089 -0.3083 -0.1119  0.2925
  655ERGO   ROH10289   0.718  12.708   8.731 -0.0422  0.1934 -0.0445
  655ERGO    R110290   0.828  12.811   8.491 -0.0494  0.2182 -0.0373
  655ERGO    R210291   0.832  12.668   8.255  0.0877  0.1780 -0.0147
  655ERGO    R310292   0.707  12.889   8.157 -0.0233  0.0897 -0.0760
  655ERGO    R410293   0.785  12.736   7.919  0.1857  0.1432 -0.0362
  655ERGO    R510294   0.831  12.945   7.960  0.0219  0.1742 -0.0210
  655ERGO    C110295   0.640  12.983   7.632  0.1387  0.0400 -0.1063
  655ERGO    C210296   0.525  13.070   7.283  0.2827 -0.1045  0.2494
  656ERGO   ROH10297  14.785  11.653   8.837 -0.1221 -0.0264  0.0327
  656ERGO    R110298  14.657  11.714   8.592 -0.2543 -0.2105  0.0540
  656ERGO    R210299  14.789  11.833   8.381 -0.4831  0.0868  0.0714
  656ERGO    R310300  14.694  11.618   8.243 -0.0936 -0.0683  0.0309
  656ERGO    R410301  14.763  11.815   8.036 -0.4563  0.1066  0.0682
  656ERGO    R510302  14.571  11.714   8.061 -0.2772 -0.2554  0.0526
  656ERGO    C110303  14.658  11.603   7.707 -0.0748 -0.0276  0.0282
  656ERGO    C210304  14.680  11.669   7.328  0.1304  0.0311  0.2979
  657ERGO   ROH10305   2.448   7.655   9.482 -0.1095 -0.0472  0.0398
  657ERGO    R110306   2.307   7.578   9.248 -0.0733 -0.1193  0.0432
  657ERGO    R210307   2.368   7.678   8.998 -0.0565 -0.1769  0.0343
  657ERGO    R310308   2.387   7.414   8.933 -0.0251 -0.1897  0.0882
  657ERGO    R410309   2.322   7.548   8.681 -0.1186 -0.2353  0.0658
  657ERGO    R510310   2.215   7.381   8.770 -0.0715 -0.2444  0.1353
  657ERGO    C110311   2.313   7.226   8.435 -0.1254 -0.2812  0.1348
  657ERGO    C210312   2.107   7.204   8.143  0.0543  0.0260 -0.0204
  658ERGO   ROH10313  14.028  15.623   8.729  0.0390  0.0115 -0.0336
  658ERGO    R110314  13.987  15.578   8.453 -0.0112 -0.0106 -0.0226
  658ERGO    R210315  13.908  15.779   8.279 -0.0824 -0.0326 -0.0178
  658ERGO    R310316  14.129  15.700   8.141 -0.0969 -0.0025 -0.0582
  658ERGO    R410317  13.910  15.689   7.946 -0.1408 -0.1101  0.0023
  658ERGO    R510318  14.049  15.528   7.995 -0.0839 -0.0582  0.0024
  658ERGO    C110319  14.117  15.563   7.621 -0.1886 -0.1270 -0.0239
  658ERGO    C210320  14.109  15.757   7.317  0.0557 -0.2433  0.1562
  659ERGO   ROH10321   6.588   1.707   9.123 -0.1660  0.2331  0.0490
  659ERGO    R110322   6.598   1.626   8.852 -0.0188  0.1875  0.0682
  659ERGO    R210323   6.373   1.548   8.711  0.0733  0.0801 -0.0131
  659ERGO    R310324   6.456   1.739   8.537  0.0765  0.0764 -0.0170
  659ERGO    R410325   6.322   1.540   8.369 -0.0878  0.1550  0.0076
  659ERGO    R510326   6.524   1.618   8.342 -0.0624  0.0756 -0.0697
  659ERGO    C110327   6.370   1.715   8.007 -0.1786  0.1952  0.0161
  659ERGO    C210328   6.396   1.807   7.677 -0.0779  0.5147 -0.2033
  660ERGO   ROH10329   7.435   5.901   9.503  0.2044 -0.1565 -0.0387
  660ERGO    R110330   7.261   5.884   9.281  0.1625 -0.1816 -0.0037
  660ERGO    R210331   7.333   5.974   9.029  0.1319 -0.2518 -0.0354
  660ERGO    R310332   7.264   5.721   8.955  0.0782 -0.2582  0.0327
  660ERGO    R410333   7.350   5.851   8.707 -0.1294 -0.2632 -0.0477
  660ERGO    R510334   7.161   5.748   8.741 -0.1013 -0.2689  0.1141
  660ERGO    C110335   7.296   5.542   8.449 -0.3319 -0.2758  0.0090
  660ERGO    C210336   7.347   5.482   8.146 -0.0435  0.0305 -0.1093
  661ERGO   ROH10337   4.418  13.092   9.020  0.0760 -0.0682 -0.0526
  661ERGO    R110338   4.341  13.093   8.747  0.0774 -0.2499 -0.0540
  661ERGO    R210339   4.387  13.307   8.580 -0.3040 -0.1879 -0.0861
  661ERGO    R310340   4.508  13.120   8.425  0.0388 -0.0005 -0.0559
  661ERGO    R410341   4.428  13.331   8.238 -0.5014 -0.2362 -0.1144
  661ERGO    R510342   4.380  13.118   8.222 -0.0545 -0.3578 -0.0034
  661ERGO    C110343   4.565  13.168   7.893 -0.2945 -0.0883 -0.1025
  661ERGO    C210344   4.634  13.156   7.459 -0.1828  0.0515 -0.1022
  662ERGO   ROH10345  14.509  17.153   8.687 -0.3382  0.1520  0.1401
  662ERGO    R110346  14.624  17.196   8.432 -0.2740  0.0548  0.1529
  662ERGO    R210347  14.580  17.027   8.218 -0.3263  0.0465  0.1733
  662ERGO    R310348  14.504  17.257   8.094 -0.1869  0.0682  0.1234
  662ERGO    R410349  14.559  17.069   7.876 -0.2494  0.0022  0.1621
  662ERGO    R510350  14.643  17.269   7.900 -0.1478 -0.0361  0.1430
  662ERGO    C110351  14.475  17.309   7.560 -0.0737 -0.0031  0.1086
  662ERGO    C210352  14.583  17.179   7.209  0.1225 -0.1743  0.1076
  663ERGO   ROH10353   7.898  14.937   9.126 -0.2835  0.0904 -0.0665
  663ERGO    R110354   8.023  15.061   8.904 -0.3872  0.0418 -0.1507
  663ERGO    R210355   8.234  14.945   8.769 -0.1521  0.2204  0.0710
  663ERGO    R310356   8.074  14.983   8.552 -0.1203 -0.2681 -0.0509
  663ERGO    R410357   8.347  14.974   8.444  0.0373  0.6030  0.1641
  663ERGO    R510358   8.200  15.132   8.412 -0.4590  0.1582  0.0659
  663ERGO    C110359   8.264  15.026   8.051  0.1777  0.3672  0.1039
  663ERGO    C210360   8.125  14.928   7.671  0.3760 -0.0659 -0.3084
  664ERGO   ROH10361   5.598  11.276   9.185 -0.1129 -0.0042 -0.0550
  664ERGO    R110362   5.644  11.014   9.089 -0.0210  0.1491 -0.4491
  664ERGO    R210363   5.519  10.792   9.197  0.4734 -0.1149 -0.3969
  664ERGO    R310364   5.445  10.749   8.939 -0.0634  0.0892 -0.2915
  664ERGO    R410365   5.361  10.507   9.083  0.5183 -0.1636 -0.3397
  664ERGO    R510366   5.486  10.515   8.904  0.1179  0.1628 -0.6288
  664ERGO    C110367   5.199  10.300   8.774  0.0406 -0.0004 -0.2073
  664ERGO    C210368   5.020  10.107   8.954  0.1153  0.0201  0.0611
  665ERGO   ROH10369   7.607   9.857   9.000 -0.0316  0.1732  0.0150
  665ERGO    R110370   7.672   9.747   8.747 -0.0734  0.1188  0.0285
  665ERGO    R210371   7.670   9.898   8.515  0.0815  0.1151  0.0298
  665ERGO    R310372   7.924   9.805   8.491  0.0152 -0.0830  0.0663
  665ERGO    R410373   7.843   9.871   8.217  0.1521  0.1449  0.0672
  665ERGO    R510374   7.923   9.680   8.287 -0.0269  0.0318 -0.0098
  665ERGO    C110375   8.182   9.767   8.021  0.1309 -0.0238  0.1232
  665ERGO    C210376   8.185   9.870   7.784 -0.4766 -0.0518 -0.1000
  666ERGO   ROH10377   0.851  10.548   8.824  0.0069  0.2356 -0.1796
  666ERGO    R110378   0.855  10.394   8.586  0.0037  0.1094 -0.0995
  666ERGO    R210379   0.721  10.471   8.357  0.0301  0.0073 -0.1511
  666ERGO    R310380   0.967  10.443   8.243  0.0351 -0.0850 -0.1175
  666ERGO    R410381   0.783  10.315   8.055  0.0145 -0.0106 -0.1449
  666ERGO    R510382   0.961  10.226   8.143 -0.0327 -0.0802 -0.1221
  666ERGO    C110383   1.049  10.196   7.773  0.0101 -0.1077 -0.1097
  666ERGO    C210384   1.253  10.005   7.526 -0.1493  0.4426 -0.1309
  667ERGO   ROH10385   3.945  18.902   9.287 -0.1116 -0.0858 -0.1244
  667ERGO    R110386   4.129  18.838   9.082 -0.1106 -0.1370 -0.1099
  667ERGO    R210387   4.116  18.603   8.938 -0.1476 -0.1535 -0.0992
  667ERGO    R310388   4.115  18.771   8.725 -0.1101 -0.1599 -0.1024
  667ERGO    R410389   4.219  18.518   8.619  0.0885 -0.0821 -0.0430
  667ERGO    R510390   4.313  18.714   8.603 -0.0144 -0.0414  0.0125
  667ERGO    C110391   4.278  18.627   8.233  0.2611 -0.0464 -0.0132
  667ERGO    C210392   4.370  18.444   7.920 -0.1565 -0.1735  0.2743
  668ERGO   ROH10393  10.260  16.331   8.899  0.0946  0.2921 -0.1097
  668ERGO    R110394  10.370  16.289   8.642  0.2256  0.3883 -0.0695
  668ERGO    R210395  10.229  16.167   8.438  0.4633  0.1122 -0.0690
  668ERGO    R310396  10.294  16.393   8.302  0.1502  0.1761 -0.1205
  668ERGO    R410397  10.233  16.196   8.094  0.1898  0.1073 -0.0753
  668ERGO    R510398  10.415  16.314   8.111  0.0931  0.2855 -0.2061
  668ERGO    C110399  10.296  16.425   7.765 -0.2635  0.1642 -0.1275
  668ERGO    C210400  10.357  16.494   7.417 -0.4222  0.2660 -0.3227
  669ERGO   ROH10401  16.647  18.114   8.715  0.0430  0.0305 -0.0181
  669ERGO    R110402  16.752  17.988   8.484  0.1239  0.0215  0.0216
  669ERGO    R210403  16.597  17.830   8.319  0.1937 -0.0389  0.0037
  669ERGO    R310404  16.688  17.999   8.126  0.1996 -0.0392  0.0080
  669ERGO    R410405  16.715  17.732   8.009  0.2931 -0.0321  0.0398
  669ERGO    R510406  16.871  17.883   8.026  0.2483  0.0018  0.0610
  669ERGO    C110407  16.868  17.834   7.648  0.3563 -0.0284  0.0649
  669ERGO    C210408  16.954  17.668   7.376  0.1348  0.1253  0.0130
  670ERGO   ROH10409   6.997  12.743   8.786  0.0592  0.1625  0.2506
  670ERGO    R110410   6.949  12.755   8.507 -0.0128  0.2093  0.2654
  670ERGO    R210411   7.038  12.963   8.350  0.1614  0.1131  0.2395
  670ERGO    R310412   7.152  12.764   8.204 -0.0936 -0.0093  0.2017
  670ERGO    R410413   7.133  12.991   8.019  0.1961  0.0593  0.2441
  670ERGO    R510414   7.057  12.789   7.986 -0.0663  0.1576  0.2051
  670ERGO    C110415   7.295  12.820   7.689 -0.0231 -0.0869  0.2113
  670ERGO    C210416   7.282  12.889   7.273 -0.1148  0.0319 -0.1557
  671ERGO   ROH10417   7.641   0.478   8.802 -0.1375 -0.2177 -0.0050
  671ERGO    R110418   7.515   0.662   8.627 -0.2584 -0.2289  0.0679
  671ERGO    R210419   7.631   0.745   8.390 -0.2081  0.1090  0.2005
  671ERGO    R310420   7.395   0.662   8.283 -0.0419 -0.1046 -0.0088
  671ERGO    R410421   7.490   0.871   8.101 -0.1648  0.1103  0.1801
  671ERGO    R510422   7.295   0.861   8.198 -0.2198 -0.1743  0.0424
  671ERGO    C110423   7.186   0.865   7.832  0.0165 -0.0895 -0.0282
  671ERGO    C210424   6.991   0.687   7.554  0.1511  0.0113 -0.3231
  672ERGO   ROH10425   3.757   8.186   6.113  0.2660  0.0990 -0.0629
  672ERGO    R110426   3.796   8.152   6.391  0.2041  0.2144 -0.0389
  672ERGO    R210427   3.724   8.345   6.576 -0.0297  0.2093 -0.1148
  672ERGO    R310428   3.585   8.140   6.688  0.1132  0.1158 -0.1080
  672ERGO    R410429   3.686   8.293   6.916 -0.0514  0.2250 -0.1154
  672ERGO    R510430   3.712   8.080   6.882  0.1231  0.2433 -0.0779
  672ERGO    C110431   3.533   8.071   7.218  0.0702  0.1464 -0.1094
  672ERGO    C210432   3.561   7.988   7.499  0.2902 -0.1810 -0.1749
  673ERGO   ROH10433  10.111  12.058   8.895 -0.0225 -0.1619  0.1051
  673ERGO    R110434  10.285  12.153   8.692 -0.1680 -0.0124  0.0492
  673ERGO    R210435  10.462  11.988   8.558  0.0425  0.1687  0.1057
  673ERGO    R310436  10.338  12.088   8.338 -0.1122 -0.0907  0.0708
  673ERGO    R410437  10.570  11.943   8.233  0.1934  0.3248  0.1326
  673ERGO    R510438  10.517  12.150   8.192 -0.1935  0.2299  0.0961
  673ERGO    C110439  10.517  12.010   7.837  0.1361  0.1722  0.1154
  673ERGO    C210440  10.546  11.962   7.476  0.3059 -0.1139  0.2748
  674PSPI    C110441   0.200   8.900   4.888  0.0370 -0.0679 -0.1705
  674PSPI    C210442  -0.093   8.654   4.772 -0.0155 -0.1240  0.0757
  674PSPI    C310443   0.241   8.684   4.553 -0.0175 -0.3977  0.0309
  674PSPI   PO410444   0.189   8.850   5.218 -0.2797 -0.4434 -0.0055
  674PSPI   GL110445  -0.034   8.777   5.598  0.3338 -0.0149  0.0967
  674PSPI   GL210446  -0.160   8.487   5.799  0.0560 -0.2487 -0.2263
  674PSPI   C1A10447   0.095   9.110   5.979 -0.0386  0.2963 -0.0257
  674PSPI   C2A10448   0.118   9.029   6.478 -0.1440 -0.1169 -0.2003
  674PSPI   C3A10449   0.168   8.867   6.968  0.1546  0.2494 -0.0683
  674PSPI   C4A10450   0.090   8.648   7.368 -0.1040  0.0976 -0.2234
  674PSPI   C1B10451  -0.181   8.663   6.103 -0.1455 -0.2433  0.1191
  674PSPI   C2B10452   0.042   8.448   6.455  0.0668 -0.0798 -0.1382
  674PSPI   C3B10453   0.402   8.377   6.790  0.0791 -0.3115 -0.3781
  674PSPI   C4B10454   0.783   8.392   6.965  0.1386  0.0677 -0.3813
  675PSPI    C110455   6.126  11.712   5.003 -0.0761  0.3073 -0.0090
  675PSPI    C210456   5.994  11.379   4.825  0.3723  0.1806 -0.1178
  675PSPI    C310457   5.945  11.734   4.647  0.0743  0.1531 -0.0964
  675PSPI   PO410458   6.454  11.740   5.114  0.3816  0.1368  0.0045
  675PSPI   GL110459   6.615  11.876   5.504  0.1875 -0.1385 -0.1482
  675PSPI   GL210460   6.201  11.844   5.522 -0.0244 -0.3852 -0.1386
  675PSPI   C1A10461   6.562  12.210   5.805  0.0285  0.2083 -0.3183
  675PSPI   C2A10462   6.302  12.493   6.028 -0.3340 -0.1809  0.2534
  675PSPI   C3A10463   6.292  12.819   6.277 -0.0975 -0.1864 -0.2169
  675PSPI   C4A10464   6.478  13.189   6.389 -0.1674  0.1465 -0.4894
  675PSPI   C1B10465   6.387  11.537   5.810  0.1078 -0.1486  0.0288
  675PSPI   C2B10466   6.381  11.309   6.170 -0.0289  0.2707 -0.3080
  675PSPI   C3B10467   6.521  11.075   6.547 -0.1869  0.0894 -0.0933
  675PSPI   C4B10468   6.762  10.777   6.697  0.0426  0.1190  0.0342
  676PSPI    C110469  16.410   9.492   5.360  0.3059  0.0270 -0.0534
  676PSPI    C210470  16.477   9.670   5.008 -0.0914 -0.0443 -0.1698
  676PSPI    C310471  16.235   9.842   5.275  0.5019  0.1986  0.2319
  676PSPI   PO410472  16.325   9.305   5.394  0.1249 -0.0356 -0.1041
  676PSPI   GL110473  16.249   9.107   5.722 -0.0118 -0.2663  0.0698
  676PSPI   GL210474  16.347   9.362   5.905 -0.3913  0.2540  0.0268
  676PSPI   C1A10475  16.280   8.719   6.003  0.3038 -0.0743 -0.1300
  676PSPI   C2A10476  16.267   8.253   6.014  0.2222 -0.1211  0.3498
  676PSPI   C3A10477  16.120   7.873   6.147 -0.1828  0.0621 -0.0284
  676PSPI   C4A10478  15.917   7.502   6.293 -0.0914  0.1481  0.0587
  676PSPI   C1B10479  16.240   9.672   6.095 -0.3483  0.1453  0.2535
  676PSPI   C2B10480  16.115  10.128   6.294 -0.1310  0.2381  0.1404
  676PSPI   C3B10481  15.879  10.426   6.578  0.1357 -0.4012  0.0915
  676PSPI   C4B10482  16.254  10.541   6.731 -0.1880 -0.0963  0.1981
  677PSPI    C110483   9.671  16.368   4.620 -0.0498 -0.1319 -0.1376
  677PSPI    C210484   9.904  16.456   4.307  0.0008  0.0363 -0.0535
  677PSPI    C310485  10.061  16.276   4.628 -0.0036  0.0667 -0.0341
  677PSPI   PO410486   9.594  16.702   4.708  0.0142  0.0323  0.1633
  677PSPI   GL110487   9.537  16.787   5.095 -0.1476 -0.1414 -0.1440
  677PSPI   GL210488   9.755  17.074   5.106  0.0473 -0.1188 -0.0856
  677PSPI   C1A10489   9.815  16.779   5.523  0.1661  0.4436  0.4624
  677PSPI   C2A10490  10.015  16.926   5.911  0.1801 -0.0444 -0.0012
  677PSPI   C3A10491  10.204  16.874   6.307 -0.0477 -0.2520  0.0177
  677PSPI   C4A10492  10.365  16.613   6.543 -0.0858 -0.1306  0.2381
  677PSPI   C1B10493   9.500  17.259   5.521  0.2230 -0.0331  0.0124
  677PSPI   C2B10494   9.596  17.171   5.899 -0.1913 -0.1840  0.1241
  677PSPI   C3B10495   9.794  17.052   6.393 -0.1989 -0.0710 -0.2661
  677PSPI   C4B10496  10.091  17.206   6.755  0.2796  0.0782 -0.0266
  678PSPI    C110497   2.978   6.834   5.569  0.1974 -0.1676 -0.1090
  678PSPI    C210498   2.714   6.590   5.394 -0.0202 -0.0336  0.0274
  678PSPI    C310499   2.890   6.880   5.182 -0.2887  0.1336  0.0280
  678PSPI   PO410500   2.937   6.892   5.792  0.0039  0.0754  0.1090
  678PSPI   GL110501   2.912   7.043   6.110  0.1578  0.2552 -0.1749
  678PSPI   GL210502   2.535   7.020   6.213 -0.2614  0.0617 -0.0886
  678PSPI   C1A10503   3.075   7.253   6.443  0.2427  0.2772 -0.0069
  678PSPI   C2A10504   3.235   7.162   6.892 -0.2501 -0.3046  0.3089
  678PSPI   C3A10505   3.486   7.132   7.198 -0.1442 -0.1885 -0.1009
  678PSPI   C4A10506   3.850   6.908   7.174  0.0611 -0.0376 -0.3205
  678PSPI   C1B10507   2.114   6.932   6.452  0.0900  0.0312  0.1575
  678PSPI   C2B10508   1.978   6.863   6.883 -0.2095  0.1990 -0.0262
  678PSPI   C3B10509   1.777   6.653   7.202  0.1623 -0.0497  0.0479
  678PSPI   C4B10510   1.605   6.648   7.553 -0.1597 -0.1333  0.2793
  679PSPI    C110511   3.452   0.333   5.470  0.0535 -0.0555 -0.0690
  679PSPI    C210512   3.193   0.070   5.316  0.0292 -0.1313  0.0991
  679PSPI    C310513   3.307   0.387   5.101 -0.1289 -0.1487 -0.0124
  679PSPI   PO410514   3.387   0.378   5.643 -0.1904  0.0917 -0.3728
  679PSPI   GL110515   3.364   0.557   6.090  0.3310  0.1258  0.3615
  679PSPI   GL210516   3.072   0.618   6.332 -0.2355  0.0422 -0.0398
  679PSPI   C1A10517   3.641   0.558   6.465  0.0799  0.0710  0.5983
  679PSPI   C2A10518   3.692   0.345   6.718  0.1281  0.2030  0.0680
  679PSPI   C3A10519   3.771   0.362   7.111 -0.1975 -0.1160  0.1267
  679PSPI   C4A10520   3.815   0.472   7.508  0.0058 -0.0786 -0.1158
  679PSPI   C1B10521   3.227   0.864   6.734  0.1303  0.1562 -0.0339
  679PSPI   C2B10522   2.990   1.032   7.125  0.1526  0.0104 -0.0812
  679PSPI   C3B10523   2.795   0.760   7.503 -0.2123  0.1430  0.1499
  679PSPI   C4B10524   2.397   0.706   7.803  0.0024 -0.1678  0.1072
  680PSPI    C110525   0.736   5.732   5.342  0.1656 -0.2562  0.0279
  680PSPI    C210526   1.118   5.630   5.284  0.1228 -0.3209 -0.1480
  680PSPI    C310527   1.002   6.009   5.230  0.2576 -0.1949  0.3861
  680PSPI   PO410528   0.684   5.726   5.600  0.2524  0.0718 -0.3322
  680PSPI   GL110529   0.662   5.800   6.062  0.1484 -0.0044 -0.1624
  680PSPI   GL210530   0.922   5.529   5.999  0.3075  0.1504  0.0332
  680PSPI   C1A10531   0.933   5.963   6.384  0.3731  0.0279 -0.1521
  680PSPI   C2A10532   1.175   6.052   6.655  0.1395 -0.0907  0.1364
  680PSPI   C3A10533   1.393   5.993   7.025  0.2640  0.2259 -0.0581
  680PSPI   C4A10534   1.675   5.659   7.096 -0.1409 -0.0163 -0.1260
  680PSPI   C1B10535   0.800   5.452   6.394 -0.0845 -0.2208  0.3696
  680PSPI   C2B10536   0.795   5.660   6.739 -0.1208  0.3194  0.0280
  680PSPI   C3B10537   0.897   5.887   7.103 -0.0198  0.0906  0.0326
  680PSPI   C4B10538   1.168   5.785   7.506 -0.4199  0.2422 -0.1427
  681PSPI    C110539   4.316   9.335   5.388 -0.1081 -0.1849  0.0456
  681PSPI    C210540   4.565   9.346   5.701  0.1201 -0.0747 -0.1368
  681PSPI    C310541   4.680   9.171   5.360 -0.0898 -0.1075 -0.1921
  681PSPI   PO410542   4.121   9.582   5.340 -0.1656  0.0872  0.0309
  681PSPI   GL110543   3.805   9.827   5.496 -0.0078  0.0498  0.0953
  681PSPI   GL210544   3.574   9.741   5.632 -0.0746 -0.1016  0.2038
  681PSPI   C1A10545   3.781  10.070   5.956  0.0819  0.0261  0.0872
  681PSPI   C2A10546   3.697  10.208   6.383  0.0614  0.1805  0.1964
  681PSPI   C3A10547   3.642  10.262   6.857 -0.1392  0.0849 -0.0849
  681PSPI   C4A10548   3.653  10.698   7.227 -0.1127 -0.2655  0.2698
  681PSPI   C1B10549   3.446   9.723   5.977  0.1660  0.4463  0.0002
  681PSPI   C2B10550   3.688   9.589   6.397 -0.0339  0.1270  0.0235
  681PSPI   C3B10551   3.562   9.359   6.784  0.0932  0.0556 -0.0046
  681PSPI   C4B10552   3.399   9.121   7.209  0.0949 -0.1913 -0.0057
  682PSPI    C110553  14.284   2.596   4.830  0.1396 -0.1546 -0.0810
  682PSPI    C210554  14.165   2.236   4.703 -0.0037 -0.1320 -0.0128
  682PSPI    C310555  14.326   2.496   4.445  0.0391 -0.2199 -0.0754
  682PSPI   PO410556  14.535   2.521   5.060 -0.1398 -0.0710 -0.2563
  682PSPI   GL110557  14.663   2.404   5.526  0.2878  0.0553 -0.2186
  682PSPI   GL210558  15.006   2.410   5.531 -0.0785 -0.2007  0.0619
  682PSPI   C1A10559  14.441   2.377   5.842 -0.0759  0.1773  0.0096
  682PSPI   C2A10560  14.486   2.436   6.261  0.2692  0.2360 -0.2296
  682PSPI   C3A10561  14.155   2.692   6.457 -0.0359 -0.2418 -0.0537
  682PSPI   C4A10562  14.064   3.010   6.373  0.2002 -0.0337 -0.0174
  682PSPI   C1B10563  14.908   2.472   5.994  0.0622 -0.0358 -0.3926
  682PSPI   C2B10564  15.075   2.517   6.409 -0.0746  0.0340 -0.4558
  682PSPI   C3B10565  14.888   2.516   6.773  0.3663 -0.0894  0.0278
  682PSPI   C4B10566  14.682   2.624   7.214 -0.2535 -0.0338 -0.0934
  683PSPI    C110567  18.096   1.973   5.232  0.2428 -0.1923 -0.1427
  683PSPI    C210568  17.869   1.644   5.228 -0.1166  0.0485 -0.0526
  683PSPI    C310569  17.903   1.867   4.898 -0.0602  0.0458 -0.0485
  683PSPI   PO410570  17.920   2.238   5.480 -0.1331  0.0480  0.0305
  683PSPI   GL110571  17.949   2.120   5.967 -0.0691  0.0445  0.4518
  683PSPI   GL210572  17.661   2.196   6.033  0.3145  0.1412 -0.1815
  683PSPI   C1A10573  17.839   2.027   6.441  0.5034  0.2225  0.1972
  683PSPI   C2A10574  17.779   1.744   6.681 -0.2041  0.0251  0.0952
  683PSPI   C3A10575  17.831   1.771   7.087 -0.4495  0.4594 -0.0110
  683PSPI   C4A10576  18.143   1.607   7.347  0.0103 -0.2748 -0.2537
  683PSPI   C1B10577  17.514   2.351   6.280  0.0967 -0.0036 -0.3076
  683PSPI   C2B10578  17.540   2.392   6.730 -0.0963 -0.1852  0.0266
  683PSPI   C3B10579  17.556   2.358   7.216  0.2732 -0.2434 -0.0159
  683PSPI   C4B10580  17.440   2.040   7.518 -0.0763  0.1540  0.2293
  684PSPI    C110581  18.232   2.855   5.489 -0.1630 -0.2329  0.1257
  684PSPI    C210582  18.608   2.722   5.457 -0.1189 -0.1181  0.1596
  684PSPI    C310583  18.315   2.549   5.246 -0.0036 -0.0365 -0.0706
  684PSPI   PO410584  18.210   2.880   5.817 -0.0774  0.0926 -0.2644
  684PSPI   GL110585  18.329   3.038   6.180 -0.0678  0.0227  0.2631
  684PSPI   GL210586  18.614   2.890   6.369  0.0674  0.1724 -0.2206
  684PSPI   C1A10587  18.379   3.339   6.477 -0.0232 -0.0340  0.1612
  684PSPI   C2A10588  18.460   3.443   6.942  0.4506 -0.1743 -0.0528
  684PSPI   C3A10589  18.565   3.425   7.378 -0.1168  0.1622  0.0433
  684PSPI   C4A10590  18.940   3.249   7.624 -0.0746  0.2713 -0.1383
  684PSPI   C1B10591  18.745   2.661   6.700  0.2657 -0.1211 -0.0622
  684PSPI   C2B10592  18.788   2.823   7.240  0.1882  0.1435 -0.2320
  684PSPI   C3B10593  18.858   2.618   7.611 -0.1864 -0.0382 -0.2041
  684PSPI   C4B10594  19.046   2.749   8.062 -0.0923  0.3126  0.1606
  685PSPI    C110595  11.501  10.098   4.796  0.1629  0.1302 -0.0550
  685PSPI    C210596  11.644  10.159   4.428  0.1298 -0.0516 -0.0990
  685PSPI    C310597  11.297   9.965   4.479  0.0196  0.1727  0.0187
  685PSPI   PO410598  11.679  10.225   4.926 -0.2007 -0.1086  0.1451
  685PSPI   GL110599  12.036  10.324   5.214 -0.1498  0.0120  0.0910
  685PSPI   GL210600  11.792  10.125   5.397  0.5684  0.3030  0.0518
  685PSPI   C1A10601  12.348  10.402   5.479  0.4117  0.1531  0.0024
  685PSPI   C2A10602  12.474  10.649   5.680 -0.0850  0.0234  0.1859
  685PSPI   C3A10603  12.880  10.655   5.894  0.0492  0.1686  0.0228
  685PSPI   C4A10604  12.927  10.373   6.338 -0.2069  0.0848 -0.0694
  685PSPI   C1B10605  11.481  10.210   5.743 -0.3617 -0.0567 -0.1482
  685PSPI   C2B10606  11.606  10.059   6.095 -0.0414  0.3675 -0.0528
  685PSPI   C3B10607  11.506   9.868   6.339  0.0062 -0.2903 -0.2012
  685PSPI   C4B10608  11.275   9.912   6.725  0.1272 -0.1970 -0.0930
  686PSPI    C110609   8.744  14.301   4.911  0.0733  0.0364  0.0277
  686PSPI    C210610   8.622  14.184   4.548  0.2318  0.3079 -0.1151
  686PSPI    C310611   8.375  14.392   4.784  0.0052 -0.1644  0.0766
  686PSPI   PO410612   8.829  13.962   5.155  0.3468 -0.1900 -0.1513
  686PSPI   GL110613   8.901  13.730   5.553 -0.0791 -0.0799 -0.0730
  686PSPI   GL210614   9.201  13.614   5.550 -0.1045  0.1967  0.1450
  686PSPI   C1A10615   9.101  14.019   5.784  0.1295  0.0005  0.2922
  686PSPI   C2A10616   9.188  14.290   6.202  0.4820  0.0264  0.2954
  686PSPI   C3A10617   8.994  14.329   6.571 -0.2959 -0.0520 -0.0811
  686PSPI   C4A10618   8.621  14.421   6.766 -0.0671 -0.0422  0.0775
  686PSPI   C1B10619   9.448  13.706   5.846 -0.1636 -0.2465  0.2579
  686PSPI   C2B10620   9.414  13.846   6.197  0.0922 -0.1415  0.3013
  686PSPI   C3B10621   9.548  13.944   6.591  0.0712  0.0026 -0.2479
  686PSPI   C4B10622   9.248  14.051   7.022 -0.2395  0.0819  0.1002
  687PSPI    C110623   8.053   6.239   5.058  0.1504 -0.0930  0.2504
  687PSPI    C210624   8.217   6.569   4.902 -0.1402 -0.1061 -0.0942
  687PSPI    C310625   8.014   6.315   4.668 -0.0364 -0.4626  0.1922
  687PSPI   PO410626   8.098   6.320   5.442  0.0952  0.1304  0.2900
  687PSPI   GL110627   8.289   6.090   5.720 -0.3994 -0.2049 -0.2953
  687PSPI   GL210628   8.244   5.674   5.829  0.2870  0.1214 -0.1013
  687PSPI   C1A10629   8.595   6.279   6.068 -0.0015 -0.2710 -0.1713
  687PSPI   C2A10630   8.557   6.337   6.596 -0.1918  0.3421  0.0708
  687PSPI   C3A10631   8.172   6.334   6.956  0.2545  0.0183 -0.4181
  687PSPI   C4A10632   7.903   6.354   7.251 -0.1382  0.2302 -0.2993
  687PSPI   C1B10633   8.163   5.491   6.217 -0.0242 -0.0285 -0.3204
  687PSPI   C2B10634   8.331   5.309   6.681 -0.0812 -0.0184 -0.1647
  687PSPI   C3B10635   8.295   5.259   6.980  0.1470  0.1750  0.0003
  687PSPI   C4B10636   8.543   5.409   7.422  0.1014 -0.0111 -0.0002
  688PSPI    C110637   4.016   6.509   5.562  0.1189 -0.0727  0.1088
  688PSPI    C210638   4.117   6.546   5.177 -0.1911 -0.2099  0.0109
  688PSPI    C310639   3.895   6.235   5.297 -0.2821 -0.0512  0.2620
  688PSPI   PO410640   3.983   6.778   5.688 -0.2379  0.1754 -0.0410
  688PSPI   GL110641   3.822   6.925   6.061  0.3857  0.2846 -0.1673
  688PSPI   GL210642   3.512   7.037   6.206 -0.0626  0.2309  0.0636
  688PSPI   C1A10643   4.063   7.177   6.327  0.0212 -0.0679  0.1607
  688PSPI   C2A10644   4.132   6.844   6.731 -0.1637 -0.1249  0.1123
  688PSPI   C3A10645   4.217   6.555   7.004 -0.0613  0.1292  0.0756
  688PSPI   C4A10646   4.061   6.310   7.294 -0.1057 -0.1998  0.2455
  688PSPI   C1B10647   3.635   7.022   6.623  0.3089  0.3306 -0.0372
  688PSPI   C2B10648   3.877   7.264   6.877 -0.0089 -0.3022 -0.1174
  688PSPI   C3B10649   3.911   7.690   7.133 -0.1759  0.3402 -0.0386
  688PSPI   C4B10650   4.077   7.833   7.515 -0.0904  0.0538  0.0403
  689PSPI    C110651   6.428   2.934   5.373  0.1550  0.0665  0.1344
  689PSPI    C210652   6.174   2.643   5.270  0.2181  0.0196  0.1101
  689PSPI    C310653   6.551   2.634   5.139  0.1477  0.2567 -0.1171
  689PSPI   PO410654   6.395   3.003   5.631 -0.0151 -0.0712 -0.1179
  689PSPI   GL110655   6.244   3.144   6.031  0.1602  0.2035  0.5147
  689PSPI   GL210656   6.201   2.806   6.126  0.3041  0.0181 -0.1215
  689PSPI   C1A10657   6.678   3.238   6.213 -0.1618 -0.0289  0.4808
  689PSPI   C2A10658   6.789   3.511   6.376  0.1039 -0.2007  0.0085
  689PSPI   C3A10659   7.181   3.868   6.189 -0.0676 -0.0739 -0.1471
  689PSPI   C4A10660   7.448   4.101   6.435 -0.1243  0.3225 -0.2073
  689PSPI   C1B10661   6.265   2.748   6.538  0.0902  0.2262 -0.4240
  689PSPI   C2B10662   6.264   2.696   6.950  0.0747 -0.0276 -0.1365
  689PSPI   C3B10663   6.350   2.735   7.392  0.1968 -0.0123 -0.1168
  689PSPI   C4B10664   6.231   2.774   7.802 -0.0072  0.2025  0.1389
  690PSPI    C110665   8.424   4.386   5.132  0.1226 -0.1836 -0.3145
  690PSPI    C210666   8.418   4.780   5.064 -0.1837 -0.0768  0.2671
  690PSPI    C310667   8.767   4.588   5.097 -0.0307  0.0863 -0.2891
  690PSPI   PO410668   8.161   4.429   5.322 -0.1434 -0.0378  0.2552
  690PSPI   GL110669   8.338   4.589   5.765  0.1474  0.0626  0.3396
  690PSPI   GL210670   7.954   4.490   5.797 -0.0024 -0.0199 -0.0944
  690PSPI   C1A10671   8.094   4.839   6.099 -0.2417  0.1322 -0.2743
  690PSPI   C2A10672   8.032   4.848   6.586 -0.1514  0.3246 -0.1510
  690PSPI   C3A10673   8.338   4.769   6.948  0.0122 -0.1224  0.1302
  690PSPI   C4A10674   8.799   4.972   7.106 -0.1600 -0.2205  0.1023
  690PSPI   C1B10675   7.867   4.319   6.197 -0.2568  0.0349 -0.0746
  690PSPI   C2B10676   7.953   3.977   6.369  0.0956 -0.3045  0.0155
  690PSPI   C3B10677   7.837   3.982   6.708  0.0961  0.0334  0.3063
  690PSPI   C4B10678   7.438   4.015   6.940 -0.1335 -0.1467 -0.0826
  691PSPI    C110679   7.359   8.347   5.170 -0.1116  0.0834 -0.1338
  691PSPI    C210680   7.660   8.085   5.165 -0.1151  0.0716  0.1262
  691PSPI    C310681   7.474   8.183   4.825  0.1606  0.0555 -0.0318
  691PSPI   PO410682   7.312   8.274   5.517 -0.1002 -0.0641  0.2010
  691PSPI   GL110683   7.307   8.375   5.912  0.0582 -0.2780  0.0627
  691PSPI   GL210684   7.103   8.113   5.981 -0.0412  0.1767  0.1325
  691PSPI   C1A10685   7.380   8.649   6.174 -0.0286 -0.1579  0.1231
  691PSPI   C2A10686   7.255   8.982   6.351  0.3720 -0.0028 -0.2927
  691PSPI   C3A10687   7.051   9.107   6.693 -0.2422  0.1914 -0.0197
  691PSPI   C4A10688   7.069   9.215   7.020  0.0373  0.0812  0.0859
  691PSPI   C1B10689   7.391   8.089   6.297 -0.0255  0.3328 -0.3941
  691PSPI   C2B10690   7.385   7.904   6.712 -0.1442 -0.1307 -0.0627
  691PSPI   C3B10691   7.240   7.680   7.032  0.0352  0.1239 -0.0180
  691PSPI   C4B10692   7.154   7.457   7.448  0.2718 -0.1992 -0.4053
  692PSPI    C110693   8.574  16.049   5.146 -0.2665  0.3641  0.0095
  692PSPI    C210694   8.810  16.304   5.345 -0.0117  0.0829  0.0755
  692PSPI    C310695   8.766  15.929   5.476  0.1581 -0.1088 -0.3927
  692PSPI   PO410696   8.370  16.263   5.065 -0.0223  0.0832  0.4900
  692PSPI   GL110697   8.382  16.592   5.405 -0.0831  0.2411  0.0753
  692PSPI   GL210698   8.345  16.289   5.627 -0.0715  0.0229 -0.1847
  692PSPI   C1A10699   8.486  16.897   5.781 -0.0025  0.2226  0.1202
  692PSPI   C2A10700   8.624  16.917   6.176  0.1328 -0.1100 -0.1468
  692PSPI   C3A10701   8.829  16.643   6.511  0.0263  0.2056 -0.0882
  692PSPI   C4A10702   8.943  16.265   6.798  0.1830 -0.1514 -0.0893
  692PSPI   C1B10703   8.727  16.473   5.882  0.2367  0.4663 -0.2635
  692PSPI   C2B10704   9.110  16.502   6.180  0.1346 -0.2345  0.0078
  692PSPI   C3B10705   9.344  16.471   6.531  0.0241  0.1028  0.3628
  692PSPI   C4B10706   9.364  16.370   7.065 -0.0719 -0.0340  0.1402
  693POPI    C110707   4.166  13.324   5.176 -0.1136 -0.0423 -0.0165
  693POPI    C210708   4.159  12.942   5.058 -0.0128  0.0140 -0.2097
  693POPI    C310709   4.218  13.233   4.790 -0.1086  0.1672 -0.0666
  693POPI   PO410710   4.290  13.375   5.334  0.0527  0.0795  0.0881
  693POPI   GL110711   4.327  13.603   5.720  0.1633  0.0833 -0.1758
  693POPI   GL210712   4.177  13.279   5.875 -0.3645 -0.2502 -0.1797
  693POPI   C1A10713   4.425  13.687   6.142 -0.1147  0.1474 -0.1331
  693POPI   D2A10714   4.619  13.838   6.585  0.0354 -0.1266 -0.1614
  693POPI   C3A10715   4.751  13.773   7.025 -0.2762 -0.2773 -0.0269
  693POPI   C4A10716   4.739  14.036   7.441  0.0401 -0.0449 -0.3051
  693POPI   C1B10717   4.258  13.001   6.173 -0.3369  0.0812 -0.1614
  693POPI   C2B10718   4.335  12.643   6.377  0.3098 -0.0799  0.1948
  693POPI   C3B10719   4.197  12.489   6.763 -0.2722 -0.1468 -0.1151
  693POPI   C4B10720   4.142  12.160   7.174 -0.0378 -0.2443  0.0093
  694POPI    C110721  12.761  16.334   4.623  0.2548 -0.0948 -0.1162
  694POPI    C210722  12.816  15.982   4.441  0.2185 -0.1222 -0.0741
  694POPI    C310723  12.477  16.185   4.385  0.2215 -0.1144 -0.0641
  694POPI   PO410724  12.969  16.373   4.822 -0.1836 -0.1297  0.0859
  694POPI   GL110725  13.105  16.670   5.089 -0.3665  0.2431  0.0765
  694POPI   GL210726  12.929  16.656   5.337 -0.0061  0.0212  0.3180
  694POPI   C1A10727  13.408  16.472   5.360 -0.0458 -0.2725 -0.0115
  694POPI   D2A10728  13.620  16.391   5.674 -0.1344  0.4945  0.1356
  694POPI   C3A10729  13.725  16.089   5.844  0.3132 -0.0112 -0.2252
  694POPI   C4A10730  14.084  15.857   5.795 -0.1495 -0.0913  0.0428
  694POPI   C1B10731  12.809  16.693   5.703  0.3620 -0.2466  0.0011
  694POPI   C2B10732  12.898  16.691   6.049 -0.0071  0.2957  0.1957
  694POPI   C3B10733  13.003  16.778   6.269  0.2353 -0.0908 -0.4246
  694POPI   C4B10734  13.274  16.766   6.600 -0.1325 -0.1176  0.1541
  695POPI    C110735   2.889   6.302   5.775 -0.0617  0.2437 -0.0974
  695POPI    C210736   2.708   5.984   5.613  0.3013 -0.0878  0.1299
  695POPI    C310737   2.560   6.149   5.945  0.0991 -0.0019 -0.0008
  695POPI   PO410738   3.204   6.251   5.864 -0.0124  0.2043 -0.1349
  695POPI   GL110739   3.230   6.219   6.293 -0.2516  0.2092 -0.2305
  695POPI   GL210740   3.317   6.560   6.228  0.3058 -0.0876  0.0105
  695POPI   C1A10741   2.953   6.308   6.639  0.1871  0.0562  0.0709
  695POPI   D2A10742   2.586   6.226   6.994  0.0534 -0.0225 -0.0334
  695POPI   C3A10743   2.544   5.950   7.319 -0.0301 -0.1785  0.0964
  695POPI   C4A10744   2.628   5.491   7.159 -0.1976 -0.1917  0.0011
  695POPI   C1B10745   3.389   6.497   6.698  0.0224 -0.0602  0.0778
  695POPI   C2B10746   3.400   6.609   7.192 -0.1687  0.0223 -0.0365
  695POPI   C3B10747   3.422   6.495   7.597  0.0848 -0.0588 -0.0099
  695POPI   C4B10748   3.583   6.675   8.039 -0.2241  0.0128 -0.1188
  696POPI    C110749  14.712   5.310   5.341 -0.0894  0.3138  0.2067
  696POPI    C210750  14.375   5.129   5.226  0.0846  0.0474  0.1072
  696POPI    C310751  14.379   5.524   5.286 -0.2695  0.0391  0.2086
  696POPI   PO410752  14.824   5.138   5.519 -0.1038 -0.1371  0.0049
  696POPI   GL110753  14.813   5.108   5.957  0.0486  0.0084 -0.2420
  696POPI   GL210754  14.969   5.236   6.102 -0.0708  0.0832  0.1156
  696POPI   C1A10755  14.792   4.737   6.188  0.1815  0.0907 -0.2482
  696POPI   D2A10756  14.666   4.557   6.438 -0.4951  0.2264  0.1659
  696POPI   C3A10757  14.360   4.709   6.680 -0.2119 -0.1600  0.0105
  696POPI   C4A10758  14.307   5.128   6.994  0.1419  0.2328  0.2645
  696POPI   C1B10759  15.152   4.980   6.392 -0.0041 -0.1124 -0.1498
  696POPI   C2B10760  15.158   4.578   6.579 -0.0002  0.2598 -0.0093
  696POPI   C3B10761  15.058   4.346   6.851  0.2836  0.0178 -0.2118
  696POPI   C4B10762  14.948   4.424   7.371 -0.1474 -0.0697 -0.0824
  697POPI    C110763   4.018   8.117   5.449 -0.1800  0.0347  0.0132
  697POPI    C210764   4.042   8.386   5.744 -0.0129  0.1684 -0.1204
  697POPI    C310765   4.014   8.508   5.363 -0.4293 -0.0011 -0.1491
  697POPI   PO410766   3.853   7.986   5.448 -0.0337 -0.1760  0.3431
  697POPI   GL110767   3.579   7.823   5.787 -0.0118 -0.0692 -0.3380
  697POPI   GL210768   3.828   7.558   5.907 -0.0631 -0.0083  0.2585
  697POPI   C1A10769   3.246   7.530   6.085  0.0833  0.0639  0.1776
  697POPI   D2A10770   2.836   7.614   6.119 -0.0900  0.2195 -0.2116
  697POPI   C3A10771   2.614   7.491   6.459  0.2341 -0.2184 -0.2352
  697POPI   C4A10772   2.429   7.179   6.769  0.1304 -0.0209  0.0158
  697POPI   C1B10773   3.699   7.669   6.268 -0.0656  0.2391  0.0251
  697POPI   C2B10774   3.568   7.634   6.624 -0.4106  0.3119 -0.2081
  697POPI   C3B10775   3.381   7.623   7.047 -0.0621  0.2449  0.0778
  697POPI   C4B10776   3.158   7.689   7.400 -0.1169 -0.1140 -0.0457
  698POPI    C110777  12.875  11.761   4.770  0.0043 -0.0957  0.1319
  698POPI    C210778  12.895  11.420   4.562  0.3099 -0.0768  0.1248
  698POPI    C310779  12.554  11.630   4.570  0.2378 -0.1756 -0.1991
  698POPI   PO410780  13.029  11.617   4.986 -0.2851  0.1874 -0.1325
  698POPI   GL110781  13.418  11.631   5.283  0.0642 -0.1259  0.0764
  698POPI   GL210782  13.678  11.831   5.101  0.0323 -0.0578 -0.0158
  698POPI   C1A10783  13.434  11.626   5.738  0.0408 -0.4983  0.2683
  698POPI   D2A10784  13.293  11.537   6.167 -0.0080 -0.4265  0.0081
  698POPI   C3A10785  13.091  11.814   6.405 -0.3342  0.0113  0.0885
  698POPI   C4A10786  13.174  12.038   6.804 -0.1964  0.3660  0.2179
  698POPI   C1B10787  13.407  12.127   5.485  0.3022  0.3216  0.0633
  698POPI   C2B10788  13.040  11.937   5.875 -0.0688 -0.0766 -0.1329
  698POPI   C3B10789  12.653  12.002   6.136  0.1037  0.1014 -0.0686
  698POPI   C4B10790  12.548  12.132   6.594 -0.0650 -0.2105  0.0487
  699POPI    C110791   0.843  11.009   5.086 -0.1258 -0.0760 -0.1195
  699POPI    C210792   1.194  11.005   4.894  0.0465  0.0711  0.1850
  699POPI    C310793   0.865  10.870   4.712  0.2017  0.2177 -0.2151
  699POPI   PO410794   0.799  11.255   5.140 -0.2845  0.0493 -0.2452
  699POPI   GL110795   0.883  11.351   5.540  0.1200 -0.0756 -0.1294
  699POPI   GL210796   0.645  11.580   5.720 -0.0509 -0.0301  0.0090
  699POPI   C1A10797   1.182  11.443   5.832  0.1829 -0.3377 -0.1424
  699POPI   D2A10798   1.280  11.295   6.317  0.0154 -0.2291  0.0504
  699POPI   C3A10799   1.421  10.964   6.533 -0.2360  0.4848  0.1471
  699POPI   C4A10800   1.243  10.744   6.819 -0.1488  0.0447  0.0207
  699POPI   C1B10801   0.621  11.505   6.175  0.0035  0.2616  0.0247
  699POPI   C2B10802   0.609  11.485   6.454 -0.1593 -0.1193 -0.3671
  699POPI   C3B10803   0.713  11.600   6.827 -0.0301  0.2975 -0.1835
  699POPI   C4B10804   0.866  11.867   7.036  0.2975 -0.0499  0.1672
  700POPI    C110805  11.909  11.894   4.923  0.1730 -0.0409  0.0130
  700POPI    C210806  12.038  11.580   4.711  0.0327 -0.1587  0.1001
  700POPI    C310807  12.145  11.950   4.604  0.1985 -0.2350 -0.0037
  700POPI   PO410808  11.640  11.791   5.038  0.0916  0.1586  0.0916
  700POPI   GL110809  11.551  11.543   5.400  0.0394  0.1189  0.3401
  700POPI   GL210810  11.545  11.246   5.460  0.1625 -0.1751  0.0558
  700POPI   C1A10811  11.697  11.769   5.772 -0.1391 -0.0981 -0.0667
  700POPI   D2A10812  11.582  12.042   6.203 -0.1150 -0.0471 -0.0229
  700POPI   C3A10813  11.670  12.129   6.566  0.2112 -0.1835 -0.0157
  700POPI   C4A10814  11.674  12.201   6.981 -0.0102 -0.2743 -0.0946
  700POPI   C1B10815  11.662  11.155   5.859  0.2157 -0.2216 -0.1613
  700POPI   C2B10816  11.775  11.054   6.248  0.0555  0.1170 -0.0555
  700POPI   C3B10817  11.793  11.318   6.632  0.1863 -0.2857 -0.1659
  700POPI   C4B10818  11.879  11.660   6.931 -0.1268 -0.1852 -0.2304
  701POPI    C110819  17.851  17.214   4.756 -0.0334 -0.0330  0.2188
  701POPI    C210820  17.514  17.388   4.884 -0.1978 -0.1371 -0.0626
  701POPI    C310821  17.868  17.559   4.959 -0.2998 -0.0985  0.3567
  701POPI   PO410822  17.884  16.869   4.878  0.3689 -0.0579  0.0937
  701POPI   GL110823  17.723  16.804   5.298  0.1580  0.2731 -0.4270
  701POPI   GL210824  17.808  16.487   5.452  0.1293 -0.1314  0.0027
  701POPI   C1A10825  17.401  16.802   5.639  0.3022  0.0164 -0.2183
  701POPI   D2A10826  17.242  16.788   5.981  0.0154  0.1600  0.0438
  701POPI   C3A10827  17.164  17.129   6.165  0.4337 -0.1763  0.1237
  701POPI   C4A10828  16.811  17.366   6.395 -0.3103  0.3197 -0.0997
  701POPI   C1B10829  17.627  16.350   5.790 -0.2105 -0.0245  0.1646
  701POPI   C2B10830  17.471  16.367   6.171  0.0631  0.1717 -0.2083
  701POPI   C3B10831  17.269  16.221   6.570 -0.2632  0.1843  0.1866
  701POPI   C4B10832  16.990  16.325   6.848 -0.0062 -0.2850 -0.0938
  702POPI    C110833   2.541  11.898   4.711 -0.0243 -0.3028 -0.0403
  702POPI    C210834   2.728  12.102   4.422 -0.2173 -0.1193 -0.0383
  702POPI    C310835   2.478  11.804   4.327 -0.0985 -0.2162 -0.0496
  702POPI   PO410836   2.764  11.770   5.013 -0.0895 -0.0959 -0.1556
  702POPI   GL110837   3.049  11.343   5.149  0.3591 -0.1268  0.3042
  702POPI   GL210838   3.249  11.295   5.468  0.1459 -0.1025  0.3199
  702POPI   C1A10839   2.717  11.002   5.349  0.0257 -0.2183 -0.3063
  702POPI   D2A10840   2.402  10.638   5.537 -0.0874 -0.0227  0.0817
  702POPI   C3A10841   2.187  10.606   5.944  0.1985  0.1807 -0.0966
  702POPI   C4A10842   1.797  10.803   6.077  0.1234  0.0821 -0.0782
  702POPI   C1B10843   2.743  11.433   5.646 -0.0361  0.0522  0.0633
  702POPI   C2B10844   2.340  11.615   5.555 -0.2414  0.0097  0.0819
  702POPI   C3B10845   1.894  11.532   5.614  0.0602  0.0049 -0.0209
  702POPI   C4B10846   1.516  11.775   5.647  0.1435 -0.1425 -0.2245
  703POPI    C110847  17.013   8.453   5.213 -0.0793  0.2701 -0.1362
  703POPI    C210848  17.345   8.367   5.006  0.0561 -0.3919  0.3235
  703POPI    C310849  17.009   8.160   4.940 -0.1158 -0.0946  0.2463
  703POPI   PO410850  17.127   8.397   5.545 -0.2195  0.0499  0.0486
  703POPI   GL110851  17.413   8.123   5.764  0.0235 -0.0553  0.0545
  703POPI   GL210852  17.587   8.314   5.799 -0.1741  0.0766 -0.3972
  703POPI   C1A10853  17.640   8.068   6.233  0.1585  0.1686  0.0010
  703POPI   D2A10854  17.813   7.977   6.645 -0.2779 -0.2739 -0.1208
  703POPI   C3A10855  18.262   7.734   6.664  0.0706 -0.0962  0.1409
  703POPI   C4A10856  18.752   7.703   6.859 -0.0248 -0.1990 -0.1471
  703POPI   C1B10857  17.344   8.445   6.224 -0.1444  0.3243  0.2278
  703POPI   C2B10858  17.178   8.778   6.321  0.2438 -0.1858  0.0443
  703POPI   C3B10859  17.409   8.990   6.543  0.0310  0.3599  0.0940
  703POPI   C4B10860  17.423   9.445   6.839 -0.1318 -0.2133 -0.0316
  704POPI    C110861  18.150   6.184   5.092  0.2974 -0.4372 -0.1445
  704POPI    C210862  18.213   6.372   4.744  0.1267  0.0537  0.0815
  704POPI    C310863  18.483   6.398   5.038  0.0957 -0.0452  0.1192
  704POPI   PO410864  17.853   6.232   5.203  0.5438  0.2043  0.1301
  704POPI   GL110865  17.613   6.087   5.581  0.0475 -0.0690 -0.0864
  704POPI   GL210866  17.350   6.286   5.605 -0.0501  0.1468  0.3125
  704POPI   C1A10867  17.619   6.022   5.994 -0.0207  0.4830  0.0149
  704POPI   D2A10868  17.530   5.881   6.274 -0.1948 -0.2398 -0.0139
  704POPI   C3A10869  17.658   5.737   6.601 -0.3154  0.0172 -0.0326
  704POPI   C4A10870  17.653   5.677   7.058  0.0283 -0.2732  0.3140
  704POPI   C1B10871  17.056   6.261   6.004  0.0890 -0.2170 -0.1067
  704POPI   C2B10872  17.000   5.970   6.264  0.1145 -0.2960 -0.2887
  704POPI   C3B10873  17.156   5.638   6.433  0.2978  0.3221 -0.3520
  704POPI   C4B10874  16.968   5.381   6.570  0.1196 -0.2005 -0.2358
  705POPI    C110875   4.914   5.854   5.262 -0.0374  0.0375  0.1650
  705POPI    C210876   4.919   6.152   5.528 -0.1473  0.0740  0.1268
  705POPI    C310877   4.879   6.232   5.138 -0.1143  0.0130  0.1108
  705POPI   PO410878   4.676   5.629   5.450  0.1259 -0.4481 -0.1962
  705POPI   GL110879   4.586   5.754   5.810  0.2306  0.1949  0.2014
  705POPI   GL210880   4.806   5.963   5.959 -0.2602  0.1608  0.2607
  705POPI   C1A10881   4.555   5.536   6.239  0.0122  0.5191  0.5202
  705POPI   D2A10882   4.553   5.725   6.563 -0.1320 -0.0907 -0.1240
  705POPI   C3A10883   4.231   5.623   6.769  0.1308 -0.2259 -0.0694
  705POPI   C4A10884   4.029   5.273   6.869 -0.0673  0.3402  0.0332
  705POPI   C1B10885   4.805   6.105   6.396  0.1991 -0.0849  0.3614
  705POPI   C2B10886   4.773   6.250   6.755 -0.7290  0.2054 -0.0277
  705POPI   C3B10887   4.617   6.279   7.039  0.1282 -0.0993 -0.1544
  705POPI   C4B10888   4.577   6.323   7.550  0.2116 -0.2015  0.0676
  706POPI    C110889  15.754  14.271   4.556 -0.2164  0.1376 -0.0567
  706POPI    C210890  15.417  14.264   4.341 -0.0733 -0.1296 -0.2779
  706POPI    C310891  15.706  13.997   4.269  0.0261 -0.1509  0.1717
  706POPI   PO410892  15.645  14.228   4.908 -0.1911 -0.1006  0.0672
  706POPI   GL110893  15.942  14.172   5.186 -0.1607 -0.1164 -0.1779
  706POPI   GL210894  16.230  14.107   5.324  0.4105  0.0037  0.1345
  706POPI   C1A10895  15.722  14.397   5.521  0.2799 -0.0330  0.2326
  706POPI   D2A10896  15.677  14.675   5.856 -0.6925 -0.0441  0.3377
  706POPI   C3A10897  15.754  14.578   6.291  0.1289 -0.2460  0.3417
  706POPI   C4A10898  15.764  14.884   6.638 -0.0493  0.0556 -0.0326
  706POPI   C1B10899  16.052  13.867   5.754 -0.2348  0.1355  0.0020
  706POPI   C2B10900  15.711  13.944   5.961 -0.1573  0.0550  0.0696
  706POPI   C3B10901  15.470  14.249   6.009  0.0733  0.0673  0.1369
  706POPI   C4B10902  15.148  14.405   5.672  0.1226 -0.2956  0.0274
  707POPI    C110903   3.135   7.753   5.521 -0.0890  0.3497  0.1315
  707POPI    C210904   3.387   7.939   5.272  0.0331  0.0917  0.0592
  707POPI    C310905   3.477   7.576   5.414 -0.2871  0.0063  0.0523
  707POPI   PO410906   2.966   7.994   5.556  0.4661 -0.0866  0.1505
  707POPI   GL110907   3.008   8.131   5.886  0.0557  0.0621  0.3278
  707POPI   GL210908   3.185   8.037   6.095  0.1299 -0.0433 -0.0823
  707POPI   C1A10909   2.854   8.434   6.138 -0.0857  0.1471  0.3297
  707POPI   D2A10910   2.505   8.615   6.224  0.1872  0.0708  0.2174
  707POPI   C3A10911   2.620   9.158   6.260 -0.1364  0.3085 -0.1220
  707POPI   C4A10912   2.601   9.292   6.726 -0.0335 -0.0127 -0.0298
  707POPI   C1B10913   3.044   7.821   6.526  0.3042 -0.1733  0.0807
  707POPI   C2B10914   2.938   7.578   6.835  0.0284  0.0985  0.2107
  707POPI   C3B10915   2.818   7.367   7.225 -0.0173  0.0075  0.2937
  707POPI   C4B10916   2.600   7.465   7.630  0.1097 -0.0544 -0.2958
  708POPI    C110917   9.988  14.427   5.062  0.0449 -0.0264  0.1493
  708POPI    C210918   9.963  14.461   4.664 -0.0265 -0.3861  0.1198
  708POPI    C310919   9.690  14.637   4.898  0.1498  0.0266  0.0244
  708POPI   PO410920  10.203  14.266   5.064  0.0486 -0.0254 -0.1014
  708POPI   GL110921  10.455  14.096   5.459 -0.1358  0.2687 -0.1227
  708POPI   GL210922  10.412  14.466   5.513  0.3151 -0.0200 -0.0800
  708POPI   C1A10923  10.747  13.928   5.799 -0.2107 -0.2595 -0.0733
  708POPI   D2A10924  10.963  14.103   6.116 -0.2555  0.0619  0.1149
  708POPI   C3A10925  10.848  14.341   6.483 -0.0603  0.3297 -0.1362
  708POPI   C4A10926  10.642  14.730   6.615 -0.3654  0.1120  0.2149
  708POPI   C1B10927  10.623  14.478   5.930  0.0076  0.0119 -0.3650
  708POPI   C2B10928  10.926  14.723   6.208  0.2102 -0.0775 -0.0420
  708POPI   C3B10929  10.912  15.178   6.337  0.2211  0.0923  0.1205
  708POPI   C4B10930  10.638  15.280   6.623  0.2098 -0.0822 -0.1080
  709POPI    C110931  14.048   2.237   5.170 -0.1073  0.2084 -0.0547
  709POPI    C210932  14.015   2.270   5.567 -0.1208  0.0350 -0.0409
  709POPI    C310933  14.141   2.581   5.351 -0.0737  0.1170  0.1037
  709POPI   PO410934  14.252   2.070   5.125 -0.2974  0.0891  0.0558
  709POPI   GL110935  14.371   1.948   5.498 -0.2252 -0.0519 -0.0838
  709POPI   GL210936  14.348   1.636   5.574  0.1889 -0.1982 -0.0298
  709POPI   C1A10937  14.194   1.877   5.975  0.0862  0.0992  0.0475
  709POPI   D2A10938  14.095   2.002   6.319  0.0019 -0.1868  0.2273
  709POPI   C3A10939  13.953   1.812   6.722 -0.0618  0.0759 -0.0658
  709POPI   C4A10940  14.077   1.361   6.727 -0.2326  0.0294  0.1411
  709POPI   C1B10941  14.390   1.443   5.911  0.1732 -0.3301  0.1088
  709POPI   C2B10942  14.496   1.440   6.345  0.0645 -0.1298  0.1617
  709POPI   C3B10943  14.583   1.556   6.760 -0.0406 -0.1297  0.0223
  709POPI   C4B10944  14.850   1.594   7.142  0.1455 -0.1749  0.0128
  710POPI    C110945  13.702   0.016   5.025  0.0476  0.3153 -0.1584
  710POPI    C210946  13.418  -0.236   4.897 -0.2169  0.4724  0.1068
  710POPI    C310947  13.596   0.013   4.639  0.0252  0.0433 -0.1521
  710POPI   PO410948  13.541   0.196   5.213  0.3076  0.0870 -0.2007
  710POPI   GL110949  13.721   0.297   5.658 -0.2040 -0.2609 -0.1637
  710POPI   GL210950  13.631   0.579   5.635 -0.2352 -0.1013 -0.2073
  710POPI   C1A10951  13.810   0.180   6.080  0.1235 -0.0858 -0.2733
  710POPI   D2A10952  14.303  -0.091   6.165  0.0437  0.0814 -0.0028
  710POPI   C3A10953  14.237  -0.437   6.479 -0.0274 -0.3446  0.2619
  710POPI   C4A10954  13.995  -0.700   6.475  0.0624 -0.0450 -0.2471
  710POPI   C1B10955  13.410   0.531   6.045 -0.0894  0.1112  0.2002
  710POPI   C2B10956  13.317   0.448   6.417 -0.0734  0.0881 -0.0819
  710POPI   C3B10957  12.994   0.158   6.643 -0.0449 -0.1314  0.5248
  710POPI   C4B10958  12.867  -0.229   6.920 -0.0456 -0.0834  0.0650
  711POPI    C110959   4.884   1.255   5.210  0.1537  0.0400 -0.1373
  711POPI    C210960   4.605   1.503   5.069 -0.0960 -0.0961  0.1062
  711POPI    C310961   4.711   1.181   4.857  0.2567  0.2295 -0.2290
  711POPI   PO410962   4.724   1.232   5.434 -0.0904 -0.2594 -0.0999
  711POPI   GL110963   4.491   1.208   5.790  0.2619  0.0758 -0.1014
  711POPI   GL210964   4.166   1.240   5.823  0.1082 -0.1957 -0.1680
  711POPI   C1A10965   4.687   1.313   6.259 -0.0013  0.2293  0.2655
  711POPI   D2A10966   4.990   1.248   6.410  0.2402  0.2865 -0.3002
  711POPI   C3A10967   5.428   1.439   6.470  0.2915 -0.3238  0.2405
  711POPI   C4A10968   5.783   1.742   6.604  0.2047  0.3211  0.0960
  711POPI   C1B10969   4.228   1.186   6.240 -0.2538  0.1715  0.0651
  711POPI   C2B10970   4.427   1.091   6.632 -0.3285  0.3557  0.3084
  711POPI   C3B10971   4.627   0.742   6.857 -0.1128 -0.1789  0.2485
  711POPI   C4B10972   4.755   0.585   7.301  0.4656  0.2275 -0.2192
  712POPI    C110973  11.886   1.200   4.733  0.2686  0.3729 -0.1916
  712POPI    C210974  11.899   0.877   4.498  0.0498  0.0853  0.1800
  712POPI    C310975  11.815   1.235   4.341  0.3146 -0.0291 -0.2400
  712POPI   PO410976  11.878   1.058   4.926  0.4068  0.0279  0.3318
  712POPI   GL110977  11.813   0.713   5.085 -0.0218 -0.0783  0.1015
  712POPI   GL210978  11.514   0.581   5.132 -0.2162  0.0181 -0.1373
  712POPI   C1A10979  11.893   0.529   5.508  0.0884 -0.1311  0.3184
  712POPI   D2A10980  11.808   0.336   5.876  0.0285 -0.0965 -0.0556
  712POPI   C3A10981  11.688   0.595   6.219  0.2883  0.0846  0.2174
  712POPI   C4A10982  11.501   0.721   6.566 -0.4997  0.2321  0.5415
  712POPI   C1B10983  11.403   0.801   5.563 -0.0257  0.5170  0.1154
  712POPI   C2B10984  11.401   1.001   6.051  0.2075 -0.1801  0.2226
  712POPI   C3B10985  11.415   1.215   6.463  0.2058  0.0304  0.0002
  712POPI   C4B10986  11.238   1.291   6.902 -0.1115 -0.1071 -0.2930
  713POPI    C110987  17.884  15.643   4.754  0.0098  0.0626 -0.2690
  713POPI    C210988  17.722  15.355   4.528  0.1113 -0.0765 -0.1661
  713POPI    C310989  18.118  15.409   4.529  0.1102 -0.0698 -0.0301
  713POPI   PO410990  17.707  15.629   5.002  0.3806  0.3678 -0.3738
  713POPI   GL110991  17.572  15.583   5.371  0.2154 -0.1131  0.2366
  713POPI   GL210992  17.210  15.555   5.299 -0.1610 -0.1415  0.0645
  713POPI   C1A10993  17.707  15.423   5.891  0.1089 -0.0466 -0.1253
  713POPI   D2A10994  17.642  15.065   6.196 -0.3614  0.1941  0.2137
  713POPI   C3A10995  17.611  14.836   6.459 -0.0267  0.0940 -0.0753
  713POPI   C4A10996  17.572  15.035   6.821  0.2793 -0.0069  0.4869
  713POPI   C1B10997  17.208  15.204   5.494  0.3257  0.0168 -0.0592
  713POPI   C2B10998  17.150  14.979   5.885 -0.0705 -0.0994  0.2107
  713POPI   C3B10999  17.173  14.969   6.334 -0.1027 -0.0738 -0.1776
  713POPI   C4B11000  17.027  15.097   6.759  0.0463 -0.1616  0.0500
  714POPI    C111001  16.914  12.807   5.069  0.0360 -0.0501  0.0386
  714POPI    C211002  16.527  12.762   5.160 -0.0562  0.2799 -0.1719
  714POPI    C311003  16.662  12.651   4.800  0.0868 -0.0117 -0.0317
  714POPI   PO411004  17.008  12.696   5.340  0.0731 -0.0873  0.4070
  714POPI   GL111005  16.794  12.514   5.601 -0.2380  0.2651 -0.0599
  714POPI   GL211006  16.874  12.830   5.885  0.2514  0.1543  0.0603
  714POPI   C1A11007  16.661  12.402   6.029  0.1537 -0.1126  0.2940
  714POPI   D2A11008  16.509  12.403   6.415 -0.2837 -0.3312  0.0251
  714POPI   C3A11009  16.518  12.678   6.767 -0.1535  0.0981 -0.0757
  714POPI   C4A11010  16.593  12.819   7.146  0.0953  0.0370 -0.4387
  714POPI   C1B11011  16.683  12.910   6.271  0.2136  0.0469  0.1582
  714POPI   C2B11012  16.680  13.099   6.633  0.1100  0.1365  0.0239
  714POPI   C3B11013  16.412  13.502   6.641 -0.1907  0.2650 -0.0425
  714POPI   C4B11014  16.128  13.614   6.343 -0.1751  0.0746 -0.2817
  715POPI    C111015   7.205   1.073   5.112  0.1996  0.1585 -0.1395
  715POPI    C211016   7.311   0.710   4.980  0.0968  0.0159  0.1611
  715POPI    C311017   7.378   1.033   4.753  0.1498 -0.1939 -0.1277
  715POPI   PO411018   6.911   0.950   5.275  0.3050  0.4313  0.0810
  715POPI   GL111019   6.809   0.946   5.709  0.1307  0.0892 -0.3054
  715POPI   GL211020   7.109   0.752   5.673  0.3701  0.3365 -0.1805
  715POPI   C1A11021   6.773   1.004   6.240 -0.3117 -0.3213  0.1180
  715POPI   D2A11022   6.884   0.813   6.638 -0.0699  0.1448 -0.0893
  715POPI   C3A11023   6.920   0.956   7.031 -0.0555  0.2458  0.0127
  715POPI   C4A11024   7.231   1.041   7.319  0.2597 -0.1223  0.0432
  715POPI   C1B11025   6.844   0.545   6.022  0.2978  0.0352  0.3695
  715POPI   C2B11026   6.980   0.401   6.384  0.0190 -0.1268 -0.1669
  715POPI   C3B11027   6.945   0.357   6.841 -0.2582 -0.2432  0.1009
  715POPI   C4B11028   6.819   0.345   7.267 -0.0479  0.0881  0.0474
  716POPI    C111029   5.085  15.151   5.519 -0.0267 -0.1493 -0.2797
  716POPI    C211030   4.831  15.452   5.590  0.1626 -0.0855  0.1638
  716POPI    C311031   4.732  15.163   5.332 -0.1336  0.2124 -0.0652
  716POPI   PO411032   5.065  15.024   5.777 -0.2092  0.0770 -0.2100
  716POPI   GL111033   5.093  15.044   6.224  0.2492  0.2948 -0.0883
  716POPI   GL211034   4.988  15.389   6.244  0.1969  0.1833 -0.3267
  716POPI   C1A11035   5.276  15.239   6.607  0.1434  0.0310 -0.0010
  716POPI   D2A11036   5.603  15.547   6.600 -0.6058  0.1322  0.0615
  716POPI   C3A11037   5.848  15.631   6.919  0.0950 -0.0905  0.2007
  716POPI   C4A11038   6.042  15.772   7.325  0.0560  0.1221  0.3732
  716POPI   C1B11039   4.714  15.462   6.635 -0.1518 -0.0182 -0.2531
  716POPI   C2B11040   4.349  15.817   6.837  0.2881  0.0084  0.2671
  716POPI   C3B11041   4.004  16.089   6.878 -0.1024  0.1948 -0.2804
  716POPI   C4B11042   3.631  16.160   6.818  0.3076  0.1532  0.2850
  717POPI    C111043  13.277  17.202   4.725 -0.0328  0.0530 -0.0406
  717POPI    C211044  13.620  17.408   4.722 -0.0925  0.1533 -0.0309
  717POPI    C311045  13.542  17.144   4.432  0.0704  0.0006  0.0622
  717POPI   PO411046  13.110  17.326   4.738  0.0103 -0.1724 -0.0551
  717POPI   GL111047  12.963  17.586   5.148  0.2472 -0.0087  0.2713
  717POPI   GL211048  13.268  17.501   5.196  0.1812 -0.1255 -0.1853
  717POPI   C1A11049  12.772  17.522   5.517  0.2213  0.2930 -0.5231
  717POPI   D2A11050  12.657  17.597   5.960 -0.0381  0.0608 -0.1037
  717POPI   C3A11051  12.909  17.281   6.296 -0.2868 -0.2006  0.0579
  717POPI   C4A11052  12.898  17.149   6.645  0.1894 -0.1455 -0.0917
  717POPI   C1B11053  13.210  17.739   5.677  0.1775  0.2391 -0.0967
  717POPI   C2B11054  13.190  17.626   6.151 -0.0409 -0.0447 -0.1685
  717POPI   C3B11055  13.276  17.621   6.576 -0.2312 -0.2250 -0.0787
  717POPI   C4B11056  13.389  17.761   6.913 -0.2079 -0.0526 -0.0952
  718POPI    C111057   6.004  16.554   5.005  0.1066 -0.1310  0.1792
  718POPI    C211058   6.000  16.930   4.869  0.1402 -0.1966 -0.0047
  718POPI    C311059   5.659  16.755   4.982  0.0989 -0.1720 -0.0903
  718POPI   PO411060   6.213  16.488   5.205  0.2018 -0.1465 -0.0507
  718POPI   GL111061   6.217  16.499   5.597  0.1349  0.1328 -0.4286
  718POPI   GL211062   6.523  16.347   5.589  0.0614 -0.0199 -0.0190
  718POPI   C1A11063   6.083  16.851   5.874  0.1906 -0.3118 -0.0234
  718POPI   D2A11064   6.267  17.203   6.052  0.0394 -0.1743 -0.0777
  718POPI   C3A11065   6.077  17.377   6.521  0.1358  0.1667 -0.0010
  718POPI   C4A11066   6.003  17.117   6.959 -0.0520 -0.2731  0.2530
  718POPI   C1B11067   6.460  16.441   5.987 -0.0916  0.1769  0.0708
  718POPI   C2B11068   6.476  16.768   6.224  0.2252 -0.2466 -0.0740
  718POPI   C3B11069   6.481  16.785   6.526  0.2235 -0.1765 -0.2665
  718POPI   C4B11070   6.667  16.888   6.926 -0.0018  0.2797  0.1882
  719POPI    C111071   2.308  14.188   5.034 -0.0349  0.1573  0.1538
  719POPI    C211072   2.216  14.527   5.226 -0.1451  0.2655 -0.0864
  719POPI    C311073   2.308  14.536   4.837 -0.0325  0.0340 -0.0668
  719POPI   PO411074   2.500  14.110   5.233  0.1298  0.0477  0.1424
  719POPI   GL111075   2.345  14.159   5.585  0.1080  0.4363  0.1617
  719POPI   GL211076   2.619  14.140   5.764 -0.0212 -0.2242 -0.1236
  719POPI   C1A11077   1.954  14.162   5.941 -0.2318 -0.4030 -0.0665
  719POPI   D2A11078   1.540  14.071   5.987  0.2534 -0.3836 -0.0599
  719POPI   C3A11079   1.358  13.755   6.139 -0.0235 -0.0766  0.2145
  719POPI   C4A11080   1.486  13.533   6.455  0.0674 -0.3053  0.1734
  719POPI   C1B11081   2.433  14.045   6.094 -0.1831 -0.1895 -0.1853
  719POPI   C2B11082   2.343  13.901   6.477 -0.3017 -0.0532 -0.0033
  719POPI   C3B11083   2.451  13.788   6.814  0.0312  0.1841 -0.3741
  719POPI   C4B11084   2.569  13.473   7.164  0.1221 -0.0560 -0.0505
  720POPI    C111085   3.494  14.255   5.485 -0.1575  0.0468  0.1457
  720POPI    C211086   3.285  14.046   5.755 -0.1133 -0.2116 -0.0161
  720POPI    C311087   3.568  13.865   5.538 -0.0474  0.0274 -0.1331
  720POPI   PO411088   3.446  14.453   5.551 -0.0218 -0.4301 -0.2416
  720POPI   GL111089   3.641  14.736   5.811  0.1921  0.0747  0.1887
  720POPI   GL211090   3.429  14.836   6.004 -0.0698 -0.0534 -0.2393
  720POPI   C1A11091   3.715  14.594   6.303  0.1422  0.1504 -0.3047
  720POPI   D2A11092   3.952  14.614   6.585 -0.1211 -0.0988 -0.0216
  720POPI   C3A11093   4.071  14.456   6.954 -0.0647 -0.2107 -0.4308
  720POPI   C4A11094   3.902  14.225   7.187  0.3083  0.1595  0.0626
  720POPI   C1B11095   3.536  15.051   6.391  0.2172 -0.0547 -0.1363
  720POPI   C2B11096   3.847  15.163   6.705  0.1345 -0.0660 -0.0896
  720POPI   C3B11097   4.229  15.405   6.651 -0.0118  0.1222  0.0861
  720POPI   C4B11098   4.427  15.334   7.051  0.0456 -0.0505 -0.1500
  721POPI    C111099   6.362   2.131   5.169  0.1010  0.2232  0.4146
  721POPI    C211100   6.626   1.832   5.136  0.0105  0.1848 -0.0138
  721POPI    C311101   6.658   2.154   4.901 -0.2039  0.2733  0.0753
  721POPI   PO411102   6.376   2.114   5.486 -0.1249 -0.1309 -0.4060
  721POPI   GL111103   6.505   2.035   5.895  0.0709  0.2417  0.1780
  721POPI   GL211104   6.278   2.259   6.047 -0.1317 -0.1394  0.3112
  721POPI   C1A11105   6.791   1.976   6.199 -0.3028 -0.2578  0.0471
  721POPI   D2A11106   6.913   1.812   6.529  0.0637 -0.0597  0.0506
  721POPI   C3A11107   7.351   1.681   6.693 -0.0151  0.0680  0.2926
  721POPI   C4A11108   7.547   1.377   7.055 -0.0671  0.0864 -0.3482
  721POPI   C1B11109   6.082   2.290   6.343  0.0578  0.0149  0.0537
  721POPI   C2B11110   6.078   2.216   6.712 -0.1821 -0.2361  0.1396
  721POPI   C3B11111   5.951   1.916   7.053 -0.0534 -0.2188  0.2956
  721POPI   C4B11112   6.121   1.507   7.324 -0.1115 -0.0277 -0.0783
  722POPI    C111113  15.353  12.182   5.321  0.1703 -0.1335 -0.0488
  722POPI    C211114  15.541  12.482   5.135 -0.0601  0.0068 -0.0604
  722POPI    C311115  15.185  12.357   5.002 -0.0188 -0.1947  0.0157
  722POPI   PO411116  15.529  11.937   5.248  0.2610 -0.1172 -0.0769
  722POPI   GL111117  15.648  11.577   5.408  0.2352 -0.4025 -0.3259
  722POPI   GL211118  15.316  11.325   5.238  0.2259  0.1616  0.2458
  722POPI   C1A11119  15.403  11.507   5.780  0.2301 -0.0003  0.1417
  722POPI   D2A11120  15.141  11.340   6.211  0.1335  0.0639  0.0426
  722POPI   C3A11121  14.811  11.095   6.306  0.1608  0.4222 -0.0051
  722POPI   C4A11122  15.041  10.934   6.644  0.1713 -0.1703 -0.1166
  722POPI   C1B11123  15.369  11.034   5.533  0.0453 -0.5915  0.1051
  722POPI   C2B11124  15.197  10.919   5.909 -0.0544  0.0645 -0.3243
  722POPI   C3B11125  15.258  10.509   6.239  0.1339  0.0880 -0.2845
  722POPI   C4B11126  15.392  10.628   6.674  0.1676 -0.1640  0.1678
  723POPI    C111127   1.017   8.916   5.240  0.3258  0.0926 -0.1342
  723POPI    C211128   1.225   8.587   5.149  0.1663 -0.0286 -0.0680
  723POPI    C311129   1.056   8.804   4.858  0.0583 -0.1475 -0.0947
  723POPI   PO411130   1.192   9.184   5.468 -0.2772 -0.2337 -0.1664
  723POPI   GL111131   1.179   9.151   5.918 -0.0192  0.0020  0.1790
  723POPI   GL211132   1.050   8.813   5.799  0.2677  0.3630  0.1193
  723POPI   C1A11133   1.403   9.085   6.339 -0.1538 -0.3279  0.2087
  723POPI   D2A11134   1.465   9.086   6.802 -0.3396  0.0462  0.1919
  723POPI   C3A11135   1.467   9.418   7.029 -0.1787  0.0606 -0.1997
  723POPI   C4A11136   1.450   9.869   7.133  0.1589 -0.3980  0.2430
  723POPI   C1B11137   0.934   8.929   6.292 -0.0461  0.2310 -0.0595
  723POPI   C2B11138   1.013   9.211   6.630  0.1057 -0.2896  0.0303
  723POPI   C3B11139   1.000   9.276   7.064  0.0601 -0.1488 -0.0503
  723POPI   C4B11140   0.971   9.605   7.300  0.0363 -0.0317  0.0225
  724POPI    C111141  13.848  10.889   4.797  0.0339  0.1731 -0.0901
  724POPI    C211142  13.796  11.175   4.522 -0.0799  0.4472  0.2105
  724POPI    C311143  14.005  10.847   4.431 -0.0720  0.5562 -0.1847
  724POPI   PO411144  13.550  10.835   4.915 -0.0547 -0.1815 -0.0068
  724POPI   GL111145  13.382  10.891   5.332 -0.2558  0.2444 -0.1993
  724POPI   GL211146  13.127  10.813   5.476 -0.1573  0.0729 -0.1285
  724POPI   C1A11147  13.540  11.187   5.586 -0.1973 -0.1816 -0.0930
  724POPI   D2A11148  13.690  11.231   6.004  0.0604  0.0451  0.0145
  724POPI   C3A11149  13.502  11.203   6.404  0.1115 -0.0712 -0.0371
  724POPI   C4A11150  13.682  11.109   6.800  0.0734 -0.0715  0.1477
  724POPI   C1B11151  13.196  11.060   5.884 -0.1131 -0.1350  0.0239
  724POPI   C2B11152  12.956  10.993   6.235 -0.0316  0.1612 -0.2118
  724POPI   C3B11153  12.816  10.836   6.629 -0.0781 -0.2831  0.3877
  724POPI   C4B11154  12.705  10.456   6.766 -0.3906  0.0172 -0.2297
  725POPI    C111155   9.789   5.631   5.122  0.2031 -0.0453 -0.1361
  725POPI    C211156   9.804   5.397   4.798  0.4149 -0.0132 -0.1509
  725POPI    C311157   9.840   5.793   4.760  0.0117  0.0298 -0.1306
  725POPI   PO411158   9.565   5.644   5.222 -0.2735  0.3787 -0.1305
  725POPI   GL111159   9.557   5.416   5.617  0.1588 -0.1217  0.1885
  725POPI   GL211160   9.983   5.385   5.505 -0.4040 -0.1951  0.1466
  725POPI   C1A11161   9.607   5.546   5.999 -0.0451  0.0175 -0.0118
  725POPI   D2A11162   9.877   5.609   6.312 -0.2925 -0.3316 -0.0981
  725POPI   C3A11163   9.890   5.469   6.804 -0.2161  0.2220 -0.0353
  725POPI   C4A11164   9.847   5.245   7.145 -0.0701 -0.1838 -0.4043
  725POPI   C1B11165  10.088   5.307   5.922  0.1448 -0.1983  0.0110
  725POPI   C2B11166  10.363   5.442   6.290 -0.0024 -0.1481 -0.0870
  725POPI   C3B11167  10.784   5.469   6.503  0.0662  0.3038  0.0653
  725POPI   C4B11168  11.178   5.568   6.791 -0.4038  0.1009 -0.0566
  726POPI    C111169   4.076   0.551   5.322  0.0428 -0.0838  0.0311
  726POPI    C211170   4.157   0.799   5.625 -0.1300  0.0173 -0.0044
  726POPI    C311171   3.818   0.842   5.416 -0.0194 -0.0608 -0.2026
  726POPI   PO411172   4.373   0.383   5.387 -0.0791 -0.2836 -0.1972
  726POPI   GL111173   4.560   0.355   5.768  0.0201  0.0623  0.0779
  726POPI   GL211174   4.406   0.645   6.038 -0.0285 -0.1290  0.2321
  726POPI   C1A11175   4.272   0.153   6.029 -0.2847  0.3586  0.2631
  726POPI   D2A11176   4.056   0.109   6.318 -0.0991  0.0903  0.1394
  726POPI   C3A11177   4.351   0.117   6.598 -0.0469 -0.0950  0.0188
  726POPI   C4A11178   4.542  -0.193   6.682  0.0332  0.1850  0.0934
  726POPI   C1B11179   4.285   0.628   6.371 -0.0082 -0.0152 -0.0760
  726POPI   C2B11180   4.118   0.537   6.762  0.1790 -0.1247 -0.2119
  726POPI   C3B11181   4.349   0.327   7.081  0.0770  0.3297 -0.1022
  726POPI   C4B11182   4.318   0.333   7.515 -0.1135  0.0435  0.4523
  727POPI    C111183  10.906  14.679   5.256  0.0303  0.2541  0.1294
  727POPI    C211184  10.816  14.615   4.871  0.1419 -0.0051  0.1445
  727POPI    C311185  10.743  14.331   5.144  0.2225  0.1108  0.2883
  727POPI   PO411186  11.278  14.767   5.222 -0.0670 -0.1725 -0.0163
  727POPI   GL111187  11.576  14.777   5.518  0.1637 -0.0060 -0.3613
  727POPI   GL211188  11.531  15.017   5.717  0.3200  0.0313 -0.0687
  727POPI   C1A11189  11.921  14.544   5.725  0.0696  0.2671  0.0428
  727POPI   D2A11190  12.332  14.334   5.604  0.2280 -0.0131  0.1836
  727POPI   C3A11191  12.673  14.317   5.842 -0.2831 -0.1561 -0.1979
  727POPI   C4A11192  12.696  14.098   6.227  0.1068 -0.1904 -0.1158
  727POPI   C1B11193  11.366  15.177   6.190 -0.0940  0.0054  0.3928
  727POPI   C2B11194  11.539  15.433   6.594 -0.0012 -0.0506 -0.3477
  727POPI   C3B11195  11.484  15.762   6.919 -0.2674  0.2160  0.0911
  727POPI   C4B11196  11.440  16.211   7.096 -0.0972 -0.2607 -0.2065
  728POPI    C111197  15.974  13.231   4.980 -0.2963  0.1180 -0.0894
  728POPI    C211198  15.648  13.244   5.212 -0.3047 -0.0267 -0.0924
  728POPI    C311199  15.617  13.307   4.818 -0.3099  0.0857 -0.0744
  728POPI   PO411200  16.175  13.334   5.084 -0.4040 -0.0094  0.2388
  728POPI   GL111201  16.426  13.257   5.362 -0.2440 -0.3433 -0.1179
  728POPI   GL211202  16.730  13.121   5.438  0.2061 -0.1176  0.0661
  728POPI   C1A11203  16.472  13.674   5.633  0.1995 -0.3288  0.0946
  728POPI   D2A11204  16.513  13.831   6.114 -0.1619 -0.5325 -0.0515
  728POPI   C3A11205  16.815  13.616   6.268 -0.1365 -0.2165  0.0814
  728POPI   C4A11206  16.900  13.628   6.736  0.1846 -0.0713  0.1943
  728POPI   C1B11207  16.694  13.277   5.835 -0.3212 -0.0754 -0.0925
  728POPI   C2B11208  16.361  13.289   6.087 -0.1511 -0.0548  0.0498
  728POPI   C3B11209  16.047  13.116   6.299  0.2436 -0.2595  0.1286
  728POPI   C4B11210  16.026  12.954   6.719 -0.0520  0.3085 -0.2961
  729POPI    C111211  12.231  17.668   4.652 -0.3154  0.0978  0.1826
  729POPI    C211212  12.187  18.065   4.647  0.0250  0.1398  0.2421
  729POPI    C311213  12.514  17.899   4.489 -0.2787 -0.1446 -0.1051
  729POPI   PO411214  12.037  17.623   4.889  0.0268 -0.1809  0.1178
  729POPI   GL111215  11.888  17.634   5.409  0.0819  0.1990 -0.0493
  729POPI   GL211216  11.648  17.390   5.399 -0.1770 -0.0647  0.2377
  729POPI   C1A11217  11.944  17.768   5.782 -0.1930  0.5578  0.2221
  729POPI   D2A11218  11.874  18.047   6.174 -0.0749  0.0548  0.3435
  729POPI   C3A11219  12.054  18.441   6.248 -0.1057 -0.0010  0.3095
  729POPI   C4A11220  12.174  18.889   6.223  0.0418  0.0252  0.4365
  729POPI   C1B11221  11.811  17.186   5.667 -0.1089  0.1045  0.0184
  729POPI   C2B11222  11.973  16.923   5.994  0.0124  0.3886 -0.0971
  729POPI   C3B11223  12.072  16.900   6.330 -0.4284 -0.1674  0.1211
  729POPI   C4B11224  12.075  16.701   6.794  0.0198  0.2600 -0.2310
  730POPI    C111225  17.639  10.093   5.040  0.1463  0.1948  0.0624
  730POPI    C211226  18.013   9.990   4.941  0.1133 -0.0534  0.1885
  730POPI    C311227  17.751  10.091   4.656  0.2434  0.0098  0.0904
  730POPI   PO411228  17.586  10.262   5.279  0.2586 -0.1889  0.1608
  730POPI   GL111229  17.448  10.275   5.739 -0.1297  0.0088  0.0463
  730POPI   GL211230  17.398  10.721   5.839 -0.1748 -0.0133 -0.0851
  730POPI   C1A11231  17.369  10.310   6.122 -0.2051 -0.1925 -0.0555
  730POPI   D2A11232  17.555  10.436   6.546 -0.0955 -0.0615 -0.4647
  730POPI   C3A11233  17.529  10.019   6.824 -0.0938 -0.0379  0.1397
  730POPI   C4A11234  17.888   9.907   7.139  0.0122  0.0462 -0.1729
  730POPI   C1B11235  17.210  10.754   6.303  0.0631 -0.0426 -0.3671
  730POPI   C2B11236  17.292  10.851   6.795 -0.0659  0.0607 -0.2224
  730POPI   C3B11237  17.515  11.210   6.984  0.0269  0.0107  0.0263
  730POPI   C4B11238  17.563  11.618   6.911  0.1207 -0.1277  0.0885
  731POPI    C111239  12.885  12.605   4.817 -0.0768  0.0327  0.1835
  731POPI    C211240  12.512  12.744   4.846 -0.3343 -0.5755 -0.0375
  731POPI    C311241  12.646  12.604   4.496  0.3471  0.2607 -0.1450
  731POPI   PO411242  13.039  12.770   4.984 -0.3145 -0.0314 -0.1714
  731POPI   GL111243  13.190  12.606   5.422 -0.0873  0.1897  0.1108
  731POPI   GL211244  13.400  12.625   5.245 -0.2180  0.2915 -0.1466
  731POPI   C1A11245  13.143  12.409   5.987  0.0592 -0.3331 -0.0641
  731POPI   D2A11246  13.036  12.316   6.375  0.2343  0.1736  0.0115
  731POPI   C3A11247  13.022  12.566   6.661 -0.2133  0.1975 -0.2061
  731POPI   C4A11248  13.019  12.723   7.029 -0.0963 -0.1396  0.3007
  731POPI   C1B11249  13.811  12.349   5.385 -0.0961  0.1633  0.4968
  731POPI   C2B11250  13.815  11.944   5.667 -0.0859 -0.3278 -0.0975
  731POPI   C3B11251  14.067  11.438   5.699 -0.0629  0.1081 -0.2245
  731POPI   C4B11252  13.995  10.994   5.699 -0.3159 -0.1809 -0.0803
  732POPI    C111253   8.739   6.813   4.952  0.1360  0.2634  0.1306
  732POPI    C211254   8.955   6.521   5.119 -0.2863 -0.2275 -0.1508
  732POPI    C311255   9.098   6.719   4.803  0.1334  0.0958  0.2275
  732POPI   PO411256   8.737   6.972   5.214 -0.0365  0.3576  0.0003
  732POPI   GL111257   8.927   7.040   5.677 -0.3711 -0.2588  0.0206
  732POPI   GL211258   9.118   6.801   5.497 -0.0890  0.1590 -0.1395
  732POPI   C1A11259   9.262   7.073   6.058 -0.2666  0.1237  0.1678
  732POPI   D2A11260   9.345   6.990   6.456  0.0884 -0.1753 -0.2589
  732POPI   C3A11261   9.426   6.582   6.521  0.1834  0.2021 -0.1959
  732POPI   C4A11262   9.440   6.294   6.782 -0.0609 -0.0176 -0.5638
  732POPI   C1B11263   9.028   6.612   5.903  0.1281 -0.3353  0.2388
  732POPI   C2B11264   8.931   6.669   6.330  0.1261  0.0638 -0.3153
  732POPI   C3B11265   8.981   6.546   6.865 -0.0047 -0.2103  0.0686
  732POPI   C4B11266   8.771   6.308   7.091  0.3036 -0.1419  0.0957
  733POPI    C111267   1.833  15.989   5.069 -0.1141 -0.1788 -0.0818
  733POPI    C211268   1.470  16.131   5.157 -0.0636 -0.0824 -0.0270
  733POPI    C311269   1.508  15.823   4.906 -0.1990 -0.2540  0.1593
  733POPI   PO411270   1.951  15.938   5.355 -0.1803 -0.1661 -0.2202
  733POPI   GL111271   1.846  15.959   5.761 -0.0772 -0.0970 -0.0714
  733POPI   GL211272   1.584  16.050   5.662  0.0390  0.4785 -0.1376
  733POPI   C1A11273   1.811  15.839   6.213  0.1703  0.1153  0.3999
  733POPI   D2A11274   2.031  15.622   6.521 -0.0635  0.1673 -0.5112
  733POPI   C3A11275   1.946  15.230   6.465  0.5273  0.2612 -0.0167
  733POPI   C4A11276   1.497  14.966   6.591  0.2554 -0.2408 -0.2042
  733POPI   C1B11277   1.302  16.077   6.086  0.4425  0.0783 -0.1218
  733POPI   C2B11278   1.391  16.353   6.471 -0.2718  0.1821 -0.0649
  733POPI   C3B11279   1.436  16.472   6.729  0.0787  0.0852  0.1590
  733POPI   C4B11280   1.386  16.764   7.006  0.0160 -0.1426 -0.0066
  734POPI    C111281  10.910  12.024   4.922 -0.1756 -0.0288  0.2089
  734POPI    C211282  10.946  11.888   4.547 -0.0294  0.2862  0.1054
  734POPI    C311283  10.619  12.091   4.656 -0.0903  0.1595  0.1616
  734POPI   PO411284  11.118  11.821   5.064  0.0272 -0.0227 -0.3446
  734POPI   GL111285  11.047  11.686   5.503  0.0461 -0.1251 -0.1715
  734POPI   GL211286  11.121  11.977   5.577 -0.0611 -0.0511  0.1902
  734POPI   C1A11287  11.168  11.423   5.796 -0.1093 -0.2104  0.1585
  734POPI   D2A11288  11.242  11.119   6.109  0.1883 -0.3265  0.1762
  734POPI   C3A11289  10.948  10.933   6.400  0.0391 -0.1715 -0.3184
  734POPI   C4A11290  10.720  10.738   6.714  0.1530 -0.5187  0.1538
  734POPI   C1B11291  11.073  11.867   5.978 -0.0854 -0.1162  0.2038
  734POPI   C2B11292  11.128  11.921   6.429 -0.0230 -0.1107  0.2287
  734POPI   C3B11293  11.187  12.131   6.802  0.0416  0.0662 -0.1058
  734POPI   C4B11294  11.328  12.528   6.895  0.0363  0.0128  0.2812
  735POPI    C111295  11.508   9.275   4.949  0.0021 -0.1498  0.0020
  735POPI    C211296  11.422   9.650   5.059  0.0385 -0.1411  0.0009
  735POPI    C311297  11.307   9.515   4.700 -0.2645 -0.2359  0.1297
  735POPI   PO411298  11.837   9.302   5.021 -0.2593 -0.0934  0.0794
  735POPI   GL111299  12.215   9.405   5.483  0.1658  0.1587  0.0613
  735POPI   GL211300  11.959   9.061   5.462  0.2568 -0.0728  0.2399
  735POPI   C1A11301  11.777   9.540   5.614 -0.3588  0.1618  0.0317
  735POPI   D2A11302  11.332   9.748   5.622  0.1679  0.2461 -0.0158
  735POPI   C3A11303  11.106   9.542   5.803 -0.1110  0.1133 -0.1400
  735POPI   C4A11304  11.126   9.096   5.914  0.0734  0.1131  0.0118
  735POPI   C1B11305  11.938   9.142   5.882 -0.0974 -0.0084  0.0060
  735POPI   C2B11306  11.770   8.967   6.297  0.0508 -0.0196  0.2533
  735POPI   C3B11307  11.550   8.656   6.482 -0.2736  0.3567 -0.0752
  735POPI   C4B11308  11.313   8.427   6.634 -0.1659 -0.0698 -0.1009
  736POPI    C111309   2.278  10.744   4.518  0.2401 -0.2290 -0.1121
  736POPI    C211310   2.617  10.905   4.382  0.0524  0.1558 -0.1371
  736POPI    C311311   2.365  10.726   4.128  0.2791 -0.2211 -0.1038
  736POPI   PO411312   2.183  10.992   4.696  0.0573 -0.2385  0.0376
  736POPI   GL111313   1.896  11.066   5.127  0.2316 -0.0310  0.2390
  736POPI   GL211314   1.698  10.914   5.471  0.1931 -0.1612  0.1374
  736POPI   C1A11315   2.186  11.084   5.472 -0.1270 -0.1456 -0.0473
  736POPI   D2A11316   2.129  11.173   5.835  0.0043  0.1657  0.0516
  736POPI   C3A11317   2.414  11.433   6.114  0.0414 -0.2958  0.1328
  736POPI   C4A11318   2.888  11.389   6.112  0.0386 -0.6874 -0.1667
  736POPI   C1B11319   1.382  10.922   5.855 -0.2267 -0.2748 -0.0331
  736POPI   C2B11320   1.398  10.549   6.213  0.2529  0.1019 -0.3493
  736POPI   C3B11321   1.650  10.460   6.481  0.0161 -0.2357 -0.0411
  736POPI   C4B11322   1.793  10.194   6.886 -0.1573 -0.0233  0.1374
  737POPI    C111323   2.335  18.081   5.830 -0.1098 -0.0997  0.1889
  737POPI    C211324   2.262  18.446   5.683  0.2068  0.0490  0.3901
  737POPI    C311325   1.966  18.179   5.712  0.0812  0.1023 -0.2618
  737POPI   PO411326   2.481  18.185   6.113 -0.0354 -0.3376  0.0700
  737POPI   GL111327   2.370  18.442   6.415  0.3096  0.2107 -0.3605
  737POPI   GL211328   2.075  18.430   6.564  0.3051  0.2862  0.0261
  737POPI   C1A11329   2.536  18.374   6.778  0.0260  0.3258  0.1056
  737POPI   D2A11330   2.556  18.398   7.133  0.1518  0.1033  0.3220
  737POPI   C3A11331   2.762  18.675   7.354 -0.0706 -0.2715 -0.1465
  737POPI   C4A11332   3.076  19.025   7.527  0.3120  0.0354 -0.0387
  737POPI   C1B11333   1.930  18.465   7.003  0.0893  0.2357  0.0744
  737POPI   C2B11334   2.083  18.539   7.426  0.3842 -0.1521  0.1831
  737POPI   C3B11335   2.436  18.446   7.580 -0.4009  0.2545 -0.0461
  737POPI   C4B11336   2.939  18.262   7.443 -0.1724 -0.0844 -0.1424
  738POPS   CNO11337  10.935  10.276   4.855 -0.0573 -0.1998 -0.1259
  738POPS   PO411338  10.510  10.228   4.756  0.3241  0.2014  0.0276
  738POPS   GL111339  10.513  10.156   5.162 -0.0478  0.0213 -0.0788
  738POPS   GL211340  10.770  10.035   5.288  0.3137  0.3077  0.2606
  738POPS   C1A11341  10.459  10.267   5.661 -0.0480  0.0069  0.1134
  738POPS   D2A11342  10.560   9.985   5.975 -0.0758 -0.2183 -0.0381
  738POPS   C3A11343  10.724   9.666   6.193 -0.0130  0.3010 -0.3227
  738POPS   C4A11344  11.121   9.532   6.332  0.2711  0.1885 -0.0346
  738POPS   C1B11345  10.989  10.178   5.715  0.0859 -0.5044 -0.1515
  738POPS   C2B11346  11.118  10.049   6.057  0.0037  0.1100  0.1949
  738POPS   C3B11347  10.877  10.076   6.386  0.0199 -0.0900 -0.0595
  738POPS   C4B11348  10.931  10.341   6.834 -0.1940  0.1318  0.4571
  739POPS   CNO11349  12.371   4.281   5.147  0.1308 -0.1414  0.1812
  739POPS   PO411350  12.412   4.362   5.438 -0.0603  0.0603  0.2760
  739POPS   GL111351  12.193   4.509   5.875 -0.3861  0.0307 -0.1466
  739POPS   GL211352  11.840   4.454   5.853 -0.2877  0.1500  0.2257
  739POPS   C1A11353  12.162   4.499   6.352 -0.0885  0.0108  0.1264
  739POPS   D2A11354  11.929   4.672   6.604  0.1301  0.3098  0.3431
  739POPS   C3A11355  11.452   4.582   6.758  0.3173  0.1039  0.0460
  739POPS   C4A11356  11.192   4.719   7.106 -0.0247  0.2405  0.0040
  739POPS   C1B11357  11.834   4.842   6.137  0.2121 -0.3173  0.0054
  739POPS   C2B11358  12.002   5.184   6.169  0.1286  0.1999 -0.1915
  739POPS   C3B11359  12.001   5.596   6.428  0.1723 -0.1510  0.0302
  739POPS   C4B11360  11.963   5.671   6.852 -0.2741 -0.1477  0.2856
  740POPS   CNO11361  12.920  12.090   5.452  0.2552  0.1286  0.4040
  740POPS   PO411362  12.658  12.449   5.257  0.2170 -0.1887 -0.1027
  740POPS   GL111363  12.396  12.451   5.599  0.0792  0.1852 -0.1068
  740POPS   GL211364  12.577  12.239   5.766 -0.1433 -0.1108 -0.0455
  740POPS   C1A11365  12.084  12.716   5.911  0.0976  0.2596  0.3031
  740POPS   D2A11366  11.903  12.997   6.135 -0.1117  0.0547 -0.2790
  740POPS   C3A11367  12.087  13.065   6.582  0.1826 -0.0974  0.1791
  740POPS   C4A11368  12.259  13.045   6.983 -0.0100  0.1142 -0.0108
  740POPS   C1B11369  12.528  12.498   6.095 -0.2427 -0.3331  0.0926
  740POPS   C2B11370  12.207  12.617   6.445 -0.4339  0.0017  0.0498
  740POPS   C3B11371  12.106  12.392   6.715  0.3573  0.4403 -0.4746
  740POPS   C4B11372  12.229  12.035   7.059 -0.1920 -0.1762 -0.2029
  741POPS   CNO11373   4.351   4.615   5.329  0.1794  0.3415  0.1054
  741POPS   PO411374   4.103   4.942   5.567  0.0560 -0.3411 -0.0415
  741POPS   GL111375   3.942   4.670   5.823  0.0355 -0.0724 -0.0566
  741POPS   GL211376   4.155   4.398   5.802 -0.1752  0.4545  0.0759
  741POPS   C1A11377   3.990   4.690   6.318 -0.0977 -0.4189  0.4647
  741POPS   D2A11378   4.173   4.356   6.634  0.0279  0.1555 -0.0066
  741POPS   C3A11379   4.454   4.274   6.925 -0.1730 -0.4188  0.0072
  741POPS   C4A11380   4.834   4.521   7.133  0.1494  0.0825  0.3565
  741POPS   C1B11381   4.380   4.210   6.101 -0.0274 -0.1014 -0.2454
  741POPS   C2B11382   4.645   4.135   6.475  0.0406 -0.0415  0.1001
  741POPS   C3B11383   4.927   4.050   6.731  0.1321 -0.1071 -0.0857
  741POPS   C4B11384   5.154   3.815   7.111  0.0664 -0.0981 -0.1708
  742POPS   CNO11385   2.116  15.492   5.546 -0.0666 -0.0661  0.1524
  742POPS   PO411386   2.122  15.090   5.312 -0.1344  0.2644 -0.2592
  742POPS   GL111387   1.874  15.054   5.751  0.2728  0.0257  0.1486
  742POPS   GL211388   1.901  15.330   5.957  0.2646  0.2617  0.5590
  742POPS   C1A11389   2.038  14.807   6.174  0.1865 -0.0540 -0.0827
  742POPS   D2A11390   1.901  14.736   6.623  0.2371 -0.3874 -0.0767
  742POPS   C3A11391   1.630  14.534   6.884 -0.2210 -0.1513 -0.3331
  742POPS   C4A11392   1.406  14.340   7.328 -0.1526  0.0191  0.1773
  742POPS   C1B11393   1.526  15.067   6.088 -0.1046  0.1033 -0.1763
  742POPS   C2B11394   1.567  14.616   6.202  0.1550 -0.0213  0.1502
  742POPS   C3B11395   1.733  14.256   6.483  0.0072 -0.0051 -0.1724
  742POPS   C4B11396   1.973  14.028   6.799  0.1622 -0.3956 -0.0159
  743POPS   CNO11397  17.630  18.764   4.785 -0.2443 -0.0817 -0.1824
  743POPS   PO411398  17.576  19.072   5.199  0.0109 -0.1063  0.2078
  743POPS   GL111399  17.679  18.940   5.666  0.3519 -0.4214 -0.1272
  743POPS   GL211400  17.733  18.662   5.686  0.1989 -0.0399  0.0399
  743POPS   C1A11401  17.734  18.990   6.082  0.2555 -0.0220 -0.0083
  743POPS   D2A11402  17.608  19.183   6.382 -0.4471  0.0388 -0.1745
  743POPS   C3A11403  17.281  19.406   6.434  0.1801 -0.4141 -0.2106
  743POPS   C4A11404  17.057  19.549   6.103 -0.0389 -0.1393 -0.0330
  743POPS   C1B11405  17.330  18.582   5.920  0.1481  0.1075  0.0474
  743POPS   C2B11406  16.985  18.475   6.110  0.1783 -0.0468  0.2130
  743POPS   C3B11407  16.765  18.532   6.476 -0.0288 -0.4065 -0.0661
  743POPS   C4B11408  16.765  18.477   6.837  0.0573  0.2086 -0.0574
  744POPS   CNO11409   6.813  13.563   5.222 -0.0413 -0.3437 -0.0890
  744POPS   PO411410   6.497  13.710   5.352  0.2217 -0.2339  0.1675
  744POPS   GL111411   6.812  13.673   5.694 -0.3113 -0.2880 -0.2086
  744POPS   GL211412   7.152  13.489   5.618  0.3653 -0.0046  0.2694
  744POPS   C1A11413   6.774  13.805   6.139  0.3557 -0.2620 -0.2067
  744POPS   D2A11414   6.744  13.928   6.530  0.0625 -0.3372  0.3433
  744POPS   C3A11415   6.348  14.129   6.757 -0.3602  0.2538 -0.2535
  744POPS   C4A11416   6.261  14.488   6.861 -0.0845 -0.0502  0.0111
  744POPS   C1B11417   7.172  13.039   5.769  0.4295 -0.3859 -0.0427
  744POPS   C2B11418   7.428  12.976   6.064  0.0563 -0.1716  0.0296
  744POPS   C3B11419   7.915  13.068   6.136 -0.2247  0.1866  0.0630
  744POPS   C4B11420   8.272  12.846   6.277 -0.0409  0.1453 -0.2150
  745POPS   CNO11421   2.881   1.085   6.076 -0.2921  0.1632  0.0813
  745POPS   PO411422   2.628   1.375   5.751 -0.0357 -0.0815  0.0115
  745POPS   GL111423   2.940   1.546   6.106 -0.1794  0.1358  0.0323
  745POPS   GL211424   2.737   1.651   6.364  0.3889 -0.0772 -0.0685
  745POPS   C1A11425   3.334   1.658   6.377 -0.3375 -0.1405 -0.0178
  745POPS   D2A11426   3.626   1.874   6.684  0.0164  0.1568  0.3461
  745POPS   C3A11427   3.381   2.303   6.849  0.1065  0.0145  0.1897
  745POPS   C4A11428   3.513   2.576   7.235 -0.0045  0.2438 -0.1639
  745POPS   C1B11429   2.519   1.943   6.780 -0.0892 -0.0260 -0.1349
  745POPS   C2B11430   2.485   1.878   7.252 -0.0437  0.2377  0.1845
  745POPS   C3B11431   2.550   2.187   7.556 -0.0436  0.0922  0.1395
  745POPS   C4B11432   2.566   2.535   7.858 -0.0341  0.1636  0.0208
  746POPS   CNO11433  15.937  16.801   4.734  0.2046 -0.2004  0.1997
  746POPS   PO411434  16.385  16.918   4.723  0.2998 -0.0160 -0.1629
  746POPS   GL111435  16.627  17.092   5.036  0.3609  0.0002 -0.0286
  746POPS   GL211436  16.787  16.796   5.150  0.1640  0.1692 -0.0647
  746POPS   C1A11437  16.445  17.348   5.416 -0.0452  0.0323  0.2301
  746POPS   D2A11438  16.182  17.583   5.598  0.0667  0.2999 -0.1308
  746POPS   C3A11439  15.823  17.495   5.786 -0.1139 -0.0060 -0.2124
  746POPS   C4A11440  15.911  17.508   6.243  0.1264 -0.0866  0.4102
  746POPS   C1B11441  16.781  16.908   5.526 -0.0254 -0.1719 -0.0904
  746POPS   C2B11442  16.760  16.862   6.023 -0.1539  0.0831  0.1716
  746POPS   C3B11443  16.577  16.960   6.319 -0.0767 -0.0711 -0.0903
  746POPS   C4B11444  16.389  16.972   6.813  0.3739 -0.0395  0.1455
  747POPS   CNO11445  17.930   7.669   5.195 -0.0452 -0.0152 -0.2608
  747POPS   PO411446  17.854   8.062   5.418  0.1032 -0.1791  0.0911
  747POPS   GL111447  18.044   7.976   5.728 -0.0072 -0.0189  0.2625
  747POPS   GL211448  18.329   8.164   5.764  0.0159  0.0261  0.0761
  747POPS   C1A11449  18.093   7.801   6.140 -0.2771 -0.0075  0.2418
  747POPS   D2A11450  17.717   7.555   6.111 -0.0053 -0.0537  0.3525
  747POPS   C3A11451  17.542   7.557   6.566 -0.2872 -0.2971  0.0509
  747POPS   C4A11452  17.356   7.446   6.898 -0.1755  0.2297 -0.5709
  747POPS   C1B11453  18.516   8.126   6.211  0.1083 -0.1370  0.0030
  747POPS   C2B11454  18.622   8.142   6.630  0.1677 -0.0445 -0.3196
  747POPS   C3B11455  18.853   8.300   7.015  0.2490 -0.1969  0.1222
  747POPS   C4B11456  19.075   8.467   7.412 -0.2077 -0.2929  0.1767
  748POPS   CNO11457   8.285   7.106   5.039  0.0832 -0.0426 -0.1434
  748POPS   PO411458   8.127   7.406   5.302  0.1811 -0.0304  0.1196
  748POPS   GL111459   8.144   7.549   5.753 -0.1622 -0.2491 -0.3518
  748POPS   GL211460   7.889   7.614   6.034  0.2129  0.0057  0.0336
  748POPS   C1A11461   8.413   7.634   6.180  0.0948  0.0445  0.1086
  748POPS   D2A11462   8.251   7.437   6.552  0.2885 -0.0754  0.4504
  748POPS   C3A11463   8.529   7.521   6.758 -0.1618 -0.2317  0.4231
  748POPS   C4A11464   8.494   7.734   7.132  0.1608 -0.0585 -0.2228
  748POPS   C1B11465   7.787   7.795   6.414  0.0158  0.3307 -0.2110
  748POPS   C2B11466   7.753   7.607   6.776  0.2156 -0.0824  0.2396
  748POPS   C3B11467   7.978   7.511   7.054  0.2399 -0.0530  0.1032
  748POPS   C4B11468   8.298   7.241   7.113  0.0391  0.2390 -0.0620
  749POPS   CNO11469   5.889   5.879   5.529 -0.0562  0.3150  0.2159
  749POPS   PO411470   6.076   5.596   5.323  0.2302 -0.1441 -0.3063
  749POPS   GL111471   6.005   5.372   5.702 -0.1625 -0.1270 -0.1162
  749POPS   GL211472   6.022   5.057   5.855  0.1883 -0.0071  0.5324
  749POPS   C1A11473   5.651   5.441   6.108 -0.1728  0.1199  0.1182
  749POPS   D2A11474   5.505   5.385   6.445 -0.1451  0.0481  0.0073
  749POPS   C3A11475   5.523   4.946   6.654 -0.0022  0.0695 -0.0319
  749POPS   C4A11476   5.655   4.678   6.425  0.3400  0.4065  0.1550
  749POPS   C1B11477   6.212   4.941   6.293  0.1261 -0.2520  0.1994
  749POPS   C2B11478   6.014   4.898   6.744  0.0188 -0.1124  0.1853
  749POPS   C3B11479   5.789   5.069   7.066  0.1332  0.0025  0.0741
  749POPS   C4B11480   5.467   5.076   7.256  0.1872  0.0699  0.1227
  750POPS   CNO11481   4.048   9.870   4.913 -0.0641 -0.0084 -0.1537
  750POPS   PO411482   4.213  10.125   5.292  0.1463  0.0492 -0.2709
  750POPS   GL111483   4.204  10.240   5.748  0.3538  0.1620 -0.2779
  750POPS   GL211484   4.480  10.421   5.718  0.1575 -0.0596 -0.1895
  750POPS   C1A11485   4.363   9.955   6.103 -0.0293  0.3689 -0.3507
  750POPS   D2A11486   4.193   9.854   6.395  0.1275  0.0429 -0.4277
  750POPS   C3A11487   4.147   9.489   6.760  0.2337 -0.3567  0.1305
  750POPS   C4A11488   4.097   9.412   7.267 -0.1820  0.0518 -0.2124
  750POPS   C1B11489   4.384  10.445   6.138  0.2706  0.2920 -0.2035
  750POPS   C2B11490   4.203  10.408   6.441  0.0276 -0.0998  0.2384
  750POPS   C3B11491   4.241  10.136   6.808  0.0641  0.1045  0.2668
  750POPS   C4B11492   3.913  10.070   7.228  0.2136 -0.3685 -0.0570
  751POPS   CNO11493  11.335  15.045   4.818 -0.1309 -0.0218 -0.1259
  751POPS   PO411494  10.990  15.062   4.936 -0.0269 -0.3522  0.0646
  751POPS   GL111495  10.937  15.107   5.417  0.1621 -0.0374  0.0240
  751POPS   GL211496  11.004  14.882   5.733  0.0660  0.1275  0.0785
  751POPS   C1A11497  10.985  15.337   5.803 -0.2928 -0.0763 -0.2029
  751POPS   D2A11498  11.161  15.589   6.092 -0.0819 -0.1373  0.2464
  751POPS   C3A11499  10.895  15.755   6.454 -0.2684  0.3880  0.0971
  751POPS   C4A11500  10.978  15.857   6.874 -0.3363 -0.1536  0.1410
  751POPS   C1B11501  10.584  14.969   5.937 -0.1407 -0.0506 -0.2948
  751POPS   C2B11502  10.362  14.785   6.231 -0.6726 -0.2703  0.0955
  751POPS   C3B11503  10.186  15.063   6.611  0.0790 -0.2060 -0.0181
  751POPS   C4B11504   9.793  15.069   6.803  0.0529 -0.2330 -0.0734
  752POPS   CNO11505  19.111  10.496   5.853  0.0636 -0.0568 -0.4050
  752POPS   PO411506  18.803  10.385   5.524 -0.0249  0.0332  0.1140
  752POPS   GL111507  18.598  10.445   5.986 -0.2462  0.2053  0.2441
  752POPS   GL211508  18.596  10.072   6.100  0.1302 -0.0225 -0.3876
  752POPS   C1A11509  18.898  10.504   6.306  0.0068  0.1973  0.2569
  752POPS   D2A11510  19.362  10.555   6.485 -0.3376 -0.3854  0.0188
  752POPS   C3A11511  19.566  10.237   6.669 -0.1301 -0.0276 -0.2291
  752POPS   C4A11512  19.303  10.096   7.044 -0.0461 -0.2446  0.0410
  752POPS   C1B11513  18.488  10.214   6.525 -0.1040 -0.1585  0.2717
  752POPS   C2B11514  18.567  10.056   7.029  0.2277 -0.2015  0.1222
  752POPS   C3B11515  18.464   9.770   7.335 -0.0323  0.0179 -0.0276
  752POPS   C4B11516  18.372   9.661   7.710  0.4538 -0.1162  0.0259
  753POPS   CNO11517   7.523   3.791   5.078  0.0057  0.0693 -0.1377
  753POPS   PO411518   7.124   3.862   5.112 -0.1743 -0.1705 -0.2070
  753POPS   GL111519   7.204   3.608   5.535 -0.2664 -0.2334  0.1199
  753POPS   GL211520   7.542   3.507   5.586 -0.1812 -0.1738  0.2242
  753POPS   C1A11521   7.180   3.437   5.949  0.1306 -0.1348 -0.1197
  753POPS   D2A11522   7.333   3.209   6.203 -0.1940  0.1861  0.1370
  753POPS   C3A11523   7.151   3.089   6.436 -0.1623 -0.1668  0.1932
  753POPS   C4A11524   6.791   2.927   6.568  0.2285  0.2427 -0.3362
  753POPS   C1B11525   7.660   3.706   6.035  0.4489  0.0366 -0.1400
  753POPS   C2B11526   7.570   3.589   6.449 -0.3026  0.0001  0.0434
  753POPS   C3B11527   7.178   3.632   6.686 -0.1124  0.0035  0.0643
  753POPS   C4B11528   6.957   3.405   6.943 -0.0095  0.1436 -0.0230
  754POPS   CNO11529   4.329  14.838   5.231  0.1523  0.0285  0.0544
  754POPS   PO411530   4.494  14.663   5.623 -0.2090 -0.0755  0.1106
  754POPS   GL111531   4.735  14.654   5.954  0.0346 -0.1346  0.0366
  754POPS   GL211532   4.573  14.730   6.174  0.2215 -0.2285 -0.3833
  754POPS   C1A11533   5.024  14.555   6.253 -0.1633  0.0579  0.1121
  754POPS   D2A11534   4.975  14.347   6.548  0.1387  0.0587  0.0268
  754POPS   C3A11535   5.077  14.252   6.972  0.1562  0.2865  0.0980
  754POPS   C4A11536   5.170  14.365   7.496 -0.0479 -0.0321  0.2581
  754POPS   C1B11537   4.782  14.832   6.598  0.0746 -0.2469  0.0139
  754POPS   C2B11538   4.826  15.004   6.958 -0.2829 -0.0947  0.1564
  754POPS   C3B11539   4.909  15.411   7.208 -0.1364  0.2516 -0.0415
  754POPS   C4B11540   4.675  15.713   7.329  0.1975 -0.0915 -0.0722
  755POPS   CNO11541  16.419   8.946   4.898  0.2677  0.2480 -0.0327
  755POPS   PO411542  16.172   8.809   5.272  0.1106  0.2549  0.1802
  755POPS   GL111543  15.868   8.628   5.515  0.4346 -0.2886  0.1733
  755POPS   GL211544  15.580   8.510   5.297 -0.3146 -0.0918  0.0633
  755POPS   C1A11545  15.817   8.486   5.939  0.0891 -0.2091  0.1911
  755POPS   D2A11546  15.682   8.164   6.212  0.0175  0.1957  0.0748
  755POPS   C3A11547  15.660   7.833   5.980 -0.0624 -0.0327 -0.1078
  755POPS   C4A11548  15.507   7.398   5.984  0.1066  0.0915 -0.2433
  755POPS   C1B11549  15.264   8.377   5.610  0.1231 -0.1161  0.0081
  755POPS   C2B11550  15.275   8.563   5.970  0.4078 -0.1685  0.2344
  755POPS   C3B11551  15.476   8.672   6.315  0.0993  0.1692  0.2406
  755POPS   C4B11552  15.711   8.832   6.658 -0.0140 -0.0215 -0.0538
  756POPS   CNO11553   5.410   2.183   5.656 -0.1311 -0.1116  0.1315
  756POPS   PO411554   5.326   1.663   5.575  0.1263 -0.1837 -0.2948
  756POPS   GL111555   5.314   1.793   6.016  0.0064  0.1578  0.1656
  756POPS   GL211556   5.614   1.908   6.102  0.0605 -0.0397 -0.0673
  756POPS   C1A11557   5.020   1.755   6.439  0.1152 -0.1460 -0.3400
  756POPS   D2A11558   4.937   1.652   6.814  0.2212 -0.0784 -0.1000
  756POPS   C3A11559   5.080   1.422   6.958 -0.2800 -0.0303  0.0869
  756POPS   C4A11560   5.330   1.087   6.968 -0.2150  0.0623  0.3310
  756POPS   C1B11561   6.061   1.784   6.105  0.1755  0.1262 -0.3044
  756POPS   C2B11562   6.399   1.791   6.449 -0.1840 -0.1474  0.0394
  756POPS   C3B11563   6.451   1.828   6.916  0.3257 -0.0206  0.0355
  756POPS   C4B11564   6.446   2.072   7.269 -0.1071  0.1923 -0.3672
  757POPS   CNO11565  17.108   8.906   4.996 -0.0080  0.0262 -0.0935
  757POPS   PO411566  17.187   8.966   5.346  0.0409 -0.0020  0.1555
  757POPS   GL111567  17.321   8.826   5.758 -0.0209  0.0734  0.3171
  757POPS   GL211568  16.997   8.854   5.878 -0.2755  0.1413  0.5650
  757POPS   C1A11569  17.565   8.934   5.988 -0.0369 -0.1963  0.0699
  757POPS   D2A11570  17.763   8.722   6.281 -0.0027 -0.1744 -0.0116
  757POPS   C3A11571  17.579   8.548   6.654 -0.0555 -0.3317  0.1325
  757POPS   C4A11572  17.320   8.557   6.965 -0.3775 -0.0157  0.1561
  757POPS   C1B11573  16.703   9.122   6.104 -0.0716 -0.1388 -0.2861
  757POPS   C2B11574  16.517   8.866   6.424 -0.2163  0.3828  0.0240
  757POPS   C3B11575  16.211   8.502   6.487 -0.0103 -0.3867 -0.0178
  757POPS   C4B11576  15.853   8.375   6.732  0.2543 -0.0955 -0.1272
  758POPS   CNO11577  13.099  18.328   4.699 -0.0776 -0.0498 -0.2333
  758POPS   PO411578  13.387  18.665   4.867  0.0953  0.2570  0.0667
  758POPS   GL111579  13.163  18.641   5.173 -0.0744  0.1540  0.2675
  758POPS   GL211580  12.987  18.293   5.235  0.0083 -0.0078 -0.0286
  758POPS   C1A11581  13.140  18.577   5.654 -0.2182  0.2485 -0.0857
  758POPS   D2A11582  13.166  18.622   5.979 -0.0817  0.1869  0.4572
  758POPS   C3A11583  13.321  18.988   6.055 -0.2090 -0.2297 -0.2415
  758POPS   C4A11584  13.334  19.483   6.167 -0.1241 -0.2049 -0.2676
  758POPS   C1B11585  12.949  18.083   5.441 -0.0305  0.3958 -0.0429
  758POPS   C2B11586  12.972  18.108   5.935  0.1528  0.1204 -0.1859
  758POPS   C3B11587  12.830  18.022   6.344  0.0028 -0.0442 -0.2143
  758POPS   C4B11588  12.834  18.047   6.733  0.2897 -0.1718  0.0400
  759POPS   CNO11589  18.288   6.323   5.537  0.3665  0.2710  0.0772
  759POPS   PO411590  18.482   6.670   5.510 -0.1863 -0.1043 -0.0121
  759POPS   GL111591  18.460   6.645   5.968 -0.2078 -0.0745 -0.1307
  759POPS   GL211592  18.716   6.451   6.104 -0.2954  0.2284  0.0242
  759POPS   C1A11593  18.275   6.930   6.297 -0.0019  0.0120 -0.0959
  759POPS   D2A11594  18.233   7.359   6.305 -0.1634  0.2610 -0.1459
  759POPS   C3A11595  17.958   7.357   6.593  0.1678 -0.1002  0.0882
  759POPS   C4A11596  17.812   7.171   6.960 -0.0772 -0.0211 -0.0212
  759POPS   C1B11597  18.494   6.473   6.426  0.0785 -0.2398  0.1244
  759POPS   C2B11598  18.311   6.676   6.806 -0.2176 -0.0026 -0.2821
  759POPS   C3B11599  18.467   6.944   7.200  0.0956 -0.2109  0.0951
  759POPS   C4B11600  18.759   7.228   7.250 -0.0656 -0.4532  0.4713
  760POPS   CNO11601  18.293   8.004   5.014 -0.0068  0.0845 -0.0170
  760POPS   PO411602  18.433   7.805   5.410  0.3315  0.4203  0.2782
  760POPS   GL111603  18.768   7.918   5.815 -0.2711 -0.2549  0.0995
  760POPS   GL211604  18.540   7.626   5.897 -0.1829  0.1932  0.1947
  760POPS   C1A11605  18.998   8.221   6.123 -0.3312  0.1647 -0.1251
  760POPS   D2A11606  18.990   8.452   6.546  0.0725 -0.3615 -0.0824
  760POPS   C3A11607  18.580   8.639   6.629  0.1925  0.0787  0.0480
  760POPS   C4A11608  18.414   8.617   6.975 -0.4417 -0.2267  0.1435
  760POPS   C1B11609  18.661   7.603   6.320  0.0550 -0.2273  0.1188
  760POPS   C2B11610  18.970   7.814   6.436 -0.0392 -0.0569  0.0156
  760POPS   C3B11611  19.379   8.054   6.706  0.0761  0.1176 -0.0108
  760POPS   C4B11612  19.313   8.450   6.944  0.1106 -0.0417 -0.1496
  761POPS   CNO11613  19.175  13.844   5.332  0.0003 -0.1576 -0.4172
  761POPS   PO411614  18.960  13.454   5.305 -0.0383 -0.3218  0.0175
  761POPS   GL111615  18.859  13.619   5.650 -0.2009 -0.1334 -0.0871
  761POPS   GL211616  19.188  13.527   5.724 -0.3837  0.2087 -0.6071
  761POPS   C1A11617  18.884  13.439   6.092  0.0611  0.0821 -0.1084
  761POPS   D2A11618  18.801  13.444   6.480 -0.0352  0.2407 -0.1149
  761POPS   C3A11619  19.149  13.624   6.797 -0.0894  0.0586  0.2270
  761POPS   C4A11620  19.509  13.868   6.637  0.0693 -0.1813  0.1168
  761POPS   C1B11621  19.148  14.045   5.951  0.0548 -0.0061 -0.3123
  761POPS   C2B11622  19.324  14.268   6.308  0.2207  0.0193 -0.0384
  761POPS   C3B11623  19.721  14.440   6.323 -0.1970 -0.2344 -0.1015
  761POPS   C4B11624  20.075  14.366   6.105 -0.4476  0.4055  0.3314
  762POPS   CNO11625   0.114  18.807   5.511 -0.1452 -0.2942  0.0244
  762POPS   PO411626   0.241  19.300   5.626 -0.1839 -0.0450  0.1011
  762POPS   GL111627   0.223  19.250   6.059  0.0790 -0.0456  0.2883
  762POPS   GL211628  -0.040  19.223   6.245 -0.0805  0.1191  0.1832
  762POPS   C1A11629   0.503  19.115   6.326  0.2561 -0.0692 -0.0054
  762POPS   D2A11630   0.710  18.803   6.612  0.2732 -0.1065 -0.2011
  762POPS   C3A11631   0.683  18.912   7.103 -0.0037 -0.2338  0.1380
  762POPS   C4A11632   0.550  19.194   7.358  0.1038 -0.1032 -0.1457
  762POPS   C1B11633  -0.045  19.217   6.659  0.1520 -0.0490 -0.2822
  762POPS   C2B11634  -0.231  18.908   6.859  0.0329 -0.3159 -0.1557
  762POPS   C3B11635  -0.427  18.853   7.232  0.0102  0.0353 -0.3589
  762POPS   C4B11636  -0.158  18.792   7.641 -0.0104  0.4110  0.2709
  763POPS   CNO11637  10.065  11.368   4.700 -0.0847  0.0588 -0.1891
  763POPS   PO411638  10.257  11.423   5.088  0.1035  0.1420  0.0910
  763POPS   GL111639  10.277  11.581   5.497 -0.2119 -0.1119 -0.1628
  763POPS   GL211640  10.174  11.333   5.588  0.1394  0.2748 -0.1176
  763POPS   C1A11641  10.551  11.783   5.763 -0.1043  0.0103  0.0529
  763POPS   D2A11642  10.543  11.877   6.185  0.1973  0.1074  0.0758
  763POPS   C3A11643  10.630  12.148   6.510 -0.0896  0.2579 -0.0567
  763POPS   C4A11644  10.453  12.246   6.876  0.3221 -0.1911 -0.0497
  763POPS   C1B11645  10.179  11.344   5.983  0.0438  0.1985 -0.2629
  763POPS   C2B11646  10.089  11.508   6.389  0.1419  0.3092  0.2538
  763POPS   C3B11647  10.198  11.881   6.620  0.2007 -0.0863 -0.2085
  763POPS   C4B11648   9.842  12.254   6.640  0.3114  0.1599  0.1803
  764POPS   CNO11649   6.721  16.434   5.002 -0.1967  0.1533  0.0082
  764POPS   PO411650   7.081  16.382   5.335 -0.2436  0.2887  0.2256
  764POPS   GL111651   6.992  16.276   5.769 -0.2820 -0.2013  0.1298
  764POPS   GL211652   6.782  16.007   5.853  0.2503 -0.0943 -0.0172
  764POPS   C1A11653   6.920  16.453   6.124  0.1015  0.4387 -0.1005
  764POPS   D2A11654   6.951  16.614   6.389  0.3991 -0.0914  0.5336
  764POPS   C3A11655   6.920  16.454   6.779 -0.1283  0.3414  0.0869
  764POPS   C4A11656   7.138  16.287   7.111  0.0732  0.1101 -0.3694
  764POPS   C1B11657   6.638  16.048   6.216  0.3782 -0.0586 -0.3005
  764POPS   C2B11658   6.451  16.286   6.503 -0.2151 -0.2943  0.0363
  764POPS   C3B11659   6.532  16.340   7.004  0.1205  0.0147 -0.2068
  764POPS   C4B11660   6.755  16.087   7.267  0.2811 -0.1577 -0.0198
  765POPS   CNO11661  15.998  14.974   4.960  0.2056 -0.1562  0.1202
  765POPS   PO411662  15.695  14.752   4.893 -0.1286 -0.2110 -0.0858
  765POPS   GL111663  15.718  14.867   5.387 -0.0564  0.2558 -0.2565
  765POPS   GL211664  15.882  15.143   5.552 -0.1291  0.1218 -0.1511
  765POPS   C1A11665  15.255  14.898   5.663 -0.2708  0.1074  0.2142
  765POPS   D2A11666  14.752  14.858   5.903 -0.1499  0.1728  0.0589
  765POPS   C3A11667  14.800  14.863   6.371 -0.0242 -0.1633  0.1957
  765POPS   C4A11668  14.901  14.732   6.793  0.0865  0.1487 -0.2076
  765POPS   C1B11669  15.645  15.157   5.898  0.3418  0.0322  0.0280
  765POPS   C2B11670  15.247  15.085   6.149  0.1971  0.0441 -0.0345
  765POPS   C3B11671  15.131  15.191   6.628  0.0068 -0.0685  0.0854
  765POPS   C4B11672  15.341  15.449   6.879  0.0644  0.3261  0.0427
  766POPS   CNO11673   9.591  16.084   5.375 -0.1736 -0.2712 -0.2528
  766POPS   PO411674   9.273  15.849   5.344 -0.0057  0.0333  0.1711
  766POPS   GL111675   9.184  15.687   5.690 -0.3358  0.1122 -0.1401
  766POPS   GL211676   8.966  15.464   5.859  0.0464  0.0772  0.0550
  766POPS   C1A11677   9.352  15.700   6.111  0.0082  0.0444  0.1140
  766POPS   D2A11678   9.366  15.575   6.542 -0.1676 -0.2966  0.3410
  766POPS   C3A11679   8.917  15.720   6.720 -0.0544  0.1331 -0.0459
  766POPS   C4A11680   8.629  15.744   6.661 -0.2546  0.2677 -0.1607
  766POPS   C1B11681   9.265  15.206   6.107  0.0426  0.1922 -0.0930
  766POPS   C2B11682   9.654  15.236   6.282 -0.2774 -0.1952 -0.3198
  766POPS   C3B11683   9.861  15.552   6.502  0.0499  0.4809  0.2191
  766POPS   C4B11684  10.235  15.661   6.624 -0.2171  0.1356 -0.2008
  767POPS   CNO11685   0.058  17.133   5.320 -0.0770  0.3164  0.0242
  767POPS   PO411686   0.069  16.684   5.446 -0.1489 -0.1570 -0.0633
  767POPS   GL111687   0.383  17.005   5.650 -0.2126 -0.3334  0.0914
  767POPS   GL211688   0.397  17.401   5.822  0.2246 -0.0015 -0.1399
  767POPS   C1A11689   0.653  16.925   5.934  0.2449  0.0155 -0.0573
  767POPS   D2A11690   0.741  16.905   6.316 -0.1365 -0.1571 -0.0944
  767POPS   C3A11691   1.100  17.092   6.501 -0.2193 -0.0074 -0.0670
  767POPS   C4A11692   1.444  17.260   6.736  0.0175 -0.0694 -0.1469
  767POPS   C1B11693   0.373  17.328   6.212 -0.0976  0.2562  0.1498
  767POPS   C2B11694   0.318  17.275   6.558 -0.1078 -0.3355 -0.3073
  767POPS   C3B11695   0.150  17.295   6.989  0.0404  0.1609 -0.0170
  767POPS   C4B11696   0.104  17.456   7.343  0.3016 -0.0054 -0.1891
  768POPS   CNO11697   9.198   8.144   5.018 -0.1251 -0.4263 -0.2862
  768POPS   PO411698   9.593   7.971   5.044 -0.2170  0.0562 -0.3398
  768POPS   GL111699   9.834   8.316   5.255  0.0581 -0.0415 -0.0855
  768POPS   GL211700   9.806   8.708   5.361 -0.0966 -0.2675  0.1434
  768POPS   C1A11701  10.044   8.259   5.613  0.0123  0.1861  0.2011
  768POPS   D2A11702  10.019   8.259   5.990 -0.1030  0.1058  0.0814
  768POPS   C3A11703  10.113   8.008   6.247  0.4105  0.3614 -0.1731
  768POPS   C4A11704   9.864   7.657   6.399  0.0486  0.0644  0.2686
  768POPS   C1B11705   9.922   9.103   5.529  0.0103 -0.0883 -0.2071
  768POPS   C2B11706  10.024   9.356   5.907  0.1454  0.0164  0.2069
  768POPS   C3B11707  10.273   9.469   6.242  0.0169  0.0380 -0.1375
  768POPS   C4B11708  10.395   9.628   6.684  0.1874 -0.1690 -0.3726
  769POPS   CNO11709   0.669  15.360   4.877  0.0011 -0.0006  0.0780
  769POPS   PO411710   0.301  15.378   5.160  0.2718 -0.4659  0.1405
  769POPS   GL111711   0.363  15.456   5.603 -0.1423  0.1187  0.1199
  769POPS   GL211712   0.601  15.345   5.822  0.0733  0.1386 -0.2075
  769POPS   C1A11713   0.192  15.780   5.934  0.0090  0.3560 -0.3451
  769POPS   D2A11714   0.417  15.916   6.370 -0.1171  0.0764 -0.1070
  769POPS   C3A11715   0.204  16.008   6.722  0.1441  0.0286  0.2833
  769POPS   C4A11716   0.396  15.933   7.184 -0.1082  0.2334  0.0232
  769POPS   C1B11717   0.507  15.421   6.188 -0.2641 -0.2350  0.0971
  769POPS   C2B11718   0.447  15.249   6.609  0.4250  0.2561 -0.1764
  769POPS   C3B11719   0.428  15.115   6.974 -0.1404  0.1761 -0.0671
  769POPS   C4B11720   0.409  14.614   7.254  0.0110 -0.0299 -0.0226
  770POPS   CNO11721   7.725   4.963   5.080  0.2294  0.1522 -0.1169
  770POPS   PO411722   7.404   4.888   5.441  0.0400 -0.0668 -0.0610
  770POPS   GL111723   7.119   5.019   5.717 -0.1024  0.0144 -0.2269
  770POPS   GL211724   7.116   5.175   5.969 -0.0306  0.1502  0.1317
  770POPS   C1A11725   7.101   4.708   6.120 -0.0920  0.0474 -0.0575
  770POPS   D2A11726   7.106   4.612   6.595 -0.1346  0.1679 -0.1561
  770POPS   C3A11727   6.923   4.236   6.740 -0.0813 -0.2712 -0.1220
  770POPS   C4A11728   6.640   3.932   6.571  0.1470 -0.2665  0.0201
  770POPS   C1B11729   7.169   5.226   6.358 -0.1128  0.0152 -0.1566
  770POPS   C2B11730   7.311   5.033   6.732  0.0273  0.2443 -0.0336
  770POPS   C3B11731   7.646   4.888   7.013 -0.1917  0.0075  0.1236
  770POPS   C4B11732   7.825   4.921   7.419 -0.0267 -0.0935  0.1386
  771POPS   CNO11733  18.445  17.484   5.080 -0.1759  0.0969  0.0534
  771POPS   PO411734  18.590  17.391   5.490  0.2154  0.0397  0.1727
  771POPS   GL111735  18.386  17.064   5.660  0.0181 -0.1726  0.1265
  771POPS   GL211736  18.558  16.894   5.882  0.1847  0.0867 -0.2467
  771POPS   C1A11737  18.047  16.828   5.731 -0.2136  0.1465 -0.2203
  771POPS   D2A11738  17.792  16.748   6.021 -0.0734 -0.0079  0.0667
  771POPS   C3A11739  17.636  16.961   6.392 -0.1895 -0.3360 -0.1201
  771POPS   C4A11740  17.741  16.952   6.867 -0.0481  0.3117  0.0679
  771POPS   C1B11741  18.221  16.832   6.218  0.1557  0.1553  0.0108
  771POPS   C2B11742  17.860  16.507   6.402 -0.1695 -0.1130 -0.0638
  771POPS   C3B11743  17.480  16.593   6.710  0.1062 -0.1467  0.4641
  771POPS   C4B11744  17.316  16.835   7.056 -0.0196 -0.0593  0.0881
  772POPS   CNO11745  10.763   7.167   5.575  0.3296  0.0901  0.0566
  772POPS   PO411746  10.736   7.560   5.353  0.0140 -0.0852  0.1019
  772POPS   GL111747  10.885   7.783   5.813 -0.0805 -0.1024 -0.2278
  772POPS   GL211748  11.273   7.793   5.838  0.0649  0.1926 -0.0299
  772POPS   C1A11749  11.004   7.652   6.210  0.3222 -0.0465 -0.4545
  772POPS   D2A11750  11.205   7.821   6.435  0.2527 -0.3389  0.4043
  772POPS   C3A11751  11.311   7.709   6.871 -0.0165 -0.1713  0.3036
  772POPS   C4A11752  11.708   7.428   6.923 -0.1450 -0.1056  0.5055
  772POPS   C1B11753  11.550   7.728   6.124 -0.1653  0.0068  0.0396
  772POPS   C2B11754  11.703   7.627   6.457 -0.3334  0.2028 -0.0909
  772POPS   C3B11755  12.059   7.367   6.552  0.0839 -0.0116  0.1414
  772POPS   C4B11756  12.381   7.435   6.386  0.0504 -0.1603 -0.1277
  773POPS   CNO11757   1.717   1.745   5.583 -0.2474  0.1086  0.2216
  773POPS   PO411758   1.352   1.936   5.740 -0.1767  0.1625 -0.0901
  773POPS   GL111759   1.354   2.000   6.237 -0.2031 -0.1077 -0.0765
  773POPS   GL211760   1.543   2.153   6.457  0.0097  0.1966 -0.1539
  773POPS   C1A11761   1.235   1.828   6.673 -0.3725 -0.3795 -0.1459
  773POPS   D2A11762   1.153   1.738   6.995 -0.1864  0.1566  0.1185
  773POPS   C3A11763   0.789   1.755   7.212  0.1496 -0.5030  0.4133
  773POPS   C4A11764   0.413   1.385   7.320 -0.2293  0.1868 -0.0030
  773POPS   C1B11765   1.610   2.078   6.932  0.1096 -0.1107 -0.2873
  773POPS   C2B11766   1.449   2.068   7.338 -0.0772 -0.3125  0.0680
  773POPS   C3B11767   1.089   1.818   7.545 -0.2963 -0.2242  0.1046
  773POPS   C4B11768   1.239   1.564   8.048 -0.1965  0.2623 -0.0991
  774POPS   CNO11769  15.596   2.729   5.043  0.1282  0.3385 -0.1998
  774POPS   PO411770  15.360   2.867   5.470  0.0955 -0.3846  0.1865
  774POPS   GL111771  15.396   2.797   5.825 -0.2955  0.2258 -0.4164
  774POPS   GL211772  15.556   2.466   5.981  0.1044  0.1664 -0.0743
  774POPS   C1A11773  15.353   2.881   6.245 -0.2549 -0.0981  0.0819
  774POPS   D2A11774  15.545   2.959   6.615  0.2321 -0.2281  0.0559
  774POPS   C3A11775  15.188   2.951   6.878 -0.2833 -0.2411 -0.1637
  774POPS   C4A11776  14.821   3.038   7.071  0.1610  0.0314  0.3439
  774POPS   C1B11777  15.578   2.364   6.488 -0.2451 -0.0327  0.1204
  774POPS   C2B11778  15.323   2.270   6.805 -0.0188 -0.2928 -0.1783
  774POPS   C3B11779  15.243   2.474   7.176  0.1293  0.1133  0.1998
  774POPS   C4B11780  15.221   2.871   7.389  0.3786 -0.0977  0.1653
  775POPS   CNO11781   6.498   8.504   4.871  0.1108 -0.3092  0.2710
  775POPS   PO411782   6.497   8.667   5.284 -0.1119 -0.1173 -0.0650
  775POPS   GL111783   6.418   8.843   5.709 -0.0863  0.0926 -0.1626
  775POPS   GL211784   6.417   9.176   5.836  0.0158  0.1790 -0.3151
  775POPS   C1A11785   6.320   8.654   6.013  0.1409 -0.0527  0.0622
  775POPS   D2A11786   6.081   8.478   6.233  0.1941 -0.3666 -0.1094
  775POPS   C3A11787   5.821   8.649   6.573  0.0972 -0.3404  0.1946
  775POPS   C4A11788   5.624   8.792   7.013 -0.0132 -0.0402  0.0826
  775POPS   C1B11789   6.076   9.039   6.117 -0.0428 -0.1494  0.1270
  775POPS   C2B11790   5.921   9.181   6.617  0.0806  0.2389  0.0979
  775POPS   C3B11791   6.036   9.133   7.057 -0.1744 -0.2587  0.1037
  775POPS   C4B11792   5.685   9.005   7.420 -0.0543  0.0557 -0.2216
  776POPS   CNO11793  16.708  10.200   5.202  0.2872  0.0470 -0.5338
  776POPS   PO411794  16.218  10.343   5.174  0.1595  0.1119  0.4093
  776POPS   GL111795  16.188  10.223   5.601 -0.1299  0.2681  0.0458
  776POPS   GL211796  16.391   9.968   5.735 -0.1470  0.1665 -0.1348
  776POPS   C1A11797  15.879  10.125   5.855 -0.1397 -0.3636  0.4557
  776POPS   D2A11798  15.654  10.270   6.146  0.0551  0.0783 -0.1189
  776POPS   C3A11799  15.503  10.137   6.484 -0.3084 -0.1296  0.0853
  776POPS   C4A11800  15.263  10.194   6.854  0.1573  0.1383  0.0437
  776POPS   C1B11801  16.531  10.134   6.076  0.0776 -0.0824  0.1034
  776POPS   C2B11802  16.626  10.120   6.499  0.3187 -0.0082 -0.1016
  776POPS   C3B11803  16.618  10.123   7.011 -0.2168 -0.0281 -0.0516
  776POPS   C4B11804  16.339  10.206   7.358  0.2772  0.2602 -0.1854
  777POPS   CNO11805  15.611  19.131   4.401  0.1015  0.1365  0.2438
  777POPS   PO411806  15.427  19.136   4.846  0.2385 -0.1655 -0.1430
  777POPS   GL111807  15.305  19.100   5.269  0.1231 -0.0758  0.0681
  777POPS   GL211808  15.176  19.391   5.467 -0.0960 -0.0960  0.0675
  777POPS   C1A11809  15.034  18.887   5.564 -0.2216 -0.3766  0.0360
  777POPS   D2A11810  15.137  19.052   6.031 -0.1402  0.1205  0.0973
  777POPS   C3A11811  15.212  18.844   6.265  0.0277  0.3021 -0.0880
  777POPS   C4A11812  15.552  18.564   6.373 -0.2056 -0.0823 -0.0129
  777POPS   C1B11813  15.216  19.550   5.897 -0.1544 -0.1441 -0.3392
  777POPS   C2B11814  15.341  19.751   6.253  0.3044  0.1471 -0.2162
  777POPS   C3B11815  15.172  19.840   6.594  0.0629  0.0912  0.3403
  777POPS   C4B11816  15.355  19.950   7.059  0.0209 -0.1496  0.0402
  778POPS   CNO11817   9.346   9.380   4.721  0.1464  0.4141  0.0207
  778POPS   PO411818   9.298   9.585   5.161  0.2741  0.0662  0.2650
  778POPS   GL111819   9.227   9.191   5.511 -0.2504 -0.2602 -0.2465
  778POPS   GL211820   9.134   8.805   5.548  0.1132 -0.2305 -0.2693
  778POPS   C1A11821   9.496   9.039   5.898 -0.0564 -0.0296  0.3155
  778POPS   D2A11822   9.868   9.104   6.287  0.2594  0.0799  0.0617
  778POPS   C3A11823   9.851   8.885   6.714  0.0363 -0.2433  0.1126
  778POPS   C4A11824  10.155   8.687   6.978  0.0668  0.2411 -0.0240
  778POPS   C1B11825   8.934   8.904   5.927 -0.2532  0.2421 -0.0422
  778POPS   C2B11826   9.133   9.098   6.234  0.0521  0.2548  0.2420
  778POPS   C3B11827   9.392   9.002   6.521 -0.1243  0.5329 -0.0352
  778POPS   C4B11828   9.568   9.234   6.831 -0.0344  0.1811 -0.1747
  779POPS   CNO11829  17.404   1.385   5.273 -0.0168  0.1537  0.2312
  779POPS   PO411830  17.525   1.476   5.692  0.1760  0.0747  0.2994
  779POPS   GL111831  17.767   1.145   5.950 -0.1607 -0.3744  0.3078
  779POPS   GL211832  17.816   0.925   5.747  0.4023 -0.5142  0.2081
  779POPS   C1A11833  17.754   0.841   6.372  0.2089 -0.2827 -0.1775
  779POPS   D2A11834  18.011   0.780   6.739 -0.0496  0.0090  0.2649
  779POPS   C3A11835  17.874   0.668   7.082 -0.2941 -0.0187  0.1864
  779POPS   C4A11836  18.221   0.742   7.393 -0.0837  0.1869 -0.0577
  779POPS   C1B11837  17.969   0.508   5.991  0.3288  0.1841  0.2169
  779POPS   C2B11838  17.883   0.381   6.435  0.1679 -0.1052 -0.0376
  779POPS   C3B11839  17.713   0.105   6.672  0.0856 -0.0532  0.0703
  779POPS   C4B11840  17.695  -0.201   6.944 -0.0110  0.0125  0.3433
  780POPS   CNO11841   0.438  17.478   5.346 -0.2619 -0.5987  0.1761
  780POPS   PO411842   0.855  17.437   5.423  0.0345  0.1478 -0.2573
  780POPS   GL111843   0.845  17.603   5.806 -0.0670  0.2488 -0.1604
  780POPS   GL211844   1.168  17.854   5.874 -0.1892 -0.0727 -0.0992
  780POPS   C1A11845   0.801  17.456   6.260 -0.3124 -0.3338 -0.3115
  780POPS   D2A11846   0.782  17.338   6.785 -0.2105  0.1038  0.3687
  780POPS   C3A11847   0.671  17.497   7.186  0.1360  0.0831 -0.3632
  780POPS   C4A11848   0.542  17.184   7.513 -0.1654 -0.1253 -0.0528
  780POPS   C1B11849   0.928  17.989   6.200 -0.0840 -0.0032  0.3186
  780POPS   C2B11850   0.819  18.051   6.618  0.0208  0.1242 -0.2781
  780POPS   C3B11851   0.832  17.981   7.105 -0.1162  0.0327 -0.0410
  780POPS   C4B11852   0.815  17.791   7.584  0.1504 -0.0117 -0.5024
  781POPS   CNO11853  15.313  14.088   5.334 -0.1116 -0.1872  0.2517
  781POPS   PO411854  15.322  13.774   5.115 -0.0090 -0.1850 -0.1562
  781POPS   GL111855  15.277  13.496   5.396 -0.3055 -0.0014 -0.0400
  781POPS   GL211856  14.942  13.411   5.442  0.1936  0.0080 -0.1276
  781POPS   C1A11857  15.441  13.531   5.770 -0.2247  0.3532  0.3124
  781POPS   D2A11858  15.735  13.449   6.095  0.2594 -0.1208 -0.1343
  781POPS   C3A11859  15.713  13.385   6.546  0.1770  0.0129 -0.2131
  781POPS   C4A11860  15.717  13.670   6.632  0.1794 -0.1053 -0.1422
  781POPS   C1B11861  14.890  13.394   5.843 -0.2860 -0.0510  0.1083
  781POPS   C2B11862  14.548  13.314   6.075  0.1501 -0.0809  0.1020
  781POPS   C3B11863  14.344  13.201   6.435 -0.0787  0.2547 -0.0786
  781POPS   C4B11864  14.367  12.894   6.726 -0.0565 -0.0003  0.3133
  782POPS   CNO11865  15.721   4.770   4.783 -0.0597 -0.1438 -0.0977
  782POPS   PO411866  15.723   5.002   5.222  0.0801  0.0171  0.0707
  782POPS   GL111867  15.691   5.169   5.669  0.0848  0.1851 -0.0218
  782POPS   GL211868  15.671   5.462   5.701 -0.2951 -0.1513  0.3127
  782POPS   C1A11869  15.893   4.871   5.812 -0.0841 -0.2766 -0.3289
  782POPS   D2A11870  15.814   4.671   6.220  0.1257 -0.1939 -0.2524
  782POPS   C3A11871  15.509   4.398   6.244 -0.1141  0.0722  0.1181
  782POPS   C4A11872  15.130   4.323   6.102  0.1255  0.1108 -0.2293
  782POPS   C1B11873  15.822   5.631   6.111  0.2486 -0.0704  0.0523
  782POPS   C2B11874  15.987   5.467   6.474  0.1102  0.3007  0.3389
  782POPS   C3B11875  15.991   5.448   6.938  0.2815  0.1190  0.2666
  782POPS   C4B11876  15.840   5.185   7.148  0.0333 -0.2869  0.0640
  783POPS   CNO11877   6.470  12.628   4.664  0.1351  0.0405 -0.1148
  783POPS   PO411878   6.453  12.860   5.078  0.0376 -0.0791 -0.0502
  783POPS   GL111879   6.611  13.135   5.439  0.1022  0.0253 -0.0045
  783POPS   GL211880   6.824  12.933   5.468 -0.1298 -0.1481 -0.0873
  783POPS   C1A11881   6.690  13.176   5.905 -0.1316 -0.1837 -0.2262
  783POPS   D2A11882   6.922  13.396   6.173  0.2220  0.0942 -0.2080
  783POPS   C3A11883   7.012  13.523   6.563 -0.0999 -0.1424 -0.2859
  783POPS   C4A11884   7.380  13.673   6.739 -0.3682 -0.0343 -0.3024
  783POPS   C1B11885   6.763  12.678   5.893  0.0196  0.1858 -0.4525
  783POPS   C2B11886   6.765  12.721   6.391 -0.2934 -0.0411 -0.0942
  783POPS   C3B11887   6.897  12.427   6.697  0.0068 -0.2359 -0.3129
  783POPS   C4B11888   6.984  12.371   7.034 -0.3853 -0.0913 -0.0328
  784POPS   CNO11889   0.293   4.213   6.412  0.1716  0.2376 -0.2658
  784POPS   PO411890   0.104   3.848   6.293 -0.1359 -0.0676  0.2488
  784POPS   GL111891  -0.149   3.930   6.453  0.2649 -0.0060 -0.0839
  784POPS   GL211892  -0.210   4.201   6.543  0.0133  0.4341  0.3422
  784POPS   C1A11893  -0.151   3.846   7.009  0.0251  0.2783  0.4044
  784POPS   D2A11894  -0.224   4.101   7.341  0.1189  0.1499  0.0831
  784POPS   C3A11895   0.120   4.293   7.574 -0.4543  0.2262  0.0839
  784POPS   C4A11896   0.603   4.383   7.574  0.2380 -0.1255 -0.1620
  784POPS   C1B11897   0.078   4.299   6.866 -0.1760 -0.2807 -0.0509
  784POPS   C2B11898   0.210   4.612   7.189  0.2018 -0.0073 -0.1864
  784POPS   C3B11899   0.212   4.912   7.515 -0.1552  0.2299 -0.0224
  784POPS   C4B11900   0.458   5.258   7.604 -0.0256  0.0218 -0.0523
  785POPS   CNO11901  13.626  12.939   4.863 -0.4945 -0.0310 -0.0126
  785POPS   PO411902  14.064  12.932   4.759  0.1441  0.1306 -0.0943
  785POPS   GL111903  14.010  12.961   5.182 -0.1307 -0.0418 -0.0774
  785POPS   GL211904  13.787  12.999   5.355 -0.1425 -0.1608 -0.1060
  785POPS   C1A11905  14.225  12.739   5.636  0.1756  0.0197  0.2390
  785POPS   D2A11906  14.284  12.832   6.075 -0.2087 -0.1569  0.3972
  785POPS   C3A11907  14.160  12.576   6.411 -0.1592  0.1028 -0.0201
  785POPS   C4A11908  13.914  12.584   6.633 -0.0449 -0.2739  0.2205
  785POPS   C1B11909  13.624  12.710   5.650 -0.0556  0.3201 -0.1515
  785POPS   C2B11910  13.677  12.358   5.909 -0.2227 -0.0587  0.0922
  785POPS   C3B11911  13.516  11.982   6.110  0.0810 -0.0480 -0.3258
  785POPS   C4B11912  13.811  11.663   6.115 -0.2364 -0.2801  0.1200
  786POPS   CNO11913   1.494   8.688   5.524 -0.0320 -0.1398  0.2053
  786POPS   PO411914   1.403   8.255   5.496  0.2140 -0.0523  0.2049
  786POPS   GL111915   1.537   7.983   5.841  0.1939 -0.2289 -0.0270
  786POPS   GL211916   1.774   7.802   5.660  0.3529  0.0841 -0.3918
  786POPS   C1A11917   1.732   7.789   6.292  0.1167  0.0946  0.1670
  786POPS   D2A11918   1.604   7.771   6.758 -0.1245  0.1568 -0.2241
  786POPS   C3A11919   1.872   7.906   7.021  0.0250  0.1816  0.1883
  786POPS   C4A11920   2.153   7.922   7.358 -0.2626 -0.3336  0.0972
  786POPS   C1B11921   2.087   7.634   6.000  0.1467  0.1756 -0.1428
  786POPS   C2B11922   2.121   7.429   6.339 -0.2646 -0.0612  0.2545
  786POPS   C3B11923   2.134   7.613   6.633 -0.2411  0.1219 -0.2083
  786POPS   C4B11924   2.402   7.636   6.945  0.1123  0.0706 -0.1199
  787POPS   CNO11925  11.098   4.081   4.988  0.0856  0.0540 -0.2550
  787POPS   PO411926  11.370   3.883   5.286  0.1262  0.2220 -0.2459
  787POPS   GL111927  11.379   3.654   5.597 -0.3201  0.0943  0.1415
  787POPS   GL211928  11.582   3.984   5.804  0.1614 -0.3009  0.2146
  787POPS   C1A11929  11.283   3.318   5.844 -0.0854  0.1684 -0.1529
  787POPS   D2A11930  11.266   2.893   6.021 -0.0312  0.1802 -0.0785
  787POPS   C3A11931  10.866   2.627   6.140  0.0125 -0.1737 -0.0112
  787POPS   C4A11932  10.545   2.501   6.396 -0.0377  0.0439 -0.3382
  787POPS   C1B11933  11.308   3.869   6.184  0.0324  0.0012 -0.1186
  787POPS   C2B11934  11.426   3.354   6.369 -0.1949  0.0209 -0.0736
  787POPS   C3B11935  11.730   3.038   6.323  0.0417 -0.0797  0.2157
  787POPS   C4B11936  11.758   2.662   6.534  0.1383 -0.1726 -0.4833
  788POPS   CNO11937  14.392  15.895   4.521  0.2807 -0.0785 -0.1638
  788POPS   PO411938  14.566  16.260   4.745 -0.1075  0.1122 -0.2752
  788POPS   GL111939  14.622  16.188   5.153  0.2198 -0.1024 -0.1746
  788POPS   GL211940  14.367  16.388   5.282 -0.4699  0.0745  0.2186
  788POPS   C1A11941  14.530  15.881   5.576  0.2146  0.0872 -0.3535
  788POPS   D2A11942  14.501  15.791   6.070 -0.0866 -0.0228 -0.0410
  788POPS   C3A11943  14.232  15.977   6.442  0.0084 -0.0665 -0.2248
  788POPS   C4A11944  14.013  15.789   6.797 -0.5725 -0.1337 -0.2365
  788POPS   C1B11945  14.151  16.331   5.637 -0.2811  0.0710 -0.1265
  788POPS   C2B11946  14.390  16.264   5.998 -0.2012 -0.1037 -0.2197
  788POPS   C3B11947  14.591  16.469   6.458 -0.1377  0.0704  0.1174
  788POPS   C4B11948  14.723  16.866   6.822  0.1514 -0.1869 -0.0309
  789POPS   CNO11949  16.587   7.387   5.320  0.0139 -0.2478  0.1484
  789POPS   PO411950  16.151   7.271   5.330  0.1424 -0.0605 -0.2130
  789POPS   GL111951  16.322   7.304   5.706 -0.0294  0.1138  0.1897
  789POPS   GL211952  16.717   7.227   5.776 -0.0469  0.0449 -0.3700
  789POPS   C1A11953  16.487   7.562   6.037 -0.2128  0.1840 -0.1890
  789POPS   D2A11954  16.697   7.805   6.230  0.0524  0.1710 -0.1085
  789POPS   C3A11955  16.416   7.917   6.613 -0.1057  0.0631 -0.1994
  789POPS   C4A11956  16.195   8.037   6.934  0.2534 -0.4016  0.1724
  789POPS   C1B11957  16.653   7.091   6.199  0.1879  0.3401  0.0355
  789POPS   C2B11958  16.575   6.847   6.522 -0.1274  0.1069  0.3128
  789POPS   C3B11959  16.342   6.624   6.828 -0.3516  0.3569  0.0421
  789POPS   C4B11960  16.567   6.265   7.094 -0.3325  0.1217 -0.0234
  790POPS   CNO11961  18.731  12.877   4.883 -0.0194  0.0143 -0.2162
  790POPS   PO411962  18.613  12.722   5.221  0.2519  0.3153 -0.3721
  790POPS   GL111963  18.620  12.718   5.610 -0.1618 -0.3496  0.2729
  790POPS   GL211964  18.722  13.108   5.713 -0.1961  0.0762  0.1573
  790POPS   C1A11965  18.736  12.254   5.829 -0.1037 -0.3352 -0.2781
  790POPS   D2A11966  18.921  12.116   6.187  0.0512 -0.4646  0.1469
  790POPS   C3A11967  19.342  12.163   6.120 -0.3516 -0.3186  0.1211
  790POPS   C4A11968  19.669  12.494   6.132 -0.0246 -0.0002 -0.1120
  790POPS   C1B11969  19.125  13.038   5.865  0.0914  0.2586  0.0040
  790POPS   C2B11970  19.317  12.845   6.127  0.0083  0.4790 -0.3031
  790POPS   C3B11971  19.563  12.828   6.480  0.1972  0.2719  0.0344
  790POPS   C4B11972  19.777  12.456   6.624  0.4393 -0.2020 -0.0204
  791POPS   CNO11973   0.918  13.229   5.281  0.1412 -0.0353  0.1020
  791POPS   PO411974   1.108  13.508   5.015  0.2270  0.1087 -0.1060
  791POPS   GL111975   1.297  13.529   5.462 -0.0094  0.0039 -0.0323
  791POPS   GL211976   1.046  13.542   5.703 -0.1220 -0.1091  0.3098
  791POPS   C1A11977   1.632  13.541   5.811  0.2308  0.0637 -0.0955
  791POPS   D2A11978   1.999  13.248   6.108  0.5148  0.0953  0.2542
  791POPS   C3A11979   1.985  12.772   6.084 -0.2097  0.1105  0.3338
  791POPS   C4A11980   1.708  12.629   6.003 -0.2485  0.1898 -0.1998
  791POPS   C1B11981   1.215  13.169   5.822 -0.2600  0.0754  0.1092
  791POPS   C2B11982   1.484  13.034   6.039 -0.0115 -0.0648 -0.0871
  791POPS   C3B11983   1.687  13.009   6.493  0.3538 -0.0877 -0.0596
  791POPS   C4B11984   2.105  12.995   6.624  0.1393  0.5654 -0.1564
  792POPS   CNO11985  14.198   6.045   5.223  0.1338  0.0432  0.1794
  792POPS   PO411986  14.521   6.331   5.080  0.0772  0.1183  0.1476
  792POPS   GL111987  14.375   6.523   5.482  0.2011 -0.1365  0.2548
  792POPS   GL211988  14.382   6.807   5.387 -0.1004  0.3289  0.0897
  792POPS   C1A11989  14.344   6.556   5.954  0.1504 -0.0524  0.1133
  792POPS   D2A11990  14.353   6.482   6.329 -0.2893  0.1282 -0.3514
  792POPS   C3A11991  14.536   6.222   6.526 -0.0622 -0.0256 -0.0137
  792POPS   C4A11992  14.877   6.277   6.732  0.0582 -0.1797 -0.1270
  792POPS   C1B11993  14.571   6.994   5.754 -0.1007  0.2684 -0.0557
  792POPS   C2B11994  14.866   7.170   6.026 -0.0267 -0.3754 -0.1058
  792POPS   C3B11995  15.090   7.560   6.186  0.2870  0.1658  0.3792
  792POPS   C4B11996  15.425   7.590   6.414 -0.0141 -0.1821  0.0332
  793POPS   CNO11997   3.587  11.500   5.154 -0.2032 -0.0824  0.0453
  793POPS   PO411998   4.052  11.437   4.982 -0.2923  0.1458 -0.3070
  793POPS   GL111999   4.141  11.200   5.418  0.0285 -0.2223 -0.2055
  793POPS   GL212000   4.289  10.898   5.491 -0.3931 -0.0319  0.0159
  793POPS   C1A12001   3.867  11.184   5.778  0.0296 -0.2767 -0.0297
  793POPS   D2A12002   3.866  11.179   6.211 -0.0655  0.2382  0.1752
  793POPS   C3A12003   4.050  11.418   6.502 -0.1654  0.1368  0.0082
  793POPS   C4A12004   4.008  11.752   6.798  0.0013 -0.1898  0.3796
  793POPS   C1B12005   4.039  10.701   5.786  0.2456 -0.0122 -0.3689
  793POPS   C2B12006   3.853  10.637   6.096  0.2677  0.2192  0.0975
  793POPS   C3B12007   3.754  10.732   6.570  0.0400  0.0656 -0.0547
  793POPS   C4B12008   3.876  11.041   6.822 -0.3062 -0.1473 -0.1275
  794POPS   CNO12009  13.030   7.313   4.410 -0.1210 -0.3111  0.4107
  794POPS   PO412010  13.052   7.258   4.792 -0.2744  0.1037  0.0540
  794POPS   GL112011  12.781   7.297   5.265 -0.2942 -0.0787 -0.0118
  794POPS   GL212012  12.753   6.976   5.530  0.0824  0.0791  0.2972
  794POPS   C1A12013  13.034   7.280   5.706 -0.2740 -0.1370 -0.3306
  794POPS   D2A12014  13.185   7.339   6.063 -0.1216 -0.1004 -0.0147
  794POPS   C3A12015  13.266   7.750   6.301 -0.1995  0.0325  0.1836
  794POPS   C4A12016  13.089   7.888   5.954  0.1863 -0.0573 -0.2506
  794POPS   C1B12017  13.070   6.787   5.864 -0.0082  0.2712  0.1535
  794POPS   C2B12018  13.196   6.903   6.329 -0.0973 -0.0536 -0.0657
  794POPS   C3B12019  13.543   6.861   6.624 -0.0612  0.0994 -0.0388
  794POPS   C4B12020  13.968   7.031   6.549  0.0030 -0.0013  0.0401
  795POPS   CNO12021  12.736   7.651   4.912  0.3180  0.0201  0.1613
  795POPS   PO412022  12.551   7.820   5.205  0.2379  0.1719 -0.0381
  795POPS   GL112023  12.497   7.605   5.551  0.1703  0.3050 -0.0750
  795POPS   GL212024  12.247   7.373   5.544 -0.0831 -0.1897 -0.1193
  795POPS   C1A12025  12.592   7.262   5.877  0.0975 -0.4820  0.0432
  795POPS   D2A12026  12.705   6.959   6.160 -0.1141 -0.1381  0.0812
  795POPS   C3A12027  12.765   7.160   6.537 -0.3650  0.0479 -0.4656
  795POPS   C4A12028  13.210   7.241   6.648 -0.2105 -0.2567 -0.0992
  795POPS   C1B12029  12.155   7.486   5.906  0.4071  0.3101 -0.1637
  795POPS   C2B12030  12.134   7.911   6.333 -0.0703  0.0082  0.0040
  795POPS   C3B12031  12.038   7.865   6.867 -0.2042 -0.0772  0.1721
  795POPS   C4B12032  11.680   7.855   7.206  0.0136 -0.1155  0.1933
  796POPS   CNO12033  15.836   6.252   5.128 -0.2150 -0.1925  0.3216
  796POPS   PO412034  16.181   6.363   5.195 -0.1158 -0.2883  0.0935
  796POPS   GL112035  15.924   6.565   5.614 -0.1680 -0.1484  0.1770
  796POPS   GL212036  16.002   6.380   5.769  0.3166 -0.2004 -0.2983
  796POPS   C1A12037  15.673   6.695   6.069  0.0663  0.3706  0.0935
  796POPS   D2A12038  15.458   6.513   6.369  0.2474  0.1179 -0.1913
  796POPS   C3A12039  15.227   6.088   6.358 -0.1418 -0.1132 -0.1253
  796POPS   C4A12040  14.941   5.825   6.353 -0.0455  0.2688  0.1563
  796POPS   C1B12041  16.066   6.329   6.189  0.4006  0.1012  0.1726
  796POPS   C2B12042  15.889   6.485   6.610  0.0442 -0.2063  0.3093
  796POPS   C3B12043  15.831   6.726   7.031 -0.0169 -0.0743  0.0266
  796POPS   C4B12044  15.783   6.885   7.496  0.4811 -0.1197 -0.2281
  797POPS   CNO12045  11.100   6.421   5.154 -0.3567 -0.3277  0.0263
  797POPS   PO412046  11.105   6.898   5.262 -0.0951  0.2649 -0.3314
  797POPS   GL112047  10.975   6.707   5.692 -0.1149 -0.2994 -0.0009
  797POPS   GL212048  11.328   6.679   5.742 -0.2084  0.2081  0.2871
  797POPS   C1A12049  10.948   6.591   6.168 -0.2586 -0.1911 -0.4156
  797POPS   D2A12050  10.955   6.556   6.637  0.1593  0.0315 -0.0220
  797POPS   C3A12051  10.948   6.986   6.796  0.2908 -0.2003 -0.0337
  797POPS   C4A12052  11.050   7.344   7.128 -0.0372 -0.0914  0.0104
  797POPS   C1B12053  11.447   6.694   6.165 -0.1785  0.0790 -0.1076
  797POPS   C2B12054  11.431   6.784   6.596 -0.2392  0.2096 -0.2114
  797POPS   C3B12055  11.391   6.928   6.984  0.2349 -0.0093  0.3598
  797POPS   C4B12056  11.489   7.107   7.285  0.2155 -0.1689  0.2536
  798POPS   CNO12057   5.502  11.281   5.178 -0.0914 -0.0085  0.0474
  798POPS   PO412058   5.076  11.327   5.332 -0.0611 -0.0370  0.0479
  798POPS   GL112059   4.927  11.409   5.625  0.0030 -0.2684  0.2339
  798POPS   GL212060   4.687  11.102   5.598  0.2449 -0.1356  0.0361
  798POPS   C1A12061   4.793  11.575   5.990  0.1348  0.1781  0.1491
  798POPS   D2A12062   4.381  11.649   6.245 -0.0225 -0.0094 -0.1668
  798POPS   C3A12063   3.960  11.750   6.064  0.0258 -0.0220 -0.3883
  798POPS   C4A12064   3.634  11.741   5.678  0.1368  0.0429 -0.1757
  798POPS   C1B12065   4.762  10.806   5.897  0.2058 -0.1816  0.1145
  798POPS   C2B12066   4.899  10.658   6.298  0.1627  0.1422  0.0111
  798POPS   C3B12067   4.762  10.537   6.678 -0.1900 -0.0207 -0.3006
  798POPS   C4B12068   5.097  10.650   7.042  0.2207 -0.1189 -0.0567
  799POPS   CNO12069  19.218   3.859   5.861  0.0935 -0.2254  0.1447
  799POPS   PO412070  18.931   4.064   6.058  0.0085  0.0262  0.1454
  799POPS   GL112071  18.843   4.427   6.295  0.0353 -0.1675 -0.0808
  799POPS   GL212072  18.543   4.424   6.240 -0.0367 -0.1563 -0.3709
  799POPS   C1A12073  18.951   4.626   6.734 -0.0382  0.0592  0.2148
  799POPS   D2A12074  19.134   4.492   7.066 -0.2662  0.3649 -0.0936
  799POPS   C3A12075  18.908   4.439   7.409 -0.3982  0.1924 -0.1379
  799POPS   C4A12076  19.027   4.664   7.885 -0.0839 -0.0219 -0.1621
  799POPS   C1B12077  18.414   4.532   6.652 -0.1936 -0.0226 -0.0661
  799POPS   C2B12078  18.574   4.706   7.139 -0.0953 -0.4369  0.1279
  799POPS   C3B12079  18.456   4.467   7.545 -0.2739  0.1442  0.2004
  799POPS   C4B12080  18.608   4.470   7.978 -0.0833  0.3070 -0.2493
  800POPS   CNO12081   0.666   0.543   5.405 -0.0549 -0.1296 -0.1000
  800POPS   PO412082   0.507   0.186   5.417 -0.1833 -0.0931  0.0465
  800POPS   GL112083   0.530   0.336   5.858  0.3091 -0.1110 -0.0283
  800POPS   GL212084   0.716   0.022   5.955  0.3004  0.2151 -0.1226
  800POPS   C1A12085   0.338   0.232   6.272 -0.2389  0.0443  0.1143
  800POPS   D2A12086   0.225   0.592   6.584 -0.3349  0.4032 -0.0253
  800POPS   C3A12087  -0.230   0.715   6.487  0.0136  0.0182 -0.2032
  800POPS   C4A12088  -0.616   0.709   6.681 -0.1112  0.0609  0.1117
  800POPS   C1B12089   0.963  -0.101   6.386 -0.1869  0.1996  0.5131
  800POPS   C2B12090   0.876   0.002   6.743  0.0684  0.0769 -0.0139
  800POPS   C3B12091   0.848   0.167   7.102 -0.0620 -0.1666  0.1713
  800POPS   C4B12092   0.710   0.249   7.502  0.2786  0.0289 -0.2115
  801POPS   CNO12093   1.898   6.303   5.398  0.0933  0.4188  0.1028
  801POPS   PO412094   2.105   6.278   5.761  0.2245 -0.3754 -0.1108
  801POPS   GL112095   2.023   6.542   6.120  0.4033  0.2142 -0.2292
  801POPS   GL212096   2.325   6.457   6.293  0.0928  0.0729 -0.1832
  801POPS   C1A12097   1.834   6.432   6.497  0.1557 -0.0041 -0.2235
  801POPS   D2A12098   1.520   6.398   6.774  0.0146  0.1407  0.0488
  801POPS   C3A12099   1.353   6.470   7.115  0.3258  0.1933  0.1401
  801POPS   C4A12100   1.072   6.489   7.360 -0.3500  0.0885  0.1651
  801POPS   C1B12101   2.411   6.617   6.718 -0.2275  0.0345 -0.3214
  801POPS   C2B12102   2.295   6.624   7.229  0.1932 -0.2134  0.1226
  801POPS   C3B12103   2.578   6.480   7.610 -0.1255 -0.0880 -0.0630
  801POPS   C4B12104   2.734   6.565   8.016 -0.0314 -0.3239  0.0140
  802POPS   CNO12105   5.332  18.051   4.951 -0.0974 -0.1670  0.1572
  802POPS   PO412106   4.988  18.170   5.273 -0.2368 -0.1660 -0.1348
  802POPS   GL112107   4.873  18.273   5.595 -0.0122 -0.0210 -0.0556
  802POPS   GL212108   4.755  18.540   5.561  0.0630 -0.0712 -0.0953
  802POPS   C1A12109   4.659  18.214   6.012 -0.1049  0.2509  0.0952
  802POPS   D2A12110   4.587  18.104   6.394  0.2875 -0.3662 -0.1504
  802POPS   C3A12111   4.271  18.309   6.701 -0.3051  0.0100  0.1343
  802POPS   C4A12112   4.198  18.586   7.017 -0.2507  0.2650  0.1036
  802POPS   C1B12113   4.729  18.846   5.913  0.1380  0.0547 -0.0622
  802POPS   C2B12114   4.689  19.268   6.122  0.1220  0.3002  0.0537
  802POPS   C3B12115   4.729  19.679   6.267 -0.0436  0.2325 -0.2331
  802POPS   C4B12116   4.812  20.139   6.279  0.0139 -0.2709 -0.2110
  803POPS   CNO12117  10.343   0.238   5.002 -0.1548  0.0327  0.2301
  803POPS   PO412118  10.414   0.685   4.976  0.3484  0.2820  0.0438
  803POPS   GL112119  10.386   0.658   5.397  0.1169  0.0869 -0.4845
  803POPS   GL212120  10.126   0.741   5.551  0.0694 -0.1081 -0.0705
  803POPS   C1A12121  10.558   0.561   5.777  0.2106 -0.0675  0.1311
  803POPS   D2A12122  10.599   0.558   6.206  0.1983 -0.1178  0.1950
  803POPS   C3A12123  10.485   0.345   6.589 -0.0514 -0.3081 -0.0579
  803POPS   C4A12124  10.127   0.278   6.949  0.0164 -0.0742  0.0714
  803POPS   C1B12125  10.064   0.643   5.922 -0.2276  0.1142  0.1000
  803POPS   C2B12126  10.119   0.602   6.327  0.2504  0.0952  0.0246
  803POPS   C3B12127   9.837   0.675   6.747  0.0272  0.0180 -0.0142
  803POPS   C4B12128   9.651   0.545   7.194  0.0572 -0.0656 -0.3316
  804POPS   CNO12129  15.859  18.851   5.098 -0.0268  0.1576 -0.0117
  804POPS   PO412130  16.261  19.141   5.154  0.1078  0.1536  0.1632
  804POPS   GL112131  16.414  18.915   5.455  0.1373 -0.2544 -0.2547
  804POPS   GL212132  16.314  19.136   5.696 -0.1781 -0.1895 -0.1282
  804POPS   C1A12133  16.068  18.719   5.720  0.1860 -0.0507  0.1987
  804POPS   D2A12134  15.855  18.518   5.901 -0.2304  0.3963 -0.1720
  804POPS   C3A12135  16.067  18.398   6.194 -0.2191 -0.1006 -0.0081
  804POPS   C4A12136  16.429  18.266   6.217 -0.2023  0.1257 -0.1859
  804POPS   C1B12137  16.571  19.281   6.004  0.2949  0.2378 -0.0923
  804POPS   C2B12138  16.645  19.078   6.443 -0.1833 -0.1784  0.0742
  804POPS   C3B12139  16.377  18.883   6.853  0.2831  0.0221 -0.3518
  804POPS   C4B12140  16.305  18.482   6.727  0.0465 -0.0186 -0.0536
  805POPS   CNO12141  13.991   0.817   5.349 -0.0562  0.0551  0.1335
  805POPS   PO412142  14.440   0.680   5.342  0.2827 -0.0391  0.1261
  805POPS   GL112143  14.567   0.617   5.695  0.0587  0.1364 -0.3159
  805POPS   GL212144  14.337   0.393   5.841  0.3265 -0.4156  0.2829
  805POPS   C1A12145  14.876   0.489   5.982  0.0242 -0.2884 -0.2958
  805POPS   D2A12146  15.316   0.554   5.801 -0.2691 -0.1676 -0.0454
  805POPS   C3A12147  15.539   0.920   5.964  0.1096  0.1689 -0.0844
  805POPS   C4A12148  15.885   1.135   6.011 -0.3555  0.1024 -0.6400
  805POPS   C1B12149  14.369   0.429   6.252 -0.0558  0.0117  0.0086
  805POPS   C2B12150  14.713   0.537   6.446 -0.3280 -0.0542  0.1288
  805POPS   C3B12151  14.908   0.759   6.855 -0.0339 -0.1000  0.1989
  805POPS   C4B12152  15.048   0.952   7.233 -0.0362  0.1502 -0.1399
  806YOPS   CNO12153   3.871   4.062   5.548 -0.2325 -0.0846  0.1309
  806YOPS   PO412154   3.591   3.733   5.660  0.3064 -0.0751  0.0306
  806YOPS   GL112155   3.540   3.988   5.979 -0.0590 -0.0963  0.1037
  806YOPS   GL212156   3.371   3.960   6.258  0.1149  0.1949 -0.0439
  806YOPS   C1A12157   3.894   4.115   6.291  0.1621  0.0819 -0.3207
  806YOPS   D2A12158   4.260   3.739   6.257 -0.0756  0.1219  0.2116
  806YOPS   C3A12159   4.364   3.747   6.699  0.1530 -0.1067  0.0658
  806YOPS   C4A12160   4.707   3.666   6.991  0.2519  0.1554 -0.0912
  806YOPS   C1B12161   3.594   4.020   6.793 -0.2046 -0.2815 -0.0624
  806YOPS   C2B12162   3.972   3.939   6.981  0.1181  0.1728  0.1135
  806YOPS   D3B12163   4.311   3.824   7.282  0.2915  0.3945  0.0540
  806YOPS   C4B12164   4.232   3.808   7.684  0.2384  0.1759 -0.1173
  807YOPS   CNO12165   9.228  17.625   5.303 -0.1057 -0.0744 -0.1645
  807YOPS   PO412166   8.930  17.833   5.161  0.1046 -0.1890  0.1661
  807YOPS   GL112167   8.814  18.026   5.599 -0.2903 -0.0068  0.3087
  807YOPS   GL212168   8.518  17.876   5.746 -0.1018 -0.3209  0.0607
  807YOPS   C1A12169   8.826  18.238   5.990  0.5698  0.0564 -0.2933
  807YOPS   D2A12170   8.887  18.159   6.441  0.3188  0.0083  0.4105
  807YOPS   C3A12171   9.120  18.316   6.881  0.0903  0.0315  0.2510
  807YOPS   C4A12172   9.375  18.581   7.008  0.0476  0.2237 -0.1042
  807YOPS   C1B12173   8.503  17.835   6.070 -0.0246  0.2512 -0.0496
  807YOPS   C2B12174   8.304  17.723   6.465  0.0385  0.1819  0.3289
  807YOPS   D3B12175   8.267  17.700   6.827  0.0929  0.2730  0.1322
  807YOPS   C4B12176   8.316  17.356   7.108 -0.1356  0.1699  0.1976
  808YOPS   CNO12177  17.596   6.643   5.335  0.3045 -0.1358  0.0123
  808YOPS   PO412178  17.674   7.140   5.438  0.0536  0.6402  0.0492
  808YOPS   GL112179  17.556   7.192   5.823 -0.0644  0.0084  0.0365
  808YOPS   GL212180  17.226   7.140   5.910 -0.1118  0.0369 -0.0815
  808YOPS   C1A12181  17.825   7.041   6.140  0.0547 -0.1634 -0.0562
  808YOPS   D2A12182  17.868   6.899   6.573  0.2022  0.2230 -0.3399
  808YOPS   C3A12183  17.800   6.683   7.007 -0.0955 -0.2395  0.3976
  808YOPS   C4A12184  17.947   6.582   7.439 -0.0337 -0.0872  0.1297
  808YOPS   C1B12185  17.399   7.121   6.341 -0.0714 -0.3527 -0.0816
  808YOPS   C2B12186  17.398   6.951   6.718 -0.1367  0.2608 -0.3573
  808YOPS   D3B12187  17.273   7.022   7.149 -0.1627 -0.1570  0.1491
  808YOPS   C4B12188  17.271   7.378   7.443 -0.2936  0.2845 -0.0281
  809YOPS   CNO12189  16.117  17.494   4.702  0.0378  0.4694  0.5449
  809YOPS   PO412190  15.672  17.658   4.891  0.2523 -0.1265 -0.3850
  809YOPS   GL112191  15.425  17.495   5.292  0.0553 -0.0008 -0.2045
  809YOPS   GL212192  15.622  17.316   5.341  0.0819 -0.0215 -0.0584
  809YOPS   C1A12193  15.345  17.552   5.769  0.0208 -0.2390  0.1550
  809YOPS   D2A12194  15.036  17.284   6.094 -0.0323 -0.1276  0.1178
  809YOPS   C3A12195  14.809  17.281   6.548  0.1178 -0.0987  0.1785
  809YOPS   C4A12196  14.561  17.537   6.705  0.2816 -0.0908  0.0175
  809YOPS   C1B12197  15.470  17.094   5.702 -0.3591  0.0082  0.2574
  809YOPS   C2B12198  15.555  17.150   6.141 -0.2038 -0.0546 -0.2102
  809YOPS   D3B12199  15.792  16.978   6.537  0.0971  0.0015 -0.0972
  809YOPS   C4B12200  16.159  16.735   6.484 -0.5997 -0.0052  0.0077
  810YOPS   CNO12201   2.598   4.181   5.484 -0.2048  0.0206 -0.0648
  810YOPS   PO412202   2.856   3.770   5.455  0.4187 -0.2088  0.0040
  810YOPS   GL112203   2.753   3.906   5.947 -0.0216 -0.1820  0.0804
  810YOPS   GL212204   2.846   4.220   6.096 -0.1171 -0.0071  0.0258
  810YOPS   C1A12205   2.924   3.774   6.352  0.1481 -0.3459  0.0354
  810YOPS   D2A12206   3.081   3.984   6.717  0.2059 -0.1490  0.0558
  810YOPS   C3A12207   3.153   4.282   6.943 -0.1705 -0.3125 -0.0277
  810YOPS   C4A12208   3.403   4.693   7.073  0.0202  0.4773 -0.0128
  810YOPS   C1B12209   2.921   4.410   6.439  0.2856 -0.1173  0.3223
  810YOPS   C2B12210   2.650   4.334   6.839  0.0233 -0.0984  0.0257
  810YOPS   D3B12211   2.778   4.464   7.214  0.2760 -0.1070 -0.0846
  810YOPS   C4B12212   2.951   4.135   7.463  0.1586 -0.3970 -0.0774
  811YOPS   CNO12213   1.753  16.474   5.444 -0.1199 -0.1296 -0.1354
  811YOPS   PO412214   2.050  16.750   5.397  0.1898  0.1738 -0.0321
  811YOPS   GL112215   1.952  16.734   5.875 -0.4012  0.3789  0.0069
  811YOPS   GL212216   1.569  16.620   5.980  0.0814  0.1682 -0.1410
  811YOPS   C1A12217   2.103  17.034   6.364 -0.0779 -0.3023 -0.2581
  811YOPS   D2A12218   2.069  17.209   6.798  0.0694 -0.2774  0.1331
  811YOPS   C3A12219   1.931  17.519   7.039  0.4403  0.0666 -0.4240
  811YOPS   C4A12220   1.996  17.454   7.483 -0.3892  0.0501 -0.2539
  811YOPS   C1B12221   1.879  16.425   6.358  0.1129 -0.5068 -0.1352
  811YOPS   C2B12222   2.122  16.287   6.736  0.0331  0.1119  0.2292
  811YOPS   D3B12223   2.226  15.897   6.985  0.1342 -0.1214  0.0195
  811YOPS   C4B12224   1.992  15.664   7.260 -0.0023 -0.1177  0.1263
  812YOPS   CNO12225   6.669   6.567   5.149 -0.0206 -0.2936  0.0806
  812YOPS   PO412226   6.391   6.684   5.497 -0.0965 -0.5107  0.1428
  812YOPS   GL112227   6.444   6.771   5.960 -0.5592  0.0153  0.3050
  812YOPS   GL212228   6.673   6.955   5.989  0.2841  0.1924  0.0387
  812YOPS   C1A12229   6.444   6.917   6.401  0.2327  0.1127  0.0990
  812YOPS   D2A12230   6.499   6.747   6.833  0.0740  0.0089 -0.1875
  812YOPS   C3A12231   6.585   6.768   7.300  0.0609  0.0047  0.0534
  812YOPS   C4A12232   6.182   6.677   7.518 -0.0864 -0.1409  0.0847
  812YOPS   C1B12233   6.925   7.117   6.339  0.0330  0.2235  0.0233
  812YOPS   C2B12234   7.040   7.290   6.723  0.1818 -0.0391 -0.1342
  812YOPS   D3B12235   7.004   7.072   7.181 -0.0293  0.2967  0.1535
  812YOPS   C4B12236   6.761   7.190   7.588 -0.4892  0.0608 -0.0004
  813YOPS   CNO12237  19.290  11.159   5.218 -0.1118 -0.1199  0.6088
  813YOPS   PO412238  19.484  10.800   5.381 -0.0206  0.4186  0.6995
  813YOPS   GL112239  19.609  10.587   5.763  0.0052  0.1222  0.1658
  813YOPS   GL212240  19.674  10.273   5.763  0.2487  0.1753 -0.0602
  813YOPS   C1A12241  19.743  10.594   6.159  0.1302  0.2372 -0.1867
  813YOPS   D2A12242  19.989  10.444   6.442 -0.1056  0.0845  0.1391
  813YOPS   C3A12243  20.200  10.619   6.723  0.1252 -0.1256  0.0196
  813YOPS   C4A12244  20.017  10.756   7.168 -0.2310 -0.5776 -0.0258
  813YOPS   C1B12245  19.727  10.090   6.172 -0.3020  0.3739 -0.0932
  813YOPS   C2B12246  19.946   9.936   6.431 -0.1819  0.2301 -0.0904
  813YOPS   D3B12247  20.193   9.641   6.704 -0.1348  0.1964 -0.1159
  813YOPS   C4B12248  20.546   9.772   6.785 -0.0618  0.1267 -0.1206
  814YOPS   CNO12249  11.133  16.651   4.955 -0.0795 -0.1885 -0.0724
  814YOPS   PO412250  11.016  16.230   4.745 -0.0152  0.0052  0.1174
  814YOPS   GL112251  11.015  16.026   5.137  0.3618  0.1963  0.2257
  814YOPS   GL212252  11.175  16.274   5.331  0.2808  0.0259  0.3150
  814YOPS   C1A12253  10.795  16.061   5.540  0.0393 -0.0515 -0.1304
  814YOPS   D2A12254  10.749  15.770   5.838  0.1324 -0.0474  0.1223
  814YOPS   C3A12255  10.568  15.485   6.094  0.1218  0.1312  0.3842
  814YOPS   C4A12256  10.231  15.345   6.228  0.0798  0.3062  0.1233
  814YOPS   C1B12257  11.414  16.410   5.659  0.3362 -0.1090  0.1005
  814YOPS   C2B12258  11.504  16.829   5.844 -0.2254 -0.1262  0.0774
  814YOPS   D3B12259  11.472  17.173   6.224  0.0602 -0.0074  0.2259
  814YOPS   C4B12260  11.680  17.068   6.598 -0.0932 -0.3029  0.3418
  815YOPS   CNO12261   0.963  18.400   5.814  0.0757 -0.0281  0.2093
  815YOPS   PO412262   0.638  18.599   5.555 -0.1695  0.3251  0.0727
  815YOPS   GL112263   0.535  18.862   5.834  0.1808  0.1477  0.0451
  815YOPS   GL212264   0.506  18.577   6.103 -0.2590  0.1618  0.0016
  815YOPS   C1A12265   0.111  18.781   6.161  0.0901 -0.0649 -0.0395
  815YOPS   D2A12266   0.046  18.651   6.535  0.0447 -0.1847 -0.2648
  815YOPS   C3A12267   0.283  18.814   6.798  0.1530 -0.1406 -0.1156
  815YOPS   C4A12268   0.422  19.267   6.846  0.3368  0.1161  0.0975
  815YOPS   C1B12269   0.502  18.308   6.427  0.0930 -0.0814  0.1425
  815YOPS   C2B12270   0.570  18.398   6.927 -0.0950 -0.0160 -0.0559
  815YOPS   D3B12271   0.786  18.518   7.263 -0.4297  0.2020 -0.1220
  815YOPS   C4B12272   0.709  18.295   7.711 -0.0863  0.1943  0.0954
  816YOPS   CNO12273  17.664   9.137   5.453  0.0359 -0.5477  0.2747
  816YOPS   PO412274  17.973   8.826   5.389  0.0273 -0.1693 -0.1653
  816YOPS   GL112275  17.917   8.690   5.739 -0.0392  0.1739 -0.1087
  816YOPS   GL212276  18.025   9.012   5.840 -0.0483 -0.2989 -0.1082
  816YOPS   C1A12277  18.008   8.372   6.043  0.1452  0.4315  0.1022
  816YOPS   D2A12278  18.092   8.317   6.431  0.0473 -0.1012  0.0619
  816YOPS   C3A12279  18.145   8.219   6.866  0.2318  0.0051 -0.0760
  816YOPS   C4A12280  17.853   8.541   7.105  0.1037  0.2788 -0.0852
  816YOPS   C1B12281  18.000   9.243   6.205  0.4499  0.4866  0.0258
  816YOPS   C2B12282  17.979   9.318   6.655 -0.1034 -0.3157 -0.0141
  816YOPS   D3B12283  18.366   9.380   7.037  0.2564 -0.4755  0.2664
  816YOPS   C4B12284  18.259   9.264   7.478 -0.1327  0.3871 -0.0251
  817YOPS   CNO12285  11.699  12.371   4.944 -0.1299  0.0132  0.2689
  817YOPS   PO412286  11.529  12.732   5.150 -0.2027  0.2514  0.1095
  817YOPS   GL112287  11.833  12.752   5.481  0.1413  0.3310 -0.0204
  817YOPS   GL212288  11.923  12.495   5.519 -0.0604  0.0450 -0.3924
  817YOPS   C1A12289  11.968  13.164   5.717 -0.2237  0.2846  0.1201
  817YOPS   D2A12290  11.854  13.594   5.855  0.1457 -0.0277 -0.0874
  817YOPS   C3A12291  12.087  13.860   5.691 -0.2888 -0.1749 -0.0987
  817YOPS   C4A12292  12.279  14.076   6.008  0.1193  0.1529  0.0730
  817YOPS   C1B12293  12.023  12.272   5.973 -0.1460 -0.1954 -0.2325
  817YOPS   C2B12294  12.133  12.109   6.205 -0.0078  0.3896 -0.3779
  817YOPS   D3B12295  12.110  11.900   6.574 -0.0520  0.1617  0.5890
  817YOPS   C4B12296  12.572  11.656   6.590  0.0427 -0.0987  0.2077
  818YOPS   CNO12297   6.531  14.226   5.237 -0.1264  0.0437 -0.1530
  818YOPS   PO412298   6.787  14.623   5.223 -0.2534 -0.4374 -0.0293
  818YOPS   GL112299   6.897  14.797   5.593 -0.2410  0.4593  0.0807
  818YOPS   GL212300   6.983  15.034   5.576 -0.1147  0.2198 -0.0858
  818YOPS   C1A12301   7.011  14.568   5.973 -0.0484 -0.0067 -0.0065
  818YOPS   D2A12302   7.122  14.213   5.987  0.2804  0.0147 -0.1183
  818YOPS   C3A12303   7.216  13.946   6.325  0.0201  0.0551  0.0703
  818YOPS   C4A12304   7.424  14.143   6.748 -0.3080 -0.0079  0.0723
  818YOPS   C1B12305   7.298  14.992   5.932 -0.0655  0.0072 -0.0840
  818YOPS   C2B12306   7.699  15.131   6.069  0.0783 -0.1917 -0.2086
  818YOPS   D3B12307   7.907  15.302   6.380 -0.1088  0.0802 -0.0942
  818YOPS   C4B12308   8.160  15.620   6.356 -0.2009  0.1250 -0.3598
  819YOPS   CNO12309   7.886  14.367   5.083 -0.2129 -0.0365  0.1767
  819YOPS   PO412310   7.953  14.489   5.479 -0.0224  0.1986 -0.2846
  819YOPS   GL112311   8.223  14.350   5.859  0.0212 -0.1087 -0.0094
  819YOPS   GL212312   8.376  14.603   5.813 -0.1178 -0.0551 -0.2716
  819YOPS   C1A12313   8.136  14.276   6.251  0.1019  0.0467  0.3462
  819YOPS   D2A12314   8.132  14.279   6.736  0.0506  0.1446 -0.2627
  819YOPS   C3A12315   7.950  14.120   7.132 -0.0715 -0.3204 -0.0441
  819YOPS   C4A12316   7.541  13.856   7.158  0.2079 -0.2251 -0.2894
  819YOPS   C1B12317   8.223  14.800   6.155 -0.1590 -0.0526  0.0283
  819YOPS   C2B12318   8.298  14.714   6.495  0.0928  0.2520  0.0088
  819YOPS   D3B12319   8.506  14.894   6.848 -0.0295  0.1424  0.1605
  819YOPS   C4B12320   8.547  14.953   7.308 -0.0941 -0.1290 -0.1178
  820YOPS   CNO12321   3.362   9.137   5.094 -0.0563  0.3621  0.1815
  820YOPS   PO412322   3.029   8.955   5.343  0.1309 -0.1165  0.2145
  820YOPS   GL112323   2.902   8.896   5.699 -0.3182 -0.1765 -0.3046
  820YOPS   GL212324   2.586   9.111   5.775 -0.0995  0.1585  0.1202
  820YOPS   C1A12325   3.042   8.851   6.087  0.1076  0.0529  0.4445
  820YOPS   D2A12326   3.346   8.952   6.446 -0.1609 -0.4642  0.0032
  820YOPS   C3A12327   3.411   8.780   6.859  0.0136 -0.1226  0.4413
  820YOPS   C4A12328   3.061   8.518   7.070 -0.0701  0.3205 -0.0333
  820YOPS   C1B12329   2.195   9.211   6.023  0.0097  0.1731 -0.2396
  820YOPS   C2B12330   1.846   9.286   6.377  0.0228 -0.4690  0.0826
  820YOPS   D3B12331   1.959   9.315   6.884 -0.0970  0.0990  0.0756
  820YOPS   C4B12332   2.056   9.699   7.036 -0.0388 -0.1021 -0.0891
  821YOPS   CNO12333   1.032   3.560   6.423 -0.1051  0.1216  0.1526
  821YOPS   PO412334   1.078   3.879   6.094  0.2043  0.0219  0.0435
  821YOPS   GL112335   1.233   4.020   6.565  0.3568  0.1224 -0.0768
  821YOPS   GL212336   1.266   4.378   6.447 -0.0817 -0.0632  0.0968
  821YOPS   C1A12337   1.458   4.141   6.910  0.3033 -0.1540  0.5888
  821YOPS   D2A12338   1.697   4.264   7.206 -0.0553 -0.5326  0.0273
  821YOPS   C3A12339   1.950   4.233   7.629  0.0242  0.0563  0.1343
  821YOPS   C4A12340   2.207   4.286   8.018 -0.1177  0.0777 -0.0325
  821YOPS   C1B12341   0.980   4.379   6.839  0.0465  0.0485  0.0871
  821YOPS   C2B12342   1.016   4.403   7.342 -0.1624  0.2191  0.0405
  821YOPS   D3B12343   1.067   4.757   7.643  0.1872  0.1146  0.0191
  821YOPS   C4B12344   0.718   4.884   7.864  0.3588  0.0466 -0.1123
  822YOPS   CNO12345   8.807  11.784   4.573 -0.0894  0.0579  0.0639
  822YOPS   PO412346   8.683  12.110   4.879 -0.1895  0.2836 -0.0705
  822YOPS   GL112347   8.500  11.977   5.335  0.4653 -0.2843 -0.1741
  822YOPS   GL212348   8.158  11.943   5.438 -0.2779 -0.0112  0.1287
  822YOPS   C1A12349   8.695  11.729   5.691 -0.0373  0.1662 -0.0603
  822YOPS   D2A12350   8.703  11.280   5.927 -0.2118 -0.0071 -0.0248
  822YOPS   C3A12351   8.685  10.947   6.193  0.1533 -0.2075  0.2461
  822YOPS   C4A12352   8.965  10.803   6.507 -0.0930  0.3224  0.2587
  822YOPS   C1B12353   8.384  12.027   5.855  0.3384 -0.3348  0.1030
  822YOPS   C2B12354   8.505  11.859   6.263 -0.1330 -0.1301 -0.1386
  822YOPS   D3B12355   8.739  11.502   6.434 -0.4726  0.1856 -0.0223
  822YOPS   C4B12356   8.524  11.178   6.680 -0.1242 -0.0153 -0.3010
  823YOPS   CNO12357   6.314  14.804   4.939 -0.0512 -0.0587 -0.1788
  823YOPS   PO412358   5.962  14.675   5.263  0.2479 -0.2551 -0.3420
  823YOPS   GL112359   6.321  14.781   5.461  0.2015 -0.0437  0.1112
  823YOPS   GL212360   6.478  14.564   5.609 -0.2402 -0.1093 -0.1642
  823YOPS   C1A12361   6.434  15.038   5.807 -0.1837  0.3072  0.1398
  823YOPS   D2A12362   6.388  15.278   6.165 -0.4679  0.0519 -0.0289
  823YOPS   C3A12363   6.133  15.566   6.510 -0.2173  0.0581 -0.2202
  823YOPS   C4A12364   6.319  15.929   6.818  0.2125  0.2100  0.0726
  823YOPS   C1B12365   6.555  14.205   5.816  0.2623 -0.1342 -0.0660
  823YOPS   C2B12366   6.620  14.303   6.263 -0.2262 -0.5869 -0.1059
  823YOPS   D3B12367   6.976  14.355   6.430 -0.2178 -0.2403  0.0245
  823YOPS   C4B12368   7.172  14.592   6.778  0.0927 -0.1206  0.0373
  824YOPS   CNO12369  13.359   1.539   5.526 -0.0174 -0.1656 -0.0594
  824YOPS   PO412370  13.242   1.774   5.217  0.4568 -0.2198  0.0876
  824YOPS   GL112371  13.400   2.075   5.469 -0.0344  0.0738 -0.1224
  824YOPS   GL212372  13.201   2.016   5.766 -0.0655  0.3799  0.5839
  824YOPS   C1A12373  13.447   2.436   5.751 -0.0599 -0.2469 -0.1256
  824YOPS   D2A12374  13.124   2.811   5.900  0.2913 -0.0156  0.1170
  824YOPS   C3A12375  12.747   2.661   6.138 -0.1717 -0.0671  0.0143
  824YOPS   C4A12376  12.812   2.610   6.546  0.1554  0.0082 -0.2073
  824YOPS   C1B12377  13.074   2.183   6.148 -0.4028 -0.0797  0.0356
  824YOPS   C2B12378  12.986   2.148   6.494  0.1020  0.4188 -0.0009
  824YOPS   D3B12379  13.027   1.914   6.875  0.0869 -0.2957  0.2815
  824YOPS   C4B12380  12.663   1.773   6.826  0.3611  0.4130 -0.0510
  825YOPS   CNO12381   6.862  18.277   4.896 -0.2393 -0.0215 -0.2186
  825YOPS   PO412382   7.105  18.340   5.191 -0.0357  0.2837  0.1345
  825YOPS   GL112383   7.113  18.521   5.627  0.4715  0.0793 -0.1321
  825YOPS   GL212384   6.757  18.419   5.629 -0.1816  0.1694  0.2017
  825YOPS   C1A12385   7.020  18.505   6.059  0.0706  0.0048 -0.1201
  825YOPS   D2A12386   6.904  18.284   6.464  0.0652 -0.0653  0.2997
  825YOPS   C3A12387   6.801  18.011   6.821  0.3343 -0.1266 -0.0581
  825YOPS   C4A12388   7.062  17.724   7.015  0.0113  0.0661  0.2519
  825YOPS   C1B12389   6.704  18.159   5.998  0.1733  0.1553 -0.2828
  825YOPS   C2B12390   6.416  18.313   6.364 -0.0924  0.1956  0.0218
  825YOPS   D3B12391   6.137  18.577   6.707 -0.2385 -0.2374  0.0484
  825YOPS   C4B12392   6.018  18.194   6.761 -0.1102  0.0014 -0.1057
  826YOPS   CNO12393  13.910   5.098   5.033  0.2414  0.3398 -0.2736
  826YOPS   PO412394  13.951   5.281   5.444 -0.3793 -0.0080  0.0843
  826YOPS   GL112395  13.755   5.370   5.848  0.0835 -0.0869  0.0964
  826YOPS   GL212396  13.487   5.524   5.743  0.0924 -0.2439  0.1984
  826YOPS   C1A12397  13.796   5.493   6.193  0.0310  0.2011 -0.0432
  826YOPS   D2A12398  13.897   5.700   6.558 -0.2090 -0.1629 -0.1133
  826YOPS   C3A12399  13.649   5.751   6.915 -0.3026  0.1973 -0.2259
  826YOPS   C4A12400  13.376   5.371   7.173  0.3463  0.1143 -0.1309
  826YOPS   C1B12401  13.316   5.573   6.217 -0.1054  0.2113 -0.3603
  826YOPS   C2B12402  13.337   5.472   6.652 -0.1442 -0.2401  0.0599
  826YOPS   D3B12403  13.691   5.249   6.827  0.0941  0.2248  0.3252
  826YOPS   C4B12404  13.927   5.145   6.530  0.2014 -0.0702  0.4625
  827YOPS   CNO12405   5.052   4.892   5.801 -0.2850  0.0305 -0.1027
  827YOPS   PO412406   5.052   5.274   5.581 -0.0643  0.0993  0.1176
  827YOPS   GL112407   5.161   5.304   6.068  0.0149 -0.2734  0.3693
  827YOPS   GL212408   4.875   5.100   6.224  0.0455 -0.1028  0.3477
  827YOPS   C1A12409   5.147   5.702   6.304 -0.1594 -0.0381 -0.1648
  827YOPS   D2A12410   5.247   5.902   6.696  0.0042  0.2495  0.0814
  827YOPS   C3A12411   5.439   5.992   7.066  0.2275 -0.2256  0.0590
  827YOPS   C4A12412   5.879   6.081   7.204 -0.4138 -0.2732 -0.2113
  827YOPS   C1B12413   5.057   5.119   6.597 -0.2700 -0.2678  0.3512
  827YOPS   C2B12414   5.226   5.285   6.871 -0.1009 -0.1123 -0.0912
  827YOPS   D3B12415   5.084   5.360   7.272 -0.1171  0.0072 -0.2201
  827YOPS   C4B12416   5.327   5.741   7.467  0.1008 -0.1132  0.1430
  828YOPS   CNO12417  13.533  16.385   4.716  0.0184 -0.0307  0.1242
  828YOPS   PO412418  13.703  16.760   4.722  0.0781 -0.1500  0.4104
  828YOPS   GL112419  13.561  17.035   5.097 -0.2316  0.3530  0.1306
  828YOPS   GL212420  13.729  17.377   5.242  0.1734 -0.0873  0.3713
  828YOPS   C1A12421  13.374  16.954   5.391  0.4763 -0.0482 -0.2515
  828YOPS   D2A12422  13.267  16.703   5.758  0.3757 -0.1276 -0.1055
  828YOPS   C3A12423  13.478  16.586   6.149  0.0908 -0.1318  0.0798
  828YOPS   C4A12424  13.909  16.473   6.081 -0.1961  0.2894  0.0725
  828YOPS   C1B12425  13.640  17.480   5.669  0.0012 -0.0154 -0.0519
  828YOPS   C2B12426  13.681  17.641   6.071  0.0237  0.3550 -0.0726
  828YOPS   D3B12427  13.680  17.807   6.469  0.0291 -0.0525 -0.2288
  828YOPS   C4B12428  13.850  17.554   6.839  0.1964 -0.1190 -0.2089
  829YOPS   CNO12429   1.163   6.464   5.285  0.0501 -0.1644  0.2427
  829YOPS   PO412430   1.389   6.835   5.353 -0.2095  0.1977 -0.1501
  829YOPS   GL112431   1.385   6.927   5.733  0.3012  0.1743 -0.3914
  829YOPS   GL212432   1.457   7.296   5.738  0.0975  0.0776  0.0884
  829YOPS   C1A12433   1.140   6.996   6.107  0.2785 -0.1184  0.0126
  829YOPS   D2A12434   0.841   6.915   6.453  0.2351 -0.1845  0.0767
  829YOPS   C3A12435   0.772   7.197   6.822  0.2730  0.2655 -0.4640
  829YOPS   C4A12436   0.606   7.677   6.896  0.1273 -0.1318  0.0496
  829YOPS   C1B12437   1.671   7.245   6.203 -0.1141  0.2564  0.2019
  829YOPS   C2B12438   1.773   7.272   6.677  0.0544 -0.0376 -0.1381
  829YOPS   D3B12439   1.985   7.378   7.079 -0.0115  0.0065  0.2994
  829YOPS   C4B12440   2.279   7.122   7.293  0.1178  0.2188  0.3272
  830YOPS   CNO12441   5.410   6.024   5.398  0.1001  0.3207 -0.0345
  830YOPS   PO412442   5.459   6.212   5.697 -0.2839 -0.0572  0.0491
  830YOPS   GL112443   5.211   6.247   6.059 -0.1521 -0.1755 -0.0627
  830YOPS   GL212444   4.966   6.454   5.932 -0.1472 -0.1534  0.1132
  830YOPS   C1A12445   5.318   6.380   6.535  0.0081 -0.0892  0.3553
  830YOPS   D2A12446   5.710   6.372   6.696  0.1122  0.0513 -0.4413
  830YOPS   C3A12447   6.093   6.452   6.598  0.5235  0.0064 -0.0492
  830YOPS   C4A12448   6.500   6.297   6.583  0.2392  0.0820 -0.0341
  830YOPS   C1B12449   4.873   6.639   6.371 -0.0434  0.0636  0.0525
  830YOPS   C2B12450   4.962   7.109   6.472 -0.1182 -0.1364  0.1144
  830YOPS   D3B12451   5.276   7.521   6.690  0.0041  0.2858  0.2255
  830YOPS   C4B12452   5.217   7.986   6.720  0.1769  0.1194  0.1832
  831YOPS   CNO12453  17.201  18.986   5.515 -0.0468  0.1077  0.1973
  831YOPS   PO412454  16.871  18.701   5.311  0.3092 -0.0848 -0.1851
  831YOPS   GL112455  16.796  18.825   5.787  0.2887  0.2122 -0.1259
  831YOPS   GL212456  16.499  18.770   5.989 -0.0135  0.0423 -0.2976
  831YOPS   C1A12457  16.982  19.010   6.090 -0.0914  0.2840  0.5378
  831YOPS   D2A12458  17.131  18.913   6.396  0.2399 -0.0018 -0.0464
  831YOPS   C3A12459  16.996  18.901   6.798 -0.1549  0.1309 -0.1944
  831YOPS   C4A12460  17.193  18.580   7.114  0.1723 -0.0542  0.0943
  831YOPS   C1B12461  16.181  18.927   6.213 -0.0797 -0.2459  0.0255
  831YOPS   C2B12462  15.936  18.822   6.569  0.3058  0.2177  0.0725
  831YOPS   D3B12463  15.521  18.978   6.734  0.1603 -0.0260  0.0830
  831YOPS   C4B12464  15.373  18.814   7.228  0.1766 -0.0329 -0.3747
  832YOPS   CNO12465   9.627  18.716   4.900  0.0769 -0.2205  0.0189
  832YOPS   PO412466   9.350  18.402   5.049 -0.3771 -0.2201 -0.0841
  832YOPS   GL112467   9.273  18.183   5.434 -0.0961  0.1538 -0.4125
  832YOPS   GL212468   9.608  17.905   5.520  0.1799 -0.1487  0.2696
  832YOPS   C1A12469   9.372  18.043   5.918 -0.0333 -0.0799  0.0073
  832YOPS   D2A12470   9.499  17.954   6.257 -0.2651  0.0178  0.0726
  832YOPS   C3A12471   9.763  17.855   6.539  0.1283 -0.1046 -0.1178
  832YOPS   C4A12472  10.198  17.722   6.524  0.2093 -0.1397 -0.0925
  832YOPS   C1B12473   9.748  17.732   5.921 -0.0432  0.1806 -0.0509
  832YOPS   C2B12474  10.025  17.445   6.047 -0.1336 -0.0746 -0.0329
  832YOPS   D3B12475  10.399  17.300   6.155  0.1237 -0.2265 -0.1165
  832YOPS   C4B12476  10.672  17.116   6.533  0.1514  0.1093 -0.1705
  833YOPS   CNO12477   3.077  17.287   5.504 -0.2780  0.1565 -0.4114
  833YOPS   PO412478   2.784  17.342   5.703  0.1237  0.2012  0.2739
  833YOPS   GL112479   2.964  17.336   6.090 -0.0228 -0.2427 -0.0986
  833YOPS   GL212480   3.235  17.469   6.126  0.2641 -0.2041  0.1689
  833YOPS   C1A12481   3.129  17.163   6.487  0.2497  0.2346  0.0536
  833YOPS   D2A12482   3.496  17.198   6.794 -0.0030  0.0259 -0.0446
  833YOPS   C3A12483   3.543  17.161   7.202 -0.0417  0.0668 -0.0152
  833YOPS   C4A12484   3.784  16.798   7.092  0.0509 -0.2553  0.1746
  833YOPS   C1B12485   3.535  17.205   6.007 -0.0971  0.0395  0.1869
  833YOPS   C2B12486   4.013  17.018   6.134 -0.2793  0.0896  0.0308
  833YOPS   D3B12487   4.463  17.092   6.288  0.0490  0.0706  0.3448
  833YOPS   C4B12488   4.720  16.688   6.303 -0.2286 -0.1408  0.1035
  834YOPS   CNO12489  18.676  19.145   5.765 -0.1336 -0.0374 -0.1193
  834YOPS   PO412490  18.815  19.510   5.605  0.0115  0.0943  0.1610
  834YOPS   GL112491  18.972  19.438   6.053 -0.0921 -0.1818  0.0196
  834YOPS   GL212492  18.828  19.208   6.260  0.2990 -0.3192 -0.2385
  834YOPS   C1A12493  19.325  19.696   6.278  0.2548 -0.2074  0.0391
  834YOPS   D2A12494  19.392  19.684   6.740 -0.1887  0.1212 -0.1167
  834YOPS   C3A12495  19.466  19.564   7.113 -0.1744  0.1613 -0.1599
  834YOPS   C4A12496  19.514  19.152   7.187  0.2437  0.0531  0.1916
  834YOPS   C1B12497  19.021  18.830   6.409 -0.3217  0.0152 -0.0204
  834YOPS   C2B12498  18.927  18.437   6.392  0.0260  0.1797 -0.0647
  834YOPS   D3B12499  18.527  18.227   6.585  0.2282  0.0110 -0.0882
  834YOPS   C4B12500  18.175  18.290   6.454  0.1504  0.1179  0.0815
  835POPE   NH312501   3.770   9.271   5.508  0.2944 -0.1428  0.2281
  835POPE   PO412502   4.024   8.937   5.694  0.0118  0.1716 -0.2020
  835POPE   GL112503   4.246   9.208   6.114 -0.1159 -0.1532 -0.3514
  835POPE   GL212504   4.440   9.479   6.218 -0.0431 -0.1451  0.2589
  835POPE   C1A12505   4.370   9.077   6.583 -0.2295 -0.2017  0.0229
  835POPE   D2A12506   4.492   9.197   6.911 -0.0203 -0.2483  0.3470
  835POPE   C3A12507   4.567   9.353   7.291  0.0437  0.2241 -0.2777
  835POPE   C4A12508   4.874   9.747   7.466  0.3013  0.1770  0.4034
  835POPE   C1B12509   4.620   9.583   6.605 -0.1255 -0.1774 -0.1654
  835POPE   C2B12510   4.517   9.754   7.011  0.0108 -0.1761  0.1978
  835POPE   C3B12511   4.327   9.844   7.544  0.1885 -0.3033  0.0135
  835POPE   C4B12512   4.133  10.145   7.862 -0.0480  0.3390  0.0151
  836POPE   NH312513   4.694  19.383   5.237  0.0996 -0.0917  0.2512
  836POPE   PO412514   4.457  18.978   5.295  0.6245  0.0529 -0.0700
  836POPE   GL112515   4.264  18.818   5.726  0.2036 -0.0493 -0.1897
  836POPE   GL212516   4.263  18.558   5.888 -0.1990 -0.1752  0.0728
  836POPE   C1A12517   4.252  18.999   6.246  0.0661  0.0080 -0.0892
  836POPE   D2A12518   4.129  18.938   6.679 -0.1152 -0.0151 -0.0348
  836POPE   C3A12519   3.787  19.277   6.612  0.2147 -0.0752  0.1958
  836POPE   C4A12520   3.276  19.428   6.562 -0.1000 -0.0202 -0.1732
  836POPE   C1B12521   4.487  18.555   6.331 -0.0753  0.3253 -0.1046
  836POPE   C2B12522   4.570  18.763   6.782  0.2369 -0.2158 -0.0656
  836POPE   C3B12523   4.462  19.107   7.159 -0.0022  0.0611  0.0668
  836POPE   C4B12524   4.575  19.357   7.424  0.2658  0.0064 -0.1069
  837POPE   NH312525   8.975  15.482   5.323  0.1274 -0.1206 -0.1657
  837POPE   PO412526   8.881  15.130   5.489 -0.0797 -0.2007 -0.0240
  837POPE   GL112527   8.738  14.977   5.785 -0.0122 -0.2772  0.0075
  837POPE   GL212528   8.587  15.121   5.962  0.2387  0.0532  0.0512
  837POPE   C1A12529   8.868  14.770   6.207  0.4116 -0.0676  0.0376
  837POPE   D2A12530   9.265  14.738   6.417  0.2591  0.0793  0.0629
  837POPE   C3A12531   9.470  14.667   6.853  0.0908 -0.0384  0.0572
  837POPE   C4A12532   9.909  14.712   7.106 -0.2519  0.0602 -0.2434
  837POPE   C1B12533   8.377  15.212   6.450 -0.1152  0.0943  0.0812
  837POPE   C2B12534   8.323  15.350   6.909 -0.4182  0.1377  0.0207
  837POPE   C3B12535   8.088  15.312   7.277 -0.0174 -0.2009 -0.0060
  837POPE   C4B12536   7.651  15.536   7.497 -0.0614 -0.1271 -0.1605
  838POPE   NH312537   6.268  10.859   5.108 -0.0373 -0.0002  0.0708
  838POPE   PO412538   5.837  10.904   5.128 -0.1870  0.1923 -0.0980
  838POPE   GL112539   6.055  10.829   5.555  0.0708 -0.2642  0.1876
  838POPE   GL212540   6.384  10.827   5.684  0.3338  0.1426  0.0429
  838POPE   C1A12541   6.000  11.086   5.940  0.1128 -0.0203 -0.3008
  838POPE   D2A12542   6.092  10.843   6.407  0.0601  0.2111  0.1741
  838POPE   C3A12543   5.794  10.522   6.582 -0.0649  0.5041 -0.2903
  838POPE   C4A12544   5.767  10.060   6.781 -0.0741  0.0474  0.0753
  838POPE   C1B12545   6.885  10.842   5.721  0.0174  0.3540  0.0462
  838POPE   C2B12546   7.375  10.789   5.735 -0.2854 -0.0879 -0.0998
  838POPE   C3B12547   7.716  10.857   6.052 -0.0964  0.1859 -0.0415
  838POPE   C4B12548   7.798  10.508   6.455 -0.0917 -0.1484 -0.0577
  839POPE   NH312549  10.671   7.105   5.036 -0.1313  0.0045 -0.3162
  839POPE   PO412550  10.215   6.923   5.182  0.2905  0.1370  0.4086
  839POPE   GL112551  10.433   6.805   5.655 -0.0008 -0.3321 -0.1865
  839POPE   GL212552  10.096   6.881   5.677 -0.0022 -0.3554 -0.0684
  839POPE   C1A12553  10.264   6.852   6.098 -0.1819 -0.2104 -0.0544
  839POPE   D2A12554   9.947   6.692   6.411  0.1065 -0.0330  0.0437
  839POPE   C3A12555  10.046   6.689   6.873  0.3636 -0.0961  0.2735
  839POPE   C4A12556  10.245   6.782   7.223 -0.1949 -0.1011  0.3272
  839POPE   C1B12557   9.800   6.643   5.949 -0.4902 -0.1850 -0.1371
  839POPE   C2B12558   9.477   6.499   5.972  0.0964  0.2407  0.1681
  839POPE   C3B12559   9.237   6.228   6.239 -0.1332 -0.0331 -0.0044
  839POPE   C4B12560   9.046   6.106   6.583  0.0635 -0.0145  0.1875
  840POPE   NH312561   9.573   2.324   4.808  0.2248 -0.3330 -0.3451
  840POPE   PO412562   9.893   2.229   5.124 -0.3228 -0.2308 -0.0833
  840POPE   GL112563   9.798   2.220   5.484 -0.0914 -0.0078 -0.0162
  840POPE   GL212564  10.060   2.024   5.629  0.0192  0.1056 -0.2304
  840POPE   C1A12565   9.985   2.460   5.803 -0.1796  0.0689 -0.0730
  840POPE   D2A12566  10.046   2.365   6.179  0.2651  0.1631  0.1995
  840POPE   C3A12567  10.265   2.078   6.321  0.2588  0.0953  0.1681
  840POPE   C4A12568  10.637   2.005   6.514  0.0890 -0.0769 -0.2604
  840POPE   C1B12569   9.713   2.009   5.980 -0.0633  0.2479 -0.1422
  840POPE   C2B12570   9.714   1.941   6.450  0.2955 -0.1537  0.4420
  840POPE   C3B12571   9.837   2.307   6.765 -0.1003 -0.2533 -0.1882
  840POPE   C4B12572   9.978   2.635   7.058  0.4128  0.1693  0.0110
  841POPE   NH312573   0.914   1.731   5.925  0.0412 -0.0295  0.0452
  841POPE   PO412574   0.635   1.538   5.637  0.2955  0.0919  0.0131
  841POPE   GL112575   0.515   1.387   6.026  0.1105 -0.3109  0.2314
  841POPE   GL212576   0.306   1.172   6.102  0.2584 -0.0907 -0.0337
  841POPE   C1A12577   0.514   1.461   6.498  0.4362 -0.0396 -0.0762
  841POPE   D2A12578   0.468   1.438   6.832  0.0914 -0.0674 -0.1305
  841POPE   C3A12579   0.254   1.772   7.062 -0.0210 -0.1186 -0.0136
  841POPE   C4A12580  -0.098   2.040   7.092 -0.0107  0.2270  0.0525
  841POPE   C1B12581   0.149   1.097   6.552 -0.1572 -0.3062  0.3447
  841POPE   C2B12582   0.055   0.958   6.970  0.1803 -0.0130  0.1465
  841POPE   C3B12583  -0.160   1.096   7.294 -0.0878 -0.2187 -0.1831
  841POPE   C4B12584  -0.539   1.196   7.639 -0.2736 -0.3871 -0.1461
  842POPE   NH312585  14.430   1.156   5.373 -0.0206  0.1194  0.0328
  842POPE   PO412586  14.674   1.493   5.138 -0.1497  0.1636 -0.1758
  842POPE   GL112587  14.862   1.351   5.543 -0.2182  0.0764  0.3571
  842POPE   GL212588  15.208   1.357   5.554 -0.1100  0.0829  0.3694
  842POPE   C1A12589  14.865   1.047   6.008  0.1891 -0.1122 -0.1957
  842POPE   D2A12590  15.157   0.902   6.315 -0.2226  0.0298  0.0676
  842POPE   C3A12591  15.447   1.212   6.392  0.1531 -0.0972  0.2486
  842POPE   C4A12592  15.885   1.459   6.398 -0.1422 -0.0686 -0.0363
  842POPE   C1B12593  15.118   1.477   6.056 -0.0839 -0.0304 -0.1683
  842POPE   C2B12594  15.010   1.472   6.400 -0.1893  0.1128  0.0668
  842POPE   C3B12595  15.079   1.214   6.711  0.1614  0.0099 -0.1417
  842POPE   C4B12596  15.420   0.924   6.835  0.3321 -0.1889  0.0413
  843POPE   NH312597   2.321  17.597   5.786 -0.1339  0.1880  0.1177
  843POPE   PO412598   2.577  17.657   6.133  0.0175  0.0528 -0.0930
  843POPE   GL112599   2.818  17.597   6.558 -0.1156 -0.0473  0.2443
  843POPE   GL212600   2.789  17.879   6.639 -0.4497 -0.2303 -0.1811
  843POPE   C1A12601   2.933  17.414   6.882  0.0050  0.1807  0.2768
  843POPE   D2A12602   3.033  17.344   7.282 -0.1690 -0.2526  0.3053
  843POPE   C3A12603   3.211  17.236   7.593 -0.3003  0.3324  0.1444
  843POPE   C4A12604   2.998  16.869   7.820 -0.0835 -0.1971  0.1661
  843POPE   C1B12605   2.809  18.010   6.942 -0.2655  0.1855  0.1148
  843POPE   C2B12606   2.941  17.817   7.272 -0.1612 -0.0282 -0.1428
  843POPE   C3B12607   3.126  17.725   7.718 -0.2451  0.1378 -0.0739
  843POPE   C4B12608   3.394  17.935   7.933 -0.0789  0.2448  0.2138
  844POPE   NH312609   2.036   2.771   5.782  0.2994  0.0758 -0.2038
  844POPE   PO412610   1.607   2.892   6.081 -0.1972 -0.2583  0.1003
  844POPE   GL112611   1.649   2.647   6.356 -0.1943  0.1965 -0.2845
  844POPE   GL212612   1.869   2.501   6.251 -0.2403  0.3633 -0.2215
  844POPE   C1A12613   1.847   2.493   6.758  0.0907 -0.0014  0.2792
  844POPE   D2A12614   1.856   2.464   7.199  0.2824 -0.0677  0.1876
  844POPE   C3A12615   2.060   2.301   7.483 -0.0018 -0.2671  0.2693
  844POPE   C4A12616   2.156   2.047   7.850  0.1644 -0.3148 -0.0189
  844POPE   C1B12617   2.057   2.869   6.585  0.0597  0.2675  0.2136
  844POPE   C2B12618   1.846   3.001   6.968 -0.0722 -0.2729 -0.2183
  844POPE   C3B12619   1.927   3.316   7.318 -0.1536 -0.1152 -0.0580
  844POPE   C4B12620   2.070   3.531   7.693 -0.0262 -0.2566 -0.2615
  845POPE   NH312621  15.873  16.249   4.592  0.2449 -0.1462  0.1863
  845POPE   PO412622  16.211  16.112   4.548  0.1010 -0.3211 -0.1874
  845POPE   GL112623  16.258  15.901   4.980 -0.0853 -0.2262 -0.3121
  845POPE   GL212624  16.590  15.795   5.102 -0.0596  0.2612  0.1780
  845POPE   C1A12625  16.267  16.057   5.366  0.0057 -0.0944 -0.3844
  845POPE   D2A12626  16.109  16.096   5.781 -0.1745 -0.1478 -0.0715
  845POPE   C3A12627  16.016  16.377   6.157  0.2630  0.2941  0.0363
  845POPE   C4A12628  15.700  16.098   6.312  0.0639 -0.0945 -0.1050
  845POPE   C1B12629  16.805  15.870   5.489 -0.0079 -0.0459 -0.2321
  845POPE   C2B12630  16.739  15.966   5.876  0.1016  0.0461 -0.2450
  845POPE   C3B12631  16.526  16.195   6.165 -0.2601 -0.3700 -0.0575
  845POPE   C4B12632  16.281  16.095   6.517  0.1198  0.0709 -0.0054
  846POPE   NH312633   3.741   1.313   5.567 -0.1984 -0.0882  0.2220
  846POPE   PO412634   3.834   1.617   5.793  0.5999  0.1150  0.0740
  846POPE   GL112635   3.807   1.440   6.121 -0.0835  0.0494 -0.0190
  846POPE   GL212636   3.728   1.064   6.051  0.0057  0.0751  0.0263
  846POPE   C1A12637   4.062   1.604   6.497 -0.0174 -0.0830  0.0313
  846POPE   D2A12638   4.053   1.326   6.834 -0.1849 -0.2661  0.3797
  846POPE   C3A12639   3.633   1.408   7.116  0.1630 -0.1131  0.1570
  846POPE   C4A12640   3.848   1.209   7.471  0.0843 -0.3530 -0.1852
  846POPE   C1B12641   3.775   1.058   6.474 -0.2379 -0.3905 -0.1810
  846POPE   C2B12642   3.773   0.898   6.908  0.0047 -0.1782 -0.0894
  846POPE   C3B12643   3.552   0.894   7.227  0.0732  0.0031  0.2042
  846POPE   C4B12644   3.488   0.901   7.712 -0.0168  0.0028  0.0012
  847POPE   NH312645   2.006  18.629   6.126 -0.1727  0.2656  0.1310
  847POPE   PO412646   1.547  18.866   5.944 -0.2461  0.0363  0.1253
  847POPE   GL112647   1.557  18.416   6.110  0.1900  0.1280 -0.0385
  847POPE   GL212648   1.593  18.424   6.489 -0.2419  0.1420 -0.6493
  847POPE   C1A12649   1.361  18.025   6.301  0.0563  0.1493 -0.1329
  847POPE   D2A12650   1.179  17.633   6.519  0.0413 -0.1071 -0.1366
  847POPE   C3A12651   1.280  17.760   6.961  0.2807  0.0989  0.1128
  847POPE   C4A12652   1.355  17.550   7.255  0.2778  0.0457 -0.1565
  847POPE   C1B12653   1.641  18.785   6.827 -0.2194  0.0232 -0.1176
  847POPE   C2B12654   1.617  18.766   7.326 -0.2589 -0.1824  0.1568
  847POPE   C3B12655   1.271  18.632   7.660  0.1523 -0.1598 -0.1118
  847POPE   C4B12656   1.115  18.540   8.125  0.1437  0.2834 -0.0693
  848POPE   NH312657  14.503  15.375   4.544  0.2861  0.2582 -0.1428
  848POPE   PO412658  14.886  15.240   4.724  0.1744 -0.2308 -0.0218
  848POPE   GL112659  14.757  15.240   5.212 -0.1265 -0.1437  0.3479
  848POPE   GL212660  14.538  15.399   5.232  0.0036  0.0875 -0.3398
  848POPE   C1A12661  14.897  15.290   5.648  0.0714 -0.1518  0.0117
  848POPE   D2A12662  14.976  15.597   5.914  0.4756 -0.2680  0.4991
  848POPE   C3A12663  14.868  16.039   5.881 -0.0129 -0.2315  0.1959
  848POPE   C4A12664  14.755  16.424   5.588 -0.2348  0.0250  0.2983
  848POPE   C1B12665  14.452  15.054   5.523  0.1276  0.0606 -0.3606
  848POPE   C2B12666  14.229  14.625   5.770  0.2310 -0.1203 -0.4959
  848POPE   C3B12667  14.207  14.591   6.256 -0.1343  0.4154  0.0949
  848POPE   C4B12668  14.441  14.618   6.585  0.0170  0.1617 -0.0995
  849POPE   NH312669   2.921  15.236   5.404 -0.2261 -0.1002  0.0115
  849POPE   PO412670   2.818  15.497   5.672  0.3856  0.0099  0.3224
  849POPE   GL112671   2.469  15.490   5.951  0.0138  0.2365  0.3265
  849POPE   GL212672   2.366  15.229   6.157 -0.2000  0.1039 -0.0142
  849POPE   C1A12673   2.243  15.751   5.955  0.2447  0.0806  0.3824
  849POPE   D2A12674   2.220  16.114   6.273  0.0096 -0.0217 -0.2794
  849POPE   C3A12675   2.537  16.074   6.554 -0.2708  0.3204  0.2344
  849POPE   C4A12676   2.734  15.941   6.983 -0.1977  0.0284  0.1175
  849POPE   C1B12677   2.419  14.914   6.440 -0.0270 -0.1201  0.3684
  849POPE   C2B12678   2.609  14.802   6.778 -0.1604  0.1216  0.2422
  849POPE   C3B12679   2.797  14.972   7.097  0.0115  0.1490  0.2240
  849POPE   C4B12680   2.647  14.807   7.499 -0.0556  0.0173 -0.2674
  850POPE   NH312681  17.920   4.135   5.420  0.0013  0.5115 -0.0922
  850POPE   PO412682  17.914   4.503   5.542  0.0541  0.0135  0.3099
  850POPE   GL112683  17.886   4.592   5.983  0.2955 -0.2093 -0.1898
  850POPE   GL212684  18.013   4.349   6.161  0.1726  0.1210 -0.4900
  850POPE   C1A12685  17.924   4.732   6.521  0.0328  0.1265  0.2099
  850POPE   D2A12686  17.976   4.865   6.870 -0.1088  0.0627  0.0583
  850POPE   C3A12687  17.720   5.038   7.011  0.3371  0.0140  0.2867
  850POPE   C4A12688  17.321   5.139   7.266 -0.1886  0.1713  0.0967
  850POPE   C1B12689  17.727   4.250   6.513 -0.0824  0.1061  0.0848
  850POPE   C2B12690  17.492   4.359   6.952 -0.2174 -0.1214  0.2607
  850POPE   C3B12691  17.552   4.695   7.284  0.0286  0.0868 -0.1266
  850POPE   C4B12692  17.403   4.703   7.626  0.3262  0.1445 -0.0927
  851POPE   NH312693   2.452   5.679   5.992 -0.0226  0.0879  0.1173
  851POPE   PO412694   1.979   5.550   5.981 -0.2123  0.1613  0.2844
  851POPE   GL112695   2.041   5.482   6.435  0.0596  0.0715 -0.5456
  851POPE   GL212696   2.330   5.679   6.535  0.0539  0.2711  0.0603
  851POPE   C1A12697   1.962   5.315   6.795 -0.2467 -0.1223  0.1906
  851POPE   D2A12698   1.881   5.160   7.023 -0.1303  0.0473  0.0051
  851POPE   C3A12699   1.732   5.241   7.428 -0.1696  0.2400 -0.0474
  851POPE   C4A12700   1.709   5.548   7.607  0.2062 -0.0215  0.2003
  851POPE   C1B12701   2.217   5.706   6.981 -0.0232  0.1747 -0.1697
  851POPE   C2B12702   2.114   5.555   7.322 -0.3251  0.3977 -0.0822
  851POPE   C3B12703   2.306   5.572   7.707  0.0137  0.0727  0.1922
  851POPE   C4B12704   2.700   5.525   7.645 -0.0049 -0.1674  0.0552
  852POPE   NH312705   5.714   7.245   5.786  0.4687 -0.0682  0.1568
  852POPE   PO412706   5.982   7.488   5.723 -0.3105 -0.1903 -0.1037
  852POPE   GL112707   6.297   7.598   6.033  0.1289  0.1325 -0.0692
  852POPE   GL212708   6.113   7.300   6.160 -0.1907  0.1571  0.0213
  852POPE   C1A12709   6.388   7.910   6.304 -0.0403  0.2601 -0.2727
  852POPE   D2A12710   6.667   8.232   6.244  0.1672 -0.0284 -0.0600
  852POPE   C3A12711   7.028   8.375   6.573  0.3126  0.1949  0.1761
  852POPE   C4A12712   7.009   8.191   6.974 -0.1719  0.0395 -0.2029
  852POPE   C1B12713   6.172   7.398   6.568  0.0080  0.2778 -0.1572
  852POPE   C2B12714   6.587   7.441   6.936  0.1644  0.2004 -0.2517
  852POPE   C3B12715   6.714   7.724   7.222 -0.0779  0.0555 -0.1392
  852POPE   C4B12716   6.717   7.687   7.688  0.0009  0.0303  0.0537
  853POPE   NH312717   0.495   3.920   6.018 -0.1995  0.1725 -0.0139
  853POPE   PO412718   0.359   4.294   5.725 -0.2722  0.1467 -0.0303
  853POPE   GL112719   0.349   4.573   6.100  0.0725 -0.1661 -0.2797
  853POPE   GL212720   0.253   4.796   6.108  0.3466  0.0695 -0.1123
  853POPE   C1A12721   0.367   4.618   6.533  0.1344 -0.3204  0.0146
  853POPE   D2A12722   0.559   4.671   6.847  0.1548 -0.2800  0.1678
  853POPE   C3A12723   0.498   4.143   7.050 -0.1339 -0.1061 -0.1676
  853POPE   C4A12724   0.686   3.799   7.196  0.2045 -0.0014  0.0586
  853POPE   C1B12725   0.614   5.031   6.290 -0.1410  0.0913  0.0457
  853POPE   C2B12726   1.039   4.899   6.531 -0.2199 -0.1090 -0.1455
  853POPE   C3B12727   0.943   4.933   6.951  0.0226  0.0110  0.0573
  853POPE   C4B12728   0.706   4.885   7.277  0.2891  0.1182  0.0934
  854POPE   NH312729  10.594   1.080   5.223 -0.0231  0.0691  0.0671
  854POPE   PO412730  10.677   1.449   5.169 -0.1732  0.0299 -0.2218
  854POPE   GL112731  10.794   1.425   5.550 -0.0363 -0.1349 -0.2195
  854POPE   GL212732  11.051   1.189   5.615  0.0281  0.0502  0.2345
  854POPE   C1A12733  10.878   1.445   6.080 -0.0381 -0.1538  0.2215
  854POPE   D2A12734  11.096   1.594   6.486 -0.3108  0.0743  0.0257
  854POPE   C3A12735  11.000   1.802   6.841 -0.0327  0.5426 -0.0918
  854POPE   C4A12736  10.883   2.038   7.191  0.0034 -0.2648 -0.0923
  854POPE   C1B12737  10.888   0.943   5.878 -0.2481  0.1019 -0.1307
  854POPE   C2B12738  10.857   0.959   6.301 -0.1437  0.1434 -0.5120
  854POPE   C3B12739  10.897   0.674   6.670 -0.0726 -0.1316 -0.1935
  854POPE   C4B12740  11.160   0.631   7.079  0.1662  0.0431 -0.0566
  855POPE   NH312741  12.026   6.388   5.163 -0.1750 -0.0224 -0.0113
  855POPE   PO412742  12.201   6.793   5.419  0.7088  0.1143  0.2722
  855POPE   GL112743  12.148   6.948   5.840 -0.1342 -0.1943  0.3587
  855POPE   GL212744  11.891   7.071   6.012  0.2633 -0.2646  0.0408
  855POPE   C1A12745  12.239   6.949   6.419  0.4477  0.0981 -0.0162
  855POPE   D2A12746  12.386   7.055   6.837 -0.3602  0.0840  0.5307
  855POPE   C3A12747  12.332   7.474   6.941 -0.0019 -0.0110  0.0430
  855POPE   C4A12748  12.390   7.760   7.218  0.1294  0.0916 -0.4000
  855POPE   C1B12749  11.631   7.167   6.345 -0.2982  0.3219  0.1859
  855POPE   C2B12750  11.262   7.310   6.578 -0.1093 -0.0137  0.0200
  855POPE   C3B12751  10.883   7.503   6.680  0.0860 -0.2470  0.1940
  855POPE   C4B12752  10.566   7.261   6.868 -0.4289  0.1796  0.2326
  856POPE   NH312753  17.239  13.184   5.384  0.2086 -0.0546 -0.1828
  856POPE   PO412754  17.602  13.147   5.131  0.1911  0.3462 -0.1436
  856POPE   GL112755  17.642  13.273   5.629  0.1736  0.3594  0.0546
  856POPE   GL212756  17.838  13.156   5.870  0.2233  0.0800  0.2206
  856POPE   C1A12757  17.350  13.272   5.990  0.2251  0.1325 -0.1530
  856POPE   D2A12758  17.152  13.273   6.313  0.0293 -0.4190  0.1859
  856POPE   C3A12759  17.306  13.313   6.754 -0.0957 -0.0286 -0.1434
  856POPE   C4A12760  17.532  13.222   7.227 -0.1213 -0.2092 -0.2447
  856POPE   C1B12761  17.660  13.110   6.357 -0.1284  0.1003  0.1573
  856POPE   C2B12762  17.811  13.035   6.873 -0.1519 -0.1129  0.1959
  856POPE   C3B12763  18.274  13.124   7.042  0.1185  0.1227  0.2170
  856POPE   C4B12764  18.712  13.302   6.949 -0.1114 -0.2455 -0.1459
  857POPE   NH312765  16.487  10.583   5.558 -0.2928  0.1952 -0.1619
  857POPE   PO412766  16.782  10.942   5.377 -0.1956 -0.1618 -0.1652
  857POPE   GL112767  16.710  10.982   5.829 -0.1669  0.1323 -0.1472
  857POPE   GL212768  16.895  10.726   5.854 -0.5317  0.1989 -0.1001
  857POPE   C1A12769  16.731  11.153   6.337 -0.3532 -0.0298 -0.0089
  857POPE   D2A12770  16.678  11.406   6.662  0.1038 -0.0051  0.1809
  857POPE   C3A12771  16.899  11.129   7.010  0.0032 -0.0270  0.0883
  857POPE   C4A12772  17.029  10.997   7.250  0.0467  0.1548  0.0531
  857POPE   C1B12773  16.766  10.621   6.164  0.1038 -0.0513 -0.3268
  857POPE   C2B12774  16.338  10.565   6.268 -0.0963 -0.0443  0.1870
  857POPE   C3B12775  15.972  10.676   6.005  0.0225 -0.0359  0.0472
  857POPE   C4B12776  15.614  10.643   5.777  0.0248 -0.1349  0.1300
  858POPE   NH312777  13.808   1.792   5.381 -0.1153  0.0093 -0.3642
  858POPE   PO412778  13.828   1.379   5.419 -0.1757  0.0814 -0.0004
  858POPE   GL112779  13.961   1.196   5.725  0.4828 -0.3473 -0.1705
  858POPE   GL212780  14.235   0.962   5.765  0.1219  0.0710  0.0051
  858POPE   C1A12781  13.714   1.033   5.971  0.2857 -0.1504 -0.1585
  858POPE   D2A12782  13.608   1.001   6.337 -0.0266 -0.0166 -0.3842
  858POPE   C3A12783  13.526   1.368   6.589  0.4821 -0.1083 -0.1138
  858POPE   C4A12784  13.484   1.546   6.984  0.0025 -0.0117  0.1832
  858POPE   C1B12785  14.344   0.944   6.064  0.1137 -0.1473  0.1946
  858POPE   C2B12786  14.124   0.893   6.432 -0.0644 -0.1655 -0.1452
  858POPE   C3B12787  14.241   0.509   6.732 -0.3382 -0.1702 -0.2705
  858POPE   C4B12788  14.225   0.197   7.029 -0.2796  0.1655  0.3030
  859POPE   NH312789  17.698  16.709   4.452 -0.1680 -0.2005 -0.2494
  859POPE   PO412790  17.377  16.972   4.668 -0.2441  0.1241  0.1628
  859POPE   GL112791  17.278  16.861   5.043  0.0242  0.1056 -0.3844
  859POPE   GL212792  17.272  17.100   5.256  0.4784  0.1398  0.2055
  859POPE   C1A12793  17.168  16.501   5.314  0.2331 -0.0531  0.0390
  859POPE   D2A12794  17.035  16.424   5.726 -0.1182 -0.2276 -0.1258
  859POPE   C3A12795  16.957  16.394   6.236  0.0865 -0.0108  0.1995
  859POPE   C4A12796  17.058  16.744   6.454 -0.2342  0.1487  0.1186
  859POPE   C1B12797  17.067  17.271   5.683  0.0341 -0.0515  0.2345
  859POPE   C2B12798  16.670  17.386   5.868 -0.0405  0.1489 -0.2543
  859POPE   C3B12799  16.264  17.242   5.993 -0.1606 -0.2698 -0.1237
  859POPE   C4B12800  15.919  16.836   6.035 -0.1168  0.0996 -0.1310
  860POPE   NH312801   8.080   6.825   5.361 -0.1908 -0.2914  0.0960
  860POPE   PO412802   7.686   6.887   5.475 -0.1226 -0.0440 -0.0332
  860POPE   GL112803   8.083   6.602   5.791  0.1323 -0.1939  0.0447
  860POPE   GL212804   8.315   6.797   5.969  0.1777  0.1233  0.3508
  860POPE   C1A12805   8.014   6.513   6.290 -0.2416 -0.0588  0.2314
  860POPE   D2A12806   7.797   6.269   6.543 -0.2464  0.0643  0.2188
  860POPE   C3A12807   7.745   6.610   6.838  0.4004 -0.0402 -0.3794
  860POPE   C4A12808   7.885   6.863   7.102 -0.1985 -0.2235 -0.0196
  860POPE   C1B12809   8.432   6.780   6.363  0.1272  0.2232 -0.3342
  860POPE   C2B12810   8.343   6.735   6.751  0.1112  0.1831 -0.3002
  860POPE   C3B12811   8.435   6.673   7.175  0.0373  0.2451 -0.0495
  860POPE   C4B12812   8.635   6.800   7.608  0.0348 -0.2972  0.0036
  861POPE   NH312813  12.892   3.507   5.335  0.0164 -0.0608 -0.0995
  861POPE   PO412814  13.395   3.415   5.223 -0.0819 -0.0118 -0.1084
  861POPE   GL112815  13.387   3.380   5.653  0.2317 -0.1491 -0.0390
  861POPE   GL212816  13.068   3.292   5.730  0.1483  0.0385  0.1020
  861POPE   C1A12817  13.609   3.132   5.954 -0.0025  0.0611 -0.2009
  861POPE   D2A12818  13.543   3.061   6.491  0.0676  0.2474 -0.0636
  861POPE   C3A12819  13.673   2.714   6.768 -0.1222 -0.1354  0.3725
  861POPE   C4A12820  13.895   2.345   6.793 -0.0544 -0.3135  0.0585
  861POPE   C1B12821  13.258   3.603   6.109 -0.1068  0.3473 -0.1749
  861POPE   C2B12822  13.184   3.681   6.422 -0.0990  0.0818  0.3251
  861POPE   C3B12823  13.300   3.394   6.727  0.0916  0.1801  0.0188
  861POPE   C4B12824  13.377   3.209   7.211  0.0679 -0.1664 -0.2603
  862POPE   NH312825   2.490   2.524   5.837  0.2174 -0.2415  0.2266
  862POPE   PO412826   2.231   2.320   5.926  0.1527  0.1297 -0.1390
  862POPE   GL112827   2.477   2.488   6.315 -0.0085  0.4931 -0.0279
  862POPE   GL212828   2.652   2.182   6.358  0.0811 -0.0476 -0.1119
  862POPE   C1A12829   2.425   2.458   6.720  0.2657  0.0042 -0.1668
  862POPE   D2A12830   2.366   2.379   7.071  0.2051  0.2965  0.0416
  862POPE   C3A12831   2.542   2.672   7.380 -0.0929 -0.1478  0.0362
  862POPE   C4A12832   2.692   3.028   7.415 -0.2797 -0.0671 -0.0488
  862POPE   C1B12833   2.864   2.311   6.721 -0.0795 -0.0235  0.0489
  862POPE   C2B12834   2.915   2.172   7.179 -0.3031 -0.2825 -0.1248
  862POPE   C3B12835   2.989   1.798   7.527  0.1584 -0.1969 -0.0543
  862POPE   C4B12836   2.979   1.509   7.890 -0.2468 -0.3790  0.1332
  863POPE   NH312837   9.189   4.428   5.275 -0.0035  0.2919  0.2409
  863POPE   PO412838   9.303   4.816   5.370 -0.0599 -0.1288 -0.2622
  863POPE   GL112839   9.210   4.871   5.817  0.0552  0.0222 -0.0243
  863POPE   GL212840   9.484   5.016   5.876 -0.1037 -0.0226  0.2714
  863POPE   C1A12841   9.186   4.698   6.200  0.2349  0.0194  0.1305
  863POPE   D2A12842   8.975   4.430   6.470  0.0076 -0.1427  0.0537
  863POPE   C3A12843   8.716   4.446   6.851  0.0564  0.1964  0.1549
  863POPE   C4A12844   8.596   4.517   7.330 -0.1725 -0.0987 -0.1693
  863POPE   C1B12845   9.464   5.120   6.301  0.1791  0.0689 -0.2612
  863POPE   C2B12846   9.432   5.287   6.669  0.0592  0.1817  0.0529
  863POPE   C3B12847   9.333   5.054   7.137  0.1024  0.0498  0.0288
  863POPE   C4B12848   9.342   5.123   7.561 -0.0040 -0.0485 -0.0199
  864YOPE   NH312849   7.617  10.086   5.086 -0.0413  0.1433 -0.0335
  864YOPE   PO412850   7.941   9.755   5.047  0.0006  0.1685 -0.2319
  864YOPE   GL112851   7.789   9.737   5.477  0.2847  0.1679 -0.2895
  864YOPE   GL212852   7.542   9.932   5.585 -0.2527  0.0799 -0.1376
  864YOPE   C1A12853   7.974   9.728   5.866 -0.2020 -0.2212 -0.0685
  864YOPE   D2A12854   8.058   9.372   6.199 -0.1518 -0.3081  0.0325
  864YOPE   C3A12855   7.968   9.174   6.577  0.0774 -0.3983 -0.0811
  864YOPE   C4A12856   7.542   9.153   6.826 -0.2616 -0.0796 -0.2194
  864YOPE   C1B12857   7.454   9.618   5.836  0.0857 -0.0767 -0.2424
  864YOPE   C2B12858   7.602   9.531   6.269 -0.0487 -0.0279  0.0693
  864YOPE   D3B12859   7.908   9.677   6.586  0.0376  0.1061 -0.3498
  864YOPE   C4B12860   8.035   9.695   6.966  0.1118 -0.1003  0.2430
  865YOPE   NH312861  13.760   4.336   5.206 -0.3150 -0.4704  0.0472
  865YOPE   PO412862  14.174   4.291   5.462 -0.0126 -0.0317 -0.1431
  865YOPE   GL112863  14.287   4.407   5.903 -0.1891 -0.0126 -0.0124
  865YOPE   GL212864  14.631   4.370   5.889  0.1097 -0.0500  0.2636
  865YOPE   C1A12865  14.218   4.389   6.318  0.1699  0.0537 -0.0166
  865YOPE   D2A12866  14.135   4.283   6.749 -0.1418  0.3222  0.0099
  865YOPE   C3A12867  14.212   3.889   6.917 -0.0001 -0.1198 -0.1032
  865YOPE   C4A12868  14.107   3.622   7.312  0.1037  0.0617  0.3582
  865YOPE   C1B12869  14.624   4.077   6.229  0.2673  0.0234 -0.1153
  865YOPE   C2B12870  14.600   4.112   6.638  0.2694  0.1785  0.0670
  865YOPE   D3B12871  14.586   4.389   6.997  0.0341  0.1434  0.1212
  865YOPE   C4B12872  14.372   4.520   7.187 -0.1432 -0.4429 -0.2258
  866YOPE   NH312873   8.458  19.113   5.450  0.2172 -0.0423  0.2701
  866YOPE   PO412874   8.866  19.140   5.485  0.1751 -0.2337  0.2232
  866YOPE   GL112875   8.776  18.806   5.740 -0.0787  0.1270 -0.1640
  866YOPE   GL212876   8.798  18.576   5.611 -0.1418  0.1169  0.1084
  866YOPE   C1A12877   8.594  18.712   6.071 -0.2605 -0.4374 -0.1039
  866YOPE   D2A12878   8.367  18.697   6.479 -0.3134  0.0372  0.2261
  866YOPE   C3A12879   8.364  18.249   6.560  0.1795  0.1744  0.0647
  866YOPE   C4A12880   8.649  18.064   6.878 -0.0110  0.1708 -0.1998
  866YOPE   C1B12881   9.239  18.626   5.912  0.6106 -0.2308 -0.1015
  866YOPE   C2B12882   9.590  18.773   6.274  0.2177 -0.0597  0.0332
  866YOPE   D3B12883   9.971  18.969   6.414 -0.1019  0.0605 -0.0974
  866YOPE   C4B12884  10.215  19.271   6.716  0.2047  0.2120  0.0081
  867YOPE   NH312885  13.826   7.105   5.338 -0.1435  0.0273  0.2897
  867YOPE   PO412886  13.894   6.772   5.472  0.3850  0.3151  0.1883
  867YOPE   GL112887  14.062   6.924   5.777 -0.2411 -0.2130 -0.3095
  867YOPE   GL212888  14.018   7.284   5.743  0.1316  0.1203 -0.1346
  867YOPE   C1A12889  14.282   7.027   6.190  0.0776  0.4539  0.0404
  867YOPE   D2A12890  14.539   7.330   6.408  0.0493 -0.3556 -0.2988
  867YOPE   C3A12891  14.919   7.196   6.580  0.1763 -0.2939  0.3821
  867YOPE   C4A12892  14.968   6.988   7.053  0.1339 -0.4258  0.0958
  867YOPE   C1B12893  14.152   7.550   6.177 -0.1288  0.0615  0.4197
  867YOPE   C2B12894  14.201   7.743   6.674 -0.0592 -0.4552  0.1417
  867YOPE   D3B12895  14.541   7.846   6.942  0.0577 -0.1635  0.1686
  867YOPE   C4B12896  14.958   8.122   7.010 -0.2065 -0.2835 -0.0915
  868YOPE   NH312897   5.956  12.677   5.197  0.1601  0.1139 -0.2777
  868YOPE   PO412898   6.051  12.950   5.540  0.0378  0.0102 -0.0242
  868YOPE   GL112899   5.830  12.738   5.900 -0.0549 -0.1898 -0.2570
  868YOPE   GL212900   5.546  12.960   6.017 -0.0521  0.3314  0.1046
  868YOPE   C1A12901   5.809  12.561   6.264 -0.0452  0.1347  0.1783
  868YOPE   D2A12902   5.770  12.668   6.687 -0.2101 -0.1117 -0.0768
  868YOPE   C3A12903   6.132  12.890   6.751 -0.1423  0.0460  0.2283
  868YOPE   C4A12904   6.549  12.834   6.889 -0.1547  0.0218 -0.0206
  868YOPE   C1B12905   5.260  13.283   6.282  0.0473 -0.0438  0.4614
  868YOPE   C2B12906   5.030  13.380   6.645  0.1442 -0.0268 -0.0819
  868YOPE   D3B12907   4.919  13.280   7.026 -0.1661 -0.2638  0.0165
  868YOPE   C4B12908   4.591  12.946   6.997  0.0201 -0.0126 -0.0221
  869YOPE   NH312909  18.805   6.290   5.517  0.3055 -0.1992 -0.0563
  869YOPE   PO412910  18.759   5.926   5.830 -0.1166  0.0752 -0.0426
  869YOPE   GL112911  18.934   5.903   6.139  0.0439  0.1514 -0.0056
  869YOPE   GL212912  19.297   5.829   6.137  0.0498 -0.0571 -0.2447
  869YOPE   C1A12913  18.968   6.222   6.428 -0.3413  0.1595 -0.1265
  869YOPE   D2A12914  18.850   6.623   6.744  0.0387  0.0570 -0.0035
  869YOPE   C3A12915  19.011   6.730   7.122  0.1092 -0.0342 -0.0503
  869YOPE   C4A12916  18.916   6.797   7.471  0.0534 -0.2347  0.4161
  869YOPE   C1B12917  19.351   5.947   6.482 -0.4704 -0.2403 -0.0501
  869YOPE   C2B12918  19.240   6.162   6.838  0.0835 -0.0106  0.1854
  869YOPE   D3B12919  19.414   6.436   7.136 -0.2774  0.3740  0.1627
  869YOPE   C4B12920  19.411   6.803   7.422 -0.1186 -0.4684 -0.0693
  870YOPE   NH312921   5.250  13.987   5.094 -0.0841  0.2279 -0.1394
  870YOPE   PO412922   5.042  14.345   5.474  0.2118 -0.0681  0.0801
  870YOPE   GL112923   4.930  14.163   5.848 -0.2026 -0.1411  0.3491
  870YOPE   GL212924   4.841  13.836   5.902 -0.1638 -0.0451  0.5130
  870YOPE   C1A12925   4.613  14.181   6.171  0.2034 -0.0484 -0.2137
  870YOPE   D2A12926   4.476  14.383   6.578  0.1040  0.0216 -0.1587
  870YOPE   C3A12927   4.504  14.221   6.952  0.1907 -0.1217  0.0001
  870YOPE   C4A12928   4.328  14.016   7.229  0.2679 -0.0804  0.1342
  870YOPE   C1B12929   4.918  13.645   6.226  0.0733  0.2048 -0.1726
  870YOPE   C2B12930   5.273  13.797   6.474 -0.3682 -0.0665  0.0243
  870YOPE   D3B12931   5.368  13.884   6.880 -0.0540 -0.0981 -0.0551
  870YOPE   C4B12932   5.209  13.900   7.270  0.3709  0.1030 -0.0234
  871YOPE   NH312933   4.178  12.274   5.495 -0.0380 -0.1366  0.2858
  871YOPE   PO412934   4.573  12.569   5.684  0.1508  0.1674 -0.0826
  871YOPE   GL112935   4.685  12.400   6.089 -0.2551 -0.5082 -0.1795
  871YOPE   GL212936   4.966  12.203   5.966 -0.0944 -0.5478 -0.1678
  871YOPE   C1A12937   4.994  12.312   6.437  0.0302  0.0755 -0.4424
  871YOPE   D2A12938   4.933  11.963   6.814 -0.1423  0.2610 -0.3049
  871YOPE   C3A12939   4.928  12.123   7.129 -0.1006 -0.0835  0.1752
  871YOPE   C4A12940   4.694  12.107   7.517  0.0301 -0.1303  0.1113
  871YOPE   C1B12941   5.011  11.866   6.288  0.0867  0.5771  0.0420
  871YOPE   C2B12942   4.739  11.557   6.566  0.2137  0.1602 -0.1923
  871YOPE   D3B12943   4.391  11.409   6.788 -0.2044 -0.0407  0.1761
  871YOPE   C4B12944   4.327  11.260   7.187  0.1150  0.0998  0.3021
  872YOPE   NH312945   1.266   0.658   5.484 -0.3646  0.1585 -0.1698
  872YOPE   PO412946   1.456   1.086   5.454  0.4213 -0.0609  0.1025
  872YOPE   GL112947   1.234   0.982   5.853 -0.1138  0.1121 -0.2860
  872YOPE   GL212948   0.954   1.170   6.003 -0.3322  0.2673  0.2123
  872YOPE   C1A12949   1.192   0.877   6.320  0.1053  0.1662 -0.2057
  872YOPE   D2A12950   1.185   0.588   6.662 -0.0273  0.0583  0.2587
  872YOPE   C3A12951   1.012   0.615   6.941 -0.0261  0.0242  0.2578
  872YOPE   C4A12952   1.000   0.629   7.338  0.0565  0.0931  0.0332
  872YOPE   C1B12953   0.679   1.004   6.302 -0.2508 -0.1671  0.0721
  872YOPE   C2B12954   0.621   0.980   6.675 -0.1670 -0.5070 -0.0341
  872YOPE   D3B12955   0.534   0.995   7.002  0.0041  0.1844  0.2816
  872YOPE   C4B12956   0.676   0.997   7.442 -0.3914 -0.1056  0.2681
  873YOPE   NH312957   4.012   2.749   5.174  0.2261 -0.1371  0.3565
  873YOPE   PO412958   3.621   2.655   5.368 -0.1150 -0.0387 -0.0954
  873YOPE   GL112959   3.670   2.921   5.755  0.2911  0.2489  0.3830
  873YOPE   GL212960   3.607   3.267   5.934 -0.1669 -0.1144 -0.0604
  873YOPE   C1A12961   3.924   2.814   6.140  0.2709  0.0316  0.0412
  873YOPE   D2A12962   4.196   2.743   6.448  0.1449  0.2022  0.1885
  873YOPE   C3A12963   4.201   2.847   6.845 -0.1202  0.0892  0.0627
  873YOPE   C4A12964   3.833   3.029   7.104  0.4078  0.1717  0.0232
  873YOPE   C1B12965   3.626   3.518   6.301 -0.2036 -0.0366  0.0163
  873YOPE   C2B12966   3.873   3.551   6.758 -0.0150  0.0839  0.0472
  873YOPE   D3B12967   4.227   3.365   7.038 -0.1217  0.4806 -0.1242
  873YOPE   C4B12968   4.325   3.032   7.261 -0.2025  0.3566 -0.2521
  874YOPE   NH312969  14.803  13.760   5.017  0.0538  0.1259 -0.1664
  874YOPE   PO412970  14.415  13.693   4.955 -0.4097  0.0937 -0.4027
  874YOPE   GL112971  14.180  13.799   5.239 -0.1726 -0.1049 -0.1901
  874YOPE   GL212972  14.453  14.087   5.313 -0.0728  0.2696 -0.1701
  874YOPE   C1A12973  14.144  13.982   5.719  0.1804 -0.0915  0.0298
  874YOPE   D2A12974  14.082  13.952   6.109 -0.3945  0.1378  0.1706
  874YOPE   C3A12975  13.609  13.865   6.225 -0.1677  0.0210  0.3023
  874YOPE   C4A12976  13.569  13.562   6.556 -0.1222  0.0365 -0.0555
  874YOPE   C1B12977  14.539  14.222   5.767 -0.0031  0.1836  0.2022
  874YOPE   C2B12978  14.725  14.405   6.023  0.1657  0.1185  0.4705
  874YOPE   D3B12979  15.118  14.522   6.184  0.1182 -0.0441 -0.0662
  874YOPE   C4B12980  15.301  14.704   6.566  0.3732 -0.1702 -0.1320
  875YOPE   NH312981   8.407  14.286   5.336  0.3365 -0.1554 -0.1826
  875YOPE   PO412982   8.726  14.437   5.410 -0.2872  0.3510 -0.0134
  875YOPE   GL112983   8.865  14.454   5.780  0.1789 -0.0992  0.0599
  875YOPE   GL212984   9.245  14.585   5.798 -0.1749  0.0602  0.1038
  875YOPE   C1A12985   8.649  14.318   6.176  0.2742 -0.0618 -0.3543
  875YOPE   D2A12986   8.536  13.970   6.486  0.1034 -0.1026  0.3522
  875YOPE   C3A12987   8.895  13.768   6.736  0.1324 -0.0698 -0.0339
  875YOPE   C4A12988   8.972  13.292   6.758  0.2968 -0.0163 -0.1904
  875YOPE   C1B12989   9.573  14.813   5.979 -0.0935 -0.0996 -0.0569
  875YOPE   C2B12990   9.928  14.967   5.980  0.1298 -0.1790  0.0568
  875YOPE   D3B12991  10.098  15.168   5.754  0.1107 -0.0653  0.1007
  875YOPE   C4B12992  10.468  15.298   5.603  0.0060  0.0514 -0.0609
  876YOPE   NH312993   8.852  15.267   4.911 -0.0408  0.1743  0.2564
  876YOPE   PO412994   9.251  15.135   5.064  0.2293 -0.0637  0.2582
  876YOPE   GL112995   9.385  14.856   5.272 -0.3354 -0.0920 -0.1483
  876YOPE   GL212996   9.736  15.044   5.213  0.1221 -0.1084 -0.3139
  876YOPE   C1A12997   9.648  14.512   5.536 -0.1192  0.2541 -0.1931
  876YOPE   D2A12998   9.670  14.160   5.853 -0.0730 -0.2312  0.1937
  876YOPE   C3A12999   9.710  14.314   6.314 -0.1558  0.2391 -0.1073
  876YOPE   C4A13000   9.766  14.739   6.418 -0.2138  0.0949  0.2581
  876YOPE   C1B13001  10.018  14.799   5.421 -0.0689 -0.0154  0.1587
  876YOPE   C2B13002  10.050  14.505   5.867 -0.0004  0.2683 -0.1039
  876YOPE   D3B13003  10.290  14.312   6.296  0.3568 -0.2408 -0.2183
  876YOPE   C4B13004  10.110  14.530   6.690  0.0547 -0.0764  0.0571
  877YOPE   NH313005   0.263   9.420   4.818  0.0990 -0.0053 -0.0654
  877YOPE   PO413006   0.313   9.678   5.172  0.1439 -0.0748 -0.3430
  877YOPE   GL113007   0.520   9.594   5.542 -0.2597 -0.0115 -0.1290
  877YOPE   GL213008   0.566   9.919   5.685  0.1527  0.0181  0.0064
  877YOPE   C1A13009   0.849   9.544   5.963  0.4107  0.0990  0.1472
  877YOPE   D2A13010   1.057   9.670   6.272  0.1245  0.1517  0.2954
  877YOPE   C3A13011   1.392   9.577   6.164  0.3285  0.0406 -0.2375
  877YOPE   C4A13012   1.752   9.605   5.981  0.1209  0.1337 -0.4056
  877YOPE   C1B13013   1.046   9.983   5.735 -0.0114 -0.1307 -0.0535
  877YOPE   C2B13014   1.393  10.043   6.087  0.0324 -0.0899 -0.3237
  877YOPE   D3B13015   1.458  10.032   6.517  0.3764 -0.3702 -0.2259
  877YOPE   C4B13016   1.680   9.713   6.682  0.0577 -0.4202  0.1826
  878YOPE   NH313017   3.458  13.097   5.261 -0.0269 -0.3023 -0.0122
  878YOPE   PO413018   3.119  13.466   5.257 -0.2192 -0.2997 -0.2069
  878YOPE   GL113019   3.206  13.382   5.693 -0.2404 -0.1192  0.2320
  878YOPE   GL213020   3.325  13.563   5.920  0.0068 -0.2338  0.1865
  878YOPE   C1A13021   3.036  13.169   6.008  0.1778 -0.1800 -0.2069
  878YOPE   D2A13022   2.994  13.325   6.338 -0.2993  0.0338  0.3140
  878YOPE   C3A13023   2.836  13.744   6.431 -0.0877 -0.1101  0.0479
  878YOPE   C4A13024   3.041  13.998   6.167  0.4717 -0.0179  0.0230
  878YOPE   C1B13025   3.536  13.268   6.067  0.0555  0.0677 -0.0911
  878YOPE   C2B13026   3.796  13.097   6.330 -0.2635  0.1828  0.0139
  878YOPE   D3B13027   3.694  12.695   6.633  0.0527  0.2276 -0.1213
  878YOPE   C4B13028   3.751  12.448   6.981  0.1330  0.2943  0.0437
  879YOPE   NH313029  16.559   1.010   5.124 -0.0170  0.0732 -0.0616
  879YOPE   PO413030  16.342   0.645   5.213  0.0437 -0.0707 -0.0411
  879YOPE   GL113031  16.070   0.273   5.435  0.3595 -0.0893 -0.0713
  879YOPE   GL213032  16.135   0.144   5.769 -0.1001 -0.0916 -0.6793
  879YOPE   C1A13033  15.739   0.318   5.992  0.0637 -0.3700  0.1937
  879YOPE   D2A13034  15.674   0.669   6.400 -0.1689  0.3356  0.2066
  879YOPE   C3A13035  16.095   0.941   6.450 -0.0164 -0.0371  0.1003
  879YOPE   C4A13036  16.346   1.297   6.321  0.3489  0.0125 -0.0568
  879YOPE   C1B13037  16.133  -0.034   6.123  0.2805  0.2881 -0.0706
  879YOPE   C2B13038  16.242  -0.099   6.506 -0.0662  0.2997 -0.0451
  879YOPE   D3B13039  15.974  -0.205   6.857 -0.0124 -0.1336  0.3668
  879YOPE   C4B13040  15.626  -0.209   7.196 -0.0097 -0.2041 -0.1102
  880YOPE   NH313041  13.295  14.228   4.860 -0.0265  0.1195  0.2110
  880YOPE   PO413042  13.633  14.411   5.103 -0.0592  0.1715 -0.0771
  880YOPE   GL113043  13.340  14.377   5.392 -0.0481 -0.0157 -0.1075
  880YOPE   GL213044  13.061  14.370   5.244  0.1945 -0.0659  0.1524
  880YOPE   C1A13045  13.164  14.558   5.825 -0.1553  0.2833  0.0083
  880YOPE   D2A13046  13.461  14.724   6.160 -0.1887  0.2729  0.2862
  880YOPE   C3A13047  13.508  15.133   6.438 -0.0474 -0.0636 -0.0692
  880YOPE   C4A13048  13.733  15.493   6.491 -0.0241 -0.0882 -0.0152
  880YOPE   C1B13049  12.778  14.109   5.449  0.0022 -0.0599  0.1755
  880YOPE   C2B13050  12.661  13.829   5.792  0.1569  0.0009  0.2134
  880YOPE   D3B13051  12.355  13.539   6.144  0.2751  0.1411 -0.0702
  880YOPE   C4B13052  11.975  13.604   6.371  0.2061  0.0365 -0.0986
  881YOPE   NH313053  13.455   7.932   5.401 -0.0901 -0.1093 -0.3584
  881YOPE   PO413054  13.063   7.982   5.085 -0.0736 -0.1570 -0.2535
  881YOPE   GL113055  12.982   8.292   5.503 -0.1490 -0.0824  0.1525
  881YOPE   GL213056  12.755   8.258   5.644  0.1640  0.0006 -0.2584
  881YOPE   C1A13057  13.131   8.415   5.896 -0.2230  0.2285 -0.1626
  881YOPE   D2A13058  13.212   8.370   6.348 -0.1827  0.0007 -0.0589
  881YOPE   C3A13059  13.162   8.618   6.535  0.0825  0.1046  0.1968
  881YOPE   C4A13060  13.354   8.670   6.910  0.3064  0.5217 -0.0847
  881YOPE   C1B13061  12.707   8.294   6.100  0.0356 -0.2947 -0.0579
  881YOPE   C2B13062  12.671   8.531   6.458  0.1367  0.2886 -0.2007
  881YOPE   D3B13063  12.500   8.803   6.675 -0.1272  0.2334  0.2454
  881YOPE   C4B13064  12.149   8.875   6.622 -0.1266  0.1581 -0.1125
  882YOPE   NH313065  12.891   0.184   5.195  0.1420 -0.1583 -0.1430
  882YOPE   PO413066  12.853   0.659   5.020  0.2816 -0.3327  0.3312
  882YOPE   GL113067  12.548   0.572   5.396  0.1099 -0.0640  0.1029
  882YOPE   GL213068  12.537   0.888   5.524  0.0575 -0.0582  0.1612
  882YOPE   C1A13069  12.337   0.521   5.755  0.3203  0.3419 -0.1057
  882YOPE   D2A13070  12.208   0.521   6.199 -0.1148 -0.1126  0.1405
  882YOPE   C3A13071  12.091   0.278   6.357 -0.0435 -0.1726 -0.1658
  882YOPE   C4A13072  11.791   0.186   6.666  0.6529 -0.1631 -0.0378
  882YOPE   C1B13073  12.938   0.826   5.774  0.1241  0.0021  0.2328
  882YOPE   C2B13074  13.231   1.104   5.973 -0.0697  0.1423  0.1456
  882YOPE   D3B13075  13.516   1.488   6.028  0.2034 -0.2144  0.1824
  882YOPE   C4B13076  13.928   1.512   6.176  0.0904 -0.1118  0.0977
  883YOPE   NH313077  10.629   6.070   5.192 -0.2266 -0.1146  0.2777
  883YOPE   PO413078  10.230   6.389   5.183 -0.0724 -0.0420 -0.0781
  883YOPE   GL113079  10.320   6.275   5.573 -0.2074  0.0877 -0.0228
  883YOPE   GL213080  10.609   6.207   5.763 -0.2502  0.1853  0.1264
  883YOPE   C1A13081  10.258   6.349   5.993  0.1130  0.1627 -0.2018
  883YOPE   D2A13082  10.355   6.441   6.482 -0.1565 -0.1255  0.0869
  883YOPE   C3A13083  10.444   6.244   6.774 -0.0155 -0.0676 -0.0498
  883YOPE   C4A13084  10.511   6.099   7.118  0.2913 -0.2196 -0.1766
  883YOPE   C1B13085  10.676   6.036   6.203  0.2140  0.0283 -0.3132
  883YOPE   C2B13086  10.880   5.987   6.671  0.0782 -0.1693 -0.1214
  883YOPE   D3B13087  10.987   6.003   7.013 -0.0521  0.3503  0.0734
  883YOPE   C4B13088  11.353   5.994   7.245 -0.0987 -0.1721 -0.0831
  884YOPE   NH313089   7.722  19.115   5.736  0.0721 -0.0742 -0.0832
  884YOPE   PO413090   7.923  18.848   5.417  0.0819 -0.1289  0.0134
  884YOPE   GL113091   8.065  18.630   5.727 -0.0733 -0.0066 -0.1729
  884YOPE   GL213092   8.295  18.422   5.769 -0.1640  0.4125  0.0359
  884YOPE   C1A13093   7.954  18.769   6.228  0.0847 -0.0441 -0.0256
  884YOPE   D2A13094   7.793  19.134   6.260  0.1712 -0.1614 -0.1273
  884YOPE   C3A13095   7.881  19.418   6.518 -0.3083  0.0377 -0.3181
  884YOPE   C4A13096   7.981  19.890   6.471  0.3299 -0.0017 -0.0994
  884YOPE   C1B13097   8.119  18.127   5.975  0.1446 -0.0793 -0.0128
  884YOPE   C2B13098   7.919  17.748   6.153  0.2293  0.0481  0.2573
  884YOPE   D3B13099   7.846  17.458   6.466  0.0880  0.0007  0.0248
  884YOPE   C4B13100   7.850  17.345   6.835  0.3825 -0.0623 -0.1169
  885YOPE   NH313101   0.169  15.246   4.694  0.2970  0.1271  0.0750
  885YOPE   PO413102  -0.170  15.338   5.058 -0.1112 -0.4172 -0.0321
  885YOPE   GL113103  -0.142  15.473   5.475  0.3717  0.0612  0.0236
  885YOPE   GL213104  -0.134  15.654   5.627  0.0795  0.0422  0.1143
  885YOPE   C1A13105  -0.460  15.396   5.884  0.1534 -0.1430  0.1951
  885YOPE   D2A13106  -0.971  15.398   5.836  0.1100  0.1948  0.1768
  885YOPE   C3A13107  -1.219  15.736   5.932 -0.0060  0.1440  0.2788
  885YOPE   C4A13108  -1.528  15.969   5.704  0.3783  0.0626 -0.1879
  885YOPE   C1B13109  -0.222  16.005   5.937  0.1939  0.1099 -0.1470
  885YOPE   C2B13110  -0.060  16.270   6.466  0.2913 -0.3434 -0.1202
  885YOPE   D3B13111  -0.155  16.557   6.826 -0.2535  0.1789 -0.1193
  885YOPE   C4B13112   0.032  16.819   7.055  0.0365  0.1631  0.0477
  886YOPE   NH313113  18.677   8.211   5.312 -0.0129 -0.2973 -0.3837
  886YOPE   PO413114  18.940   8.566   5.396 -0.1722 -0.0507  0.4258
  886YOPE   GL113115  18.700   8.511   5.703  0.0540 -0.1616 -0.0712
  886YOPE   GL213116  18.420   8.729   5.733  0.1204  0.4684  0.2394
  886YOPE   C1A13117  18.781   8.646   6.119 -0.2648 -0.0441  0.0086
  886YOPE   D2A13118  19.015   9.113   6.370  0.1637 -0.0794 -0.1082
  886YOPE   C3A13119  19.173   8.903   6.686  0.4902 -0.2528 -0.0459
  886YOPE   C4A13120  19.202   9.061   7.083  0.0433 -0.1059 -0.0426
  886YOPE   C1B13121  18.291   8.731   6.212 -0.1501  0.0872  0.0967
  886YOPE   C2B13122  18.023   8.829   6.667 -0.1461 -0.1508 -0.1632
  886YOPE   D3B13123  17.791   9.029   7.148 -0.2044  0.0816 -0.1416
  886YOPE   C4B13124  17.891   9.037   7.595  0.1312  0.0527 -0.0996
  887YOPE   NH313125  16.718  14.637   4.931 -0.0765  0.0482  0.1344
  887YOPE   PO413126  16.584  14.175   4.919  0.0292 -0.0767  0.0787
  887YOPE   GL113127  16.665  14.381   5.339  0.1187 -0.1115 -0.5874
  887YOPE   GL213128  16.700  14.693   5.451  0.1816  0.5539 -0.1938
  887YOPE   C1A13129  16.742  14.109   5.786 -0.2973  0.1321  0.0105
  887YOPE   D2A13130  16.905  14.159   6.083  0.1054  0.4776  0.0160
  887YOPE   C3A13131  16.898  14.085   6.526 -0.0247 -0.2331  0.2589
  887YOPE   C4A13132  17.043  14.131   6.929 -0.0191 -0.0318  0.2922
  887YOPE   C1B13133  16.826  14.608   5.889 -0.0449  0.1069  0.0701
  887YOPE   C2B13134  16.710  14.968   6.159  0.0957 -0.1600 -0.0989
  887YOPE   D3B13135  16.486  15.078   6.540  0.2207  0.0350 -0.0982
  887YOPE   C4B13136  16.167  15.149   6.769 -0.0951  0.0125  0.2365
  888YOPE   NH313137   7.676   8.606   5.540 -0.0649 -0.0460 -0.1929
  888YOPE   PO413138   7.961   8.853   5.303  0.1182 -0.1875  0.0233
  888YOPE   GL113139   7.929   9.001   5.733  0.1338 -0.3303 -0.0177
  888YOPE   GL213140   8.239   9.104   5.818 -0.4496  0.0669  0.3741
  888YOPE   C1A13141   7.718   9.015   6.163 -0.4099  0.3821 -0.1451
  888YOPE   D2A13142   7.745   8.716   6.496 -0.1346  0.0995 -0.0920
  888YOPE   C3A13143   7.283   8.676   6.825  0.0569 -0.3407 -0.0187
  888YOPE   C4A13144   6.806   8.668   7.033 -0.0305 -0.1815  0.1031
  888YOPE   C1B13145   8.550   9.349   6.071 -0.3249  0.2858  0.0787
  888YOPE   C2B13146   8.807   9.593   6.338 -0.1051 -0.3294  0.5277
  888YOPE   D3B13147   8.839   9.939   6.567 -0.0287 -0.0775 -0.2729
  888YOPE   C4B13148   9.114  10.267   6.549  0.1065 -0.2761 -0.0300
  889YOPE   NH313149  11.048   5.060   5.388  0.0680  0.0267 -0.1592
  889YOPE   PO413150  11.423   5.385   5.274  0.0580  0.0528  0.1543
  889YOPE   GL113151  11.551   5.743   5.530  0.0474 -0.1715 -0.1543
  889YOPE   GL213152  11.954   5.997   5.522  0.1052 -0.2003 -0.1267
  889YOPE   C1A13153  11.468   5.890   5.822  0.0835 -0.2258 -0.1024
  889YOPE   D2A13154  11.373   6.213   6.041  0.0108  0.2986 -0.1507
  889YOPE   C3A13155  11.323   6.243   6.490  0.1084  0.0545  0.1955
  889YOPE   C4A13156  11.320   6.394   6.939  0.0920 -0.0245  0.2446
  889YOPE   C1B13157  11.914   5.907   6.027 -0.2640 -0.0642 -0.0045
  889YOPE   C2B13158  11.754   6.049   6.310  0.0165 -0.0121 -0.0890
  889YOPE   D3B13159  12.009   6.165   6.739  0.4773 -0.0036 -0.2131
  889YOPE   C4B13160  12.386   6.050   6.999  0.0443 -0.0015  0.0709
  890YOPE   NH313161  18.296   2.420   5.721  0.1471  0.0379  0.1178
  890YOPE   PO413162  18.573   2.579   5.996 -0.0017 -0.1982  0.0930
  890YOPE   GL113163  18.675   2.344   6.322 -0.3374  0.2308 -0.3131
  890YOPE   GL213164  18.887   2.178   6.153  0.1545 -0.1352 -0.0094
  890YOPE   C1A13165  18.639   2.164   6.671  0.0886  0.0689  0.2291
  890YOPE   D2A13166  18.754   1.898   6.912  0.3349 -0.1383  0.2342
  890YOPE   C3A13167  18.565   1.786   7.187  0.2084 -0.3601 -0.0944
  890YOPE   C4A13168  18.417   1.997   7.483  0.3546  0.3214 -0.3064
  890YOPE   C1B13169  18.967   1.832   6.363 -0.2362 -0.0605 -0.0162
  890YOPE   C2B13170  18.946   1.534   6.580 -0.0414 -0.0135 -0.1495
  890YOPE   D3B13171  18.866   1.180   6.885  0.0161  0.1880 -0.3231
  890YOPE   C4B13172  18.815   0.894   7.237  0.0958 -0.3201  0.0914
  891YOPE   NH313173   8.420  11.649   4.865 -0.0590  0.0268 -0.0729
  891YOPE   PO413174   8.319  11.234   4.773 -0.1706 -0.0849 -0.2048
  891YOPE   GL113175   8.562  11.177   5.220 -0.0136 -0.2960  0.1579
  891YOPE   GL213176   8.551  11.455   5.301 -0.4019 -0.2163  0.0866
  891YOPE   C1A13177   8.976  11.256   5.404 -0.0112  0.1099  0.3077
  891YOPE   D2A13178   9.261  11.161   5.780 -0.1867 -0.1112  0.0037
  891YOPE   C3A13179   9.169  10.790   6.038 -0.0890 -0.2153  0.3102
  891YOPE   C4A13180   8.909  10.509   6.121 -0.0831  0.0357  0.0178
  891YOPE   C1B13181   8.176  11.424   5.613  0.2025  0.1627 -0.0236
  891YOPE   C2B13182   7.800  11.316   5.974 -0.0298 -0.2321  0.0638
  891YOPE   D3B13183   7.787  11.260   6.382 -0.1366  0.2794  0.0465
  891YOPE   C4B13184   8.043  11.420   6.756  0.3465  0.0764 -0.0531
  892YOPE   NH313185   8.692  13.439   5.027  0.0563  0.1730  0.1647
  892YOPE   PO413186   8.244  13.430   4.916  0.4083  0.0070  0.1107
  892YOPE   GL113187   8.128  13.277   5.253  0.0484 -0.2871  0.0972
  892YOPE   GL213188   8.375  13.229   5.462  0.1679 -0.0323  0.2052
  892YOPE   C1A13189   7.998  13.497   5.564  0.4051  0.5337 -0.0766
  892YOPE   D2A13190   8.171  13.779   5.896 -0.1312  0.1176  0.2256
  892YOPE   C3A13191   8.074  13.569   6.341 -0.1764 -0.0636 -0.1994
  892YOPE   C4A13192   8.016  13.208   6.666 -0.3301 -0.3878 -0.2676
  892YOPE   C1B13193   8.215  12.924   5.752 -0.0472  0.5138 -0.0640
  892YOPE   C2B13194   8.334  12.527   5.867  0.0849  0.1153  0.1205
  892YOPE   D3B13195   8.325  12.359   6.250  0.1541  0.0451 -0.3903
  892YOPE   C4B13196   8.274  12.135   6.607  0.3238 -0.0157 -0.2923
  893YOPE   NH313197   5.289   8.782   5.680 -0.0801 -0.0442  0.5019
  893YOPE   PO413198   4.979   9.057   5.687  0.1956 -0.1360 -0.0839
  893YOPE   GL113199   4.943   9.010   6.120 -0.1162 -0.0367 -0.1659
  893YOPE   GL213200   4.654   8.972   6.152 -0.2845  0.1466 -0.1872
  893YOPE   C1A13201   4.870   9.194   6.503 -0.3078 -0.1960  0.0616
  893YOPE   D2A13202   5.005   9.531   6.871 -0.1637 -0.1745 -0.0395
  893YOPE   C3A13203   5.382   9.319   7.200 -0.1914  0.2191 -0.1513
  893YOPE   C4A13204   5.339   9.300   7.635  0.2395 -0.1732  0.0961
  893YOPE   C1B13205   4.705   8.662   6.455  0.2755  0.0222  0.1890
  893YOPE   C2B13206   4.619   8.689   6.816 -0.0102  0.1127  0.2108
  893YOPE   D3B13207   4.733   8.346   7.052 -0.1430 -0.0812 -0.0923
  893YOPE   C4B13208   4.453   7.962   7.221 -0.0624  0.0691  0.0805
  894YOPE   NH313209   7.116  17.807   4.950  0.2372 -0.2178  0.0323
  894YOPE   PO413210   6.865  17.382   4.940  0.0698  0.2796 -0.1245
  894YOPE   GL113211   6.786  17.261   5.307 -0.1555  0.1112  0.0956
  894YOPE   GL213212   6.825  17.547   5.414 -0.2147 -0.0327  0.2457
  894YOPE   C1A13213   7.132  17.119   5.527  0.2403  0.2404 -0.1650
  894YOPE   D2A13214   7.384  17.024   5.796  0.2663  0.0597  0.1472
  894YOPE   C3A13215   7.494  17.114   6.204 -0.0729  0.1570 -0.1756
  894YOPE   C4A13216   7.178  17.068   6.648 -0.0245  0.0912 -0.2334
  894YOPE   C1B13217   6.671  17.612   5.927 -0.0362 -0.1326  0.1465
  894YOPE   C2B13218   6.456  17.796   6.269  0.0702  0.1566  0.0762
  894YOPE   D3B13219   6.311  17.791   6.716  0.0127  0.2301  0.0394
  894YOPE   C4B13220   6.392  17.925   7.109  0.1289  0.5415 -0.4238
  895YOPE   NH313221  13.400   2.941   5.420  0.0131 -0.2456  0.4870
  895YOPE   PO413222  13.797   2.940   5.234 -0.2727  0.0541  0.0582
  895YOPE   GL113223  14.030   3.187   5.544 -0.0243  0.0776  0.1644
  895YOPE   GL213224  14.350   2.972   5.550 -0.1309  0.1630 -0.3573
  895YOPE   C1A13225  14.286   3.328   5.862 -0.1096 -0.0463  0.1695
  895YOPE   D2A13226  14.687   3.560   6.148  0.3967 -0.2386 -0.1164
  895YOPE   C3A13227  15.015   3.764   6.386  0.0294 -0.2525 -0.0570
  895YOPE   C4A13228  15.338   4.006   6.581 -0.2105  0.1446 -0.0604
  895YOPE   C1B13229  14.280   2.846   5.902  0.2144 -0.1047 -0.0278
  895YOPE   C2B13230  14.018   2.458   6.020 -0.1944 -0.3255 -0.0090
  895YOPE   D3B13231  13.722   2.524   6.203 -0.0548 -0.4094  0.0924
  895YOPE   C4B13232  13.317   2.544   6.323 -0.1757 -0.1526  0.0615
  896YOPE   NH313233  18.324  11.736   5.248 -0.1951 -0.1197  0.0380
  896YOPE   PO413234  18.285  11.312   5.505 -0.1627 -0.4607 -0.0859
  896YOPE   GL113235  18.505  11.194   5.811 -0.0334 -0.2288 -0.0666
  896YOPE   GL213236  18.286  11.137   5.984  0.0201  0.0779  0.0617
  896YOPE   C1A13237  18.819  10.924   5.988  0.1939  0.0701 -0.2003
  896YOPE   D2A13238  19.202  10.941   6.168  0.1678  0.1727  0.0193
  896YOPE   C3A13239  19.296  11.384   6.307 -0.1453 -0.0264  0.3258
  896YOPE   C4A13240  19.244  11.746   6.525  0.0171  0.0297  0.2222
  896YOPE   C1B13241  18.285  10.710   6.219  0.0449 -0.0696 -0.3514
  896YOPE   C2B13242  18.089  10.284   6.167 -0.0637  0.0703  0.1373
  896YOPE   D3B13243  17.759  10.048   6.234 -0.1354 -0.2612  0.0291
  896YOPE   C4B13244  17.620   9.574   6.342  0.0268  0.0461  0.1946
  897YOPE   NH313245   4.496  18.307   5.213  0.2292 -0.0828 -0.1669
  897YOPE   PO413246   4.130  18.505   5.285 -0.0851 -0.0170 -0.0548
  897YOPE   GL113247   4.096  18.158   5.604  0.1219 -0.0144  0.0157
  897YOPE   GL213248   3.787  18.199   5.955  0.3959  0.0088  0.0192
  897YOPE   C1A13249   4.208  17.961   5.992  0.1256  0.1509  0.0630
  897YOPE   D2A13250   4.130  17.736   6.377  0.0956  0.1598 -0.1578
  897YOPE   C3A13251   3.812  17.342   6.432 -0.4103  0.2486 -0.0455
  897YOPE   C4A13252   3.615  16.895   6.466 -0.0144 -0.0431  0.0014
  897YOPE   C1B13253   3.932  18.242   6.297  0.1069 -0.0022 -0.0299
  897YOPE   C2B13254   3.758  17.970   6.704 -0.2231 -0.2902  0.3209
  897YOPE   D3B13255   3.846  17.568   6.879 -0.0411  0.4688  0.3099
  897YOPE   C4B13256   4.057  17.219   6.897  0.0895 -0.0747  0.1814
  898YOPE   NH313257   8.252   3.883   5.375 -0.0655  0.1870 -0.0552
  898YOPE   PO413258   8.010   3.542   5.525  0.6329  0.4118  0.0311
  898YOPE   GL113259   8.219   3.599   5.802 -0.0318  0.1815  0.4529
  898YOPE   GL213260   8.373   3.291   5.775 -0.0356  0.1959  0.0798
  898YOPE   C1A13261   8.492   3.701   6.100 -0.0240 -0.2003  0.2784
  898YOPE   D2A13262   8.796   3.543   6.371 -0.4113 -0.0981 -0.2654
  898YOPE   C3A13263   8.685   3.403   6.837 -0.0956 -0.2571  0.1755
  898YOPE   C4A13264   8.588   3.078   7.211  0.1196  0.2537 -0.1626
  898YOPE   C1B13265   8.607   3.151   6.179 -0.2215 -0.1201 -0.1219
  898YOPE   C2B13266   8.876   2.867   6.416  0.0386 -0.3894  0.0934
  898YOPE   D3B13267   9.037   2.554   6.141 -0.2447  0.2673 -0.1358
  898YOPE   C4B13268   9.237   2.103   6.059  0.0230 -0.2791  0.1673
  899YOPE   NH313269   6.081  13.431   5.424 -0.4193 -0.0419  0.0777
  899YOPE   PO413270   5.627  13.661   5.277 -0.4897  0.0816 -0.1000
  899YOPE   GL113271   5.836  13.827   5.757 -0.1210  0.2239  0.0751
  899YOPE   GL213272   6.225  13.767   5.797 -0.1872  0.2750  0.2037
  899YOPE   C1A13273   5.975  14.109   6.074 -0.0619 -0.2187 -0.1965
  899YOPE   D2A13274   6.005  14.269   6.453  0.1854 -0.0267 -0.0603
  899YOPE   C3A13275   5.743  14.325   6.792  0.0807 -0.0618  0.0553
  899YOPE   C4A13276   5.546  14.382   7.156  0.1379  0.0690 -0.0744
  899YOPE   C1B13277   6.242  13.749   6.245 -0.2999  0.0163 -0.3190
  899YOPE   C2B13278   6.277  13.618   6.644 -0.1615 -0.1505 -0.1461
  899YOPE   D3B13279   6.127  13.374   7.060  0.1163  0.2477  0.1581
  899YOPE   C4B13280   6.304  13.116   7.311  0.0304 -0.2723 -0.1273
  900YOPE   NH313281  17.169   6.850   5.495 -0.2032 -0.3039 -0.0885
  900YOPE   PO413282  17.021   6.599   5.269  0.1499 -0.3984  0.2143
  900YOPE   GL113283  16.800   6.591   5.664 -0.1246 -0.1545  0.1289
  900YOPE   GL213284  16.886   6.790   5.897 -0.1976  0.0198 -0.2125
  900YOPE   C1A13285  16.557   6.480   6.139  0.2440  0.0380  0.1480
  900YOPE   D2A13286  16.617   6.293   6.521 -0.3471 -0.1741 -0.2345
  900YOPE   C3A13287  16.908   6.040   6.787  0.1336  0.0583 -0.0767
  900YOPE   C4A13288  16.755   5.881   7.236  0.0280  0.5707 -0.1219
  900YOPE   C1B13289  17.054   6.759   6.316 -0.0901  0.1811 -0.1135
  900YOPE   C2B13290  17.026   6.497   6.699  0.0636  0.4272  0.2808
  900YOPE   D3B13291  17.087   6.579   7.145  0.1938 -0.0622  0.0751
  900YOPE   C4B13292  16.930   6.335   7.448 -0.1178 -0.1545 -0.1145
  901YOPE   NH313293  16.989   1.612   5.641  0.0398  0.0005  0.1150
  901YOPE   PO413294  16.957   1.247   5.495  0.0618  0.2900  0.3440
  901YOPE   GL113295  17.141   1.182   5.955  0.2644 -0.4920 -0.0648
  901YOPE   GL213296  17.350   0.937   6.119 -0.0110 -0.1627  0.2721
  901YOPE   C1A13297  16.894   1.353   6.344 -0.0490  0.0020 -0.2388
  901YOPE   D2A13298  16.551   1.625   6.637  0.0528 -0.2353 -0.0673
  901YOPE   C3A13299  16.275   1.342   6.882  0.0640  0.1295  0.2597
  901YOPE   C4A13300  16.238   1.044   7.186  0.0268  0.2633  0.0974
  901YOPE   C1B13301  17.257   0.923   6.594 -0.0224 -0.1622 -0.3971
  901YOPE   C2B13302  17.345   0.808   6.944  0.0638  0.4058  0.1976
  901YOPE   D3B13303  17.190   0.547   7.376 -0.2627 -0.0338  0.0134
  901YOPE   C4B13304  17.115   0.335   7.748  0.1100  0.1628 -0.3569
  902YOPE   NH313305   0.048  12.183   5.135  0.1574  0.1556 -0.0903
  902YOPE   PO413306   0.479  12.342   5.235 -0.1252 -0.1044 -0.0267
  902YOPE   GL113307   0.956  12.342   5.280 -0.0997 -0.0631 -0.1394
  902YOPE   GL213308   0.974  12.687   5.340  0.0340  0.0722 -0.1097
  902YOPE   C1A13309   1.006  12.043   5.592  0.1189  0.0884  0.2075
  902YOPE   D2A13310   0.997  11.842   6.030 -0.0138  0.1926 -0.2890
  902YOPE   C3A13311   0.996  11.790   6.472  0.0807 -0.2077 -0.0240
  902YOPE   C4A13312   1.206  11.535   6.733  0.1461  0.3383 -0.1191
  902YOPE   C1B13313   0.715  12.971   5.781 -0.1531  0.1696 -0.3173
  902YOPE   C2B13314   0.550  12.876   6.162 -0.0644  0.1946  0.1573
  902YOPE   D3B13315   0.636  12.817   6.543  0.0532  0.2263 -0.0144
  902YOPE   C4B13316   0.428  12.984   6.856  0.3097 -0.1791  0.0389
  903YOPE   NH313317   6.044   3.380   5.609  0.1536  0.0378 -0.3831
  903YOPE   PO413318   6.077   3.695   5.294  0.1003  0.0429  0.2243
  903YOPE   GL113319   6.120   3.854   5.681 -0.2977  0.1582  0.1913
  903YOPE   GL213320   5.928   3.800   5.886  0.1570 -0.1187 -0.0926
  903YOPE   C1A13321   5.953   4.252   5.695 -0.0809  0.4178 -0.2134
  903YOPE   D2A13322   6.213   4.498   5.981  0.2091 -0.0525  0.0165
  903YOPE   C3A13323   6.084   4.491   6.502 -0.0189 -0.0131  0.1727
  903YOPE   C4A13324   5.957   4.144   6.752 -0.0082 -0.0285  0.1227
  903YOPE   C1B13325   5.946   3.668   6.355 -0.0669  0.3575  0.1792
  903YOPE   C2B13326   6.312   3.500   6.616 -0.1947 -0.2929  0.0956
  903YOPE   D3B13327   6.510   3.254   6.878 -0.0421 -0.2139  0.2246
  903YOPE   C4B13328   6.752   2.900   7.074  0.0097 -0.0632 -0.0870
  904YOPE   NH313329   6.884  18.830   5.282  0.3004 -0.1934  0.0105
  904YOPE   PO413330   6.500  18.808   5.506 -0.0701  0.0024 -0.1407
  904YOPE   GL113331   6.441  18.691   5.931 -0.0433 -0.3362 -0.1594
  904YOPE   GL213332   6.131  18.789   5.953 -0.2941  0.0934  0.0237
  904YOPE   C1A13333   6.708  18.841   6.229 -0.1304  0.1872  0.0356
  904YOPE   D2A13334   6.822  18.815   6.628  0.0881 -0.0092  0.0660
  904YOPE   C3A13335   6.963  19.027   7.017  0.2736  0.0315 -0.0781
  904YOPE   C4A13336   7.328  19.038   7.228 -0.0910 -0.1212  0.0608
  904YOPE   C1B13337   5.962  18.708   6.247  0.2450  0.1812  0.2162
  904YOPE   C2B13338   5.506  18.656   6.415 -0.3173 -0.2454  0.3826
  904YOPE   D3B13339   5.270  18.659   6.651  0.0795 -0.1021 -0.2933
  904YOPE   C4B13340   4.919  18.923   6.437  0.2969  0.2307  0.0763
  905YOPE   NH313341   0.570   8.882   5.521  0.2109  0.2502 -0.1072
  905YOPE   PO413342   0.355   8.494   5.617  0.0703 -0.1933 -0.1108
  905YOPE   GL113343   0.538   8.755   5.990  0.0550  0.0020 -0.2215
  905YOPE   GL213344   0.628   9.091   5.952  0.2556 -0.1434  0.0802
  905YOPE   C1A13345   0.563   8.820   6.546  0.2874  0.2966 -0.3233
  905YOPE   D2A13346   0.710   8.877   6.996  0.1430 -0.0127  0.1422
  905YOPE   C3A13347   0.610   8.508   7.411  0.1802 -0.1031  0.0625
  905YOPE   C4A13348   0.948   8.258   7.723 -0.1500  0.1165  0.1018
  905YOPE   C1B13349   0.543   9.257   6.302  0.2958  0.3409 -0.1795
  905YOPE   C2B13350   0.386   9.317   6.797  0.1084 -0.3224 -0.0404
  905YOPE   D3B13351   0.373   9.208   7.244 -0.0514 -0.3441 -0.1357
  905YOPE   C4B13352   0.299   9.031   7.613  0.0957 -0.1534 -0.0288
  906YOPE   NH313353   0.026  17.657   5.100 -0.0504 -0.0266 -0.0350
  906YOPE   PO413354   0.259  17.933   5.507  0.0019 -0.1525 -0.1296
  906YOPE   GL113355  -0.001  17.969   5.840  0.1623  0.0306  0.1383
  906YOPE   GL213356  -0.045  18.150   6.061 -0.0210 -0.2832 -0.1945
  906YOPE   C1A13357  -0.160  17.654   6.105 -0.0863  0.2202  0.1848
  906YOPE   D2A13358  -0.135  17.566   6.514  0.2128  0.0119 -0.2302
  906YOPE   C3A13359  -0.488  17.323   6.616  0.0402  0.3235 -0.0430
  906YOPE   C4A13360  -0.346  17.063   6.919 -0.0316 -0.2110 -0.0803
  906YOPE   C1B13361  -0.116  18.137   6.523  0.1082  0.4749 -0.2434
  906YOPE   C2B13362   0.031  18.202   6.955 -0.2377  0.0883  0.2004
  906YOPE   D3B13363   0.093  18.509   7.200  0.0389 -0.0035 -0.1022
  906YOPE   C4B13364   0.302  18.719   7.430  0.4266 -0.0816  0.2396
  907YOPE   NH313365  10.739  18.916   5.194 -0.1010  0.1959  0.3597
  907YOPE   PO413366  10.468  19.197   5.054  0.1792  0.2675  0.4095
  907YOPE   GL113367  10.393  19.213   5.422  0.1133 -0.1257 -0.2047
  907YOPE   GL213368  10.420  18.872   5.610  0.3740  0.0790  0.0117
  907YOPE   C1A13369  10.707  19.285   5.805 -0.2259 -0.1636 -0.2328
  907YOPE   D2A13370  10.714  19.429   6.140  0.0831 -0.1826 -0.0665
  907YOPE   C3A13371  10.998  19.574   6.303 -0.1114 -0.0469 -0.1217
  907YOPE   C4A13372  11.246  19.731   6.641  0.2223 -0.0959  0.2873
  907YOPE   C1B13373  10.156  18.656   5.981  0.0545  0.0785  0.2693
  907YOPE   C2B13374  10.450  18.420   6.328  0.0526 -0.2662  0.0277
  907YOPE   D3B13375  10.614  18.212   6.640 -0.1870  0.1867 -0.1641
  907YOPE   C4B13376  10.525  17.878   6.896  0.0557  0.0090 -0.2448
  908YOPE   NH313377  11.251  18.255   4.905 -0.2203  0.4617  0.1923
  908YOPE   PO413378  11.088  18.659   5.016 -0.0718  0.0238  0.0159
  908YOPE   GL113379  10.975  18.486   5.342  0.1404  0.1588  0.0043
  908YOPE   GL213380  10.894  18.719   5.598  0.0930 -0.0121  0.0163
  908YOPE   C1A13381  10.878  18.001   5.540  0.1406 -0.0118 -0.3763
  908YOPE   D2A13382  11.007  17.717   5.836  0.2573  0.2321 -0.2844
  908YOPE   C3A13383  10.765  17.451   5.823  0.0164 -0.3370  0.0225
  908YOPE   C4A13384  10.340  17.321   5.705 -0.0696 -0.0629  0.2468
  908YOPE   C1B13385  10.880  18.422   5.922 -0.3576 -0.0441  0.2757
  908YOPE   C2B13386  10.709  18.089   6.047 -0.0697 -0.0473 -0.4165
  908YOPE   D3B13387  10.752  17.742   6.393  0.0896  0.0497  0.2057
  908YOPE   C4B13388  10.866  17.508   6.782  0.0816 -0.1575  0.0050
  909YOPE   NH313389   6.507  11.339   4.809 -0.2856  0.2162 -0.0799
  909YOPE   PO413390   6.967  11.345   4.958  0.2811  0.1114 -0.1158
  909YOPE   GL113391   7.157  11.589   5.373  0.3540  0.0257  0.2288
  909YOPE   GL213392   7.194  12.012   5.317 -0.4470 -0.1489 -0.0436
  909YOPE   C1A13393   7.040  11.620   5.786  0.0716 -0.0248  0.2037
  909YOPE   D2A13394   6.776  11.781   6.202 -0.2502  0.0026 -0.1404
  909YOPE   C3A13395   6.842  11.392   6.536 -0.5031  0.1363  0.0648
  909YOPE   C4A13396   7.103  11.470   6.890 -0.2923  0.1219 -0.0103
  909YOPE   C1B13397   7.060  12.100   5.796  0.2210  0.1304 -0.2434
  909YOPE   C2B13398   6.957  12.251   6.240  0.2001 -0.2593  0.0409
  909YOPE   D3B13399   6.657  12.179   6.385  0.2714  0.4112 -0.1671
  909YOPE   C4B13400   6.341  12.419   6.646  0.0898  0.0685  0.0285
  910YOPE   NH313401   1.358   3.358   5.987 -0.2790  0.0369 -0.3810
  910YOPE   PO413402   0.954   3.135   6.009  0.0728  0.3771  0.1605
  910YOPE   GL113403   1.200   2.972   6.380 -0.0824 -0.0842 -0.0454
  910YOPE   GL213404   1.390   3.166   6.519 -0.3149  0.1335 -0.1277
  910YOPE   C1A13405   1.247   2.790   6.821 -0.0926  0.1261  0.0915
  910YOPE   D2A13406   1.391   2.595   7.220 -0.1776  0.0220  0.0153
  910YOPE   C3A13407   1.600   2.835   7.536  0.2699  0.1374 -0.3086
  910YOPE   C4A13408   1.887   2.809   7.882 -0.0266 -0.0310 -0.0238
  910YOPE   C1B13409   1.452   3.577   6.750 -0.3391 -0.1143  0.2417
  910YOPE   C2B13410   1.668   3.690   7.142 -0.0970  0.2210 -0.0305
  910YOPE   D3B13411   1.676   3.805   7.526  0.0666 -0.0745 -0.0913
  910YOPE   C4B13412   1.496   4.000   7.863 -0.2088  0.1522 -0.1274
  911YOPE   NH313413  17.595   7.641   5.610  0.0763  0.3113  0.2239
  911YOPE   PO413414  17.200   7.368   5.426  0.0180 -0.2786 -0.3020
  911YOPE   GL113415  17.104   7.654   5.866  0.2473 -0.0104 -0.0942
  911YOPE   GL213416  16.916   7.886   5.780  0.1875 -0.1655 -0.3277
  911YOPE   C1A13417  16.970   7.439   6.266 -0.2876  0.2896 -0.0063
  911YOPE   D2A13418  17.015   7.212   6.650  0.1365  0.0754 -0.1234
  911YOPE   C3A13419  16.904   7.303   7.063  0.2670 -0.2176  0.3320
  911YOPE   C4A13420  16.516   7.603   7.130 -0.1262 -0.3632  0.3067
  911YOPE   C1B13421  17.174   7.983   6.203  0.1005  0.0502  0.1403
  911YOPE   C2B13422  17.239   8.136   6.599 -0.0740  0.1464 -0.0715
  911YOPE   D3B13423  17.440   8.084   6.998  0.0306 -0.2047  0.2102
  911YOPE   C4B13424  17.574   8.273   7.474 -0.3837  0.0244  0.1423
  912YOPE   NH313425  13.516   5.029   5.548 -0.2909  0.0645 -0.1697
  912YOPE   PO413426  13.748   4.505   5.675  0.2722  0.1507  0.0643
  912YOPE   GL113427  13.840   4.734   6.053 -0.1147  0.2139  0.0362
  912YOPE   GL213428  13.997   4.905   5.935 -0.1790  0.0134  0.1489
  912YOPE   C1A13429  13.787   4.648   6.478 -0.0376  0.1656  0.1223
  912YOPE   D2A13430  13.592   4.384   6.825  0.2272  0.0859  0.1847
  912YOPE   C3A13431  13.158   4.261   6.751  0.1899 -0.1085  0.1144
  912YOPE   C4A13432  13.031   3.840   6.917  0.2119  0.1138 -0.0118
  912YOPE   C1B13433  14.340   4.917   6.220  0.0087 -0.1445 -0.1445
  912YOPE   C2B13434  14.582   5.095   6.484  0.0472  0.0584 -0.1101
  912YOPE   D3B13435  14.905   5.387   6.588  0.1411  0.1533  0.1680
  912YOPE   C4B13436  15.144   5.260   6.885  0.3360  0.0353  0.3114
  913YOPE   NH313437   0.353  16.236   5.319 -0.1013 -0.1558 -0.0600
  913YOPE   PO413438   0.231  15.931   5.385 -0.0688  0.0065  0.1184
  913YOPE   GL113439   0.574  16.005   5.702  0.1076 -0.1152  0.0419
  913YOPE   GL213440   0.367  16.248   5.894 -0.1954  0.2922  0.2484
  913YOPE   C1A13441   0.811  15.825   6.082 -0.0922  0.0279 -0.3612
  913YOPE   D2A13442   0.958  15.623   6.509 -0.1328  0.4700  0.3227
  913YOPE   C3A13443   1.268  15.883   6.573 -0.0465  0.1642 -0.2874
  913YOPE   C4A13444   1.669  15.948   6.709 -0.0064  0.1260  0.2826
  913YOPE   C1B13445   0.259  16.585   6.173 -0.4154 -0.0427 -0.0605
  913YOPE   C2B13446   0.173  16.771   6.420 -0.1541 -0.1892  0.1591
  913YOPE   D3B13447   0.460  16.840   6.712  0.1518  0.1655 -0.0672
  913YOPE   C4B13448   0.625  16.889   7.174 -0.4368  0.0071  0.1703
  914YOPE   NH313449  14.559   9.883   4.861  0.1299 -0.1846 -0.2708
  914YOPE   PO413450  14.291   9.632   5.036 -0.3492  0.1248  0.0579
  914YOPE   GL113451  14.184   9.659   5.545 -0.1938 -0.0533  0.1424
  914YOPE   GL213452  14.294   9.466   5.752  0.1322 -0.2168  0.0365
  914YOPE   C1A13453  14.261   9.943   5.937  0.1609 -0.0516 -0.2140
  914YOPE   D2A13454  14.454   9.859   6.377  0.1975  0.2282  0.0199
  914YOPE   C3A13455  14.176   9.995   6.715 -0.0829 -0.1142  0.0441
  914YOPE   C4A13456  14.178  10.355   6.989 -0.1597 -0.2783  0.2294
  914YOPE   C1B13457  13.956   9.569   6.008  0.0791 -0.0473  0.0863
  914YOPE   C2B13458  13.971   9.564   6.494 -0.0518  0.2189 -0.0428
  914YOPE   D3B13459  13.881   9.523   6.965  0.0441  0.3164  0.0701
  914YOPE   C4B13460  14.175   9.304   7.177  0.1876 -0.0894  0.1528
  915YOPE   NH313461   0.797  15.644   5.406  0.5355  0.0048 -0.0673
  915YOPE   PO413462   1.156  15.440   5.318 -0.0203 -0.2351 -0.0916
  915YOPE   GL113463   1.172  15.516   5.783 -0.0651 -0.0135  0.0774
  915YOPE   GL213464   1.392  15.648   5.859 -0.2919 -0.1616 -0.1670
  915YOPE   C1A13465   1.059  15.258   6.156  0.1335  0.2042 -0.3581
  915YOPE   D2A13466   0.922  15.183   6.663  0.0869 -0.0868 -0.2084
  915YOPE   C3A13467   1.145  15.319   6.973  0.2429 -0.1054  0.0621
  915YOPE   C4A13468   1.075  15.605   7.245 -0.2846  0.2583 -0.1323
  915YOPE   C1B13469   1.449  15.531   6.258 -0.0673  0.2650  0.0763
  915YOPE   C2B13470   1.543  15.448   6.675  0.0011  0.1196 -0.3107
  915YOPE   D3B13471   1.587  15.556   7.049  0.1678  0.0203 -0.0231
  915YOPE   C4B13472   1.579  15.467   7.502 -0.0770 -0.0433  0.0629
  916YOPE   NH313473   1.870  19.260   5.572 -0.1384  0.0401 -0.3021
  916YOPE   PO413474   2.082  19.068   5.999  0.1776 -0.2268  0.2247
  916YOPE   GL113475   1.796  19.032   6.389 -0.0210 -0.2475  0.0954
  916YOPE   GL213476   1.279  18.964   6.396 -0.2387 -0.1167 -0.0503
  916YOPE   C1A13477   1.548  19.360   6.533  0.3235 -0.1856 -0.0627
  916YOPE   D2A13478   1.336  19.618   6.834 -0.1021  0.2797  0.0547
  916YOPE   C3A13479   1.415  19.751   7.172  0.1115  0.3147  0.2751
  916YOPE   C4A13480   1.227  19.760   7.619  0.1540  0.1695  0.3046
  916YOPE   C1B13481   1.266  19.075   6.834 -0.0169 -0.0774 -0.2608
  916YOPE   C2B13482   1.188  18.979   7.265 -0.2298  0.1152  0.2511
  916YOPE   D3B13483   0.968  19.229   7.612 -0.1500 -0.1311  0.1199
  916YOPE   C4B13484   0.714  18.853   7.717  0.0109 -0.2256 -0.1614
  917YOPE   NH313485  14.497   4.745   5.510  0.0966  0.2367 -0.1118
  917YOPE   PO413486  14.709   4.436   5.393 -0.0510  0.1440  0.0007
  917YOPE   GL113487  15.011   4.720   5.592  0.2518  0.0615  0.2554
  917YOPE   GL213488  15.136   4.491   5.571 -0.0020  0.0869 -0.0578
  917YOPE   C1A13489  15.246   4.903   5.910 -0.4039  0.0220 -0.0878
  917YOPE   D2A13490  15.572   5.140   6.135 -0.1609  0.1839 -0.0410
  917YOPE   C3A13491  15.690   5.100   6.544  0.0788  0.3359 -0.0115
  917YOPE   C4A13492  16.106   4.977   6.778  0.1814  0.2113 -0.2309
  917YOPE   C1B13493  15.552   4.495   5.687 -0.2188  0.0427  0.1359
  917YOPE   C2B13494  15.810   4.318   5.887  0.0176  0.3153  0.1512
  917YOPE   D3B13495  16.135   4.267   6.211 -0.0281 -0.1403  0.2201
  917YOPE   C4B13496  16.542   4.345   6.464  0.1980  0.0407  0.1964
  918YOPE   NH313497  15.299  18.674   4.995  0.0550 -0.0334 -0.1124
  918YOPE   PO413498  15.013  18.426   4.850  0.2602  0.0212 -0.4704
  918YOPE   GL113499  14.856  18.142   5.193 -0.2147  0.0839 -0.0447
  918YOPE   GL213500  14.580  18.379   5.309  0.2156 -0.2390 -0.0032
  918YOPE   C1A13501  14.984  17.682   5.370 -0.1091  0.0295  0.1795
  918YOPE   D2A13502  14.752  17.311   5.515  0.0171  0.1552  0.0067
  918YOPE   C3A13503  14.605  17.185   5.908 -0.0761  0.0686  0.2043
  918YOPE   C4A13504  14.471  16.956   6.252  0.1343 -0.2393 -0.0352
  918YOPE   C1B13505  14.630  18.383   5.757  0.2253  0.0146 -0.0562
  918YOPE   C2B13506  14.656  18.118   6.073 -0.1319 -0.1528  0.2971
  918YOPE   D3B13507  15.027  17.935   6.282 -0.2213 -0.1308  0.1362
  918YOPE   C4B13508  15.032  17.782   6.709 -0.0335  0.0865  0.2060
  919YOPE   NH313509  17.530  10.736   5.362  0.3907 -0.1784 -0.1421
  919YOPE   PO413510  17.879  10.987   5.448  0.1695  0.1302  0.2193
  919YOPE   GL113511  17.814  10.985   5.887 -0.0158 -0.0573 -0.1940
  919YOPE   GL213512  17.639  11.243   5.974  0.0957  0.0843  0.4250
  919YOPE   C1A13513  17.783  10.737   6.302 -0.2364  0.1008 -0.2294
  919YOPE   D2A13514  17.885  10.779   6.727  0.2986  0.0547 -0.3015
  919YOPE   C3A13515  18.048  10.861   7.108 -0.1040  0.0785  0.1883
  919YOPE   C4A13516  18.137  11.134   7.471  0.1966 -0.0185 -0.2534
  919YOPE   C1B13517  17.707  11.213   6.514  0.0797 -0.2763  0.4410
  919YOPE   C2B13518  18.155  11.155   6.455 -0.0572  0.3722  0.2650
  919YOPE   D3B13519  18.550  11.203   6.730 -0.0837 -0.0987  0.3723
  919YOPE   C4B13520  18.961  11.379   6.804 -0.1147  0.1165  0.1757
  920YOPE   NH313521  19.422   9.772   5.527 -0.1532  0.0902  0.0240
  920YOPE   PO413522  19.111   9.469   5.463  0.0986  0.1992  0.0607
  920YOPE   GL113523  18.815   9.515   5.776  0.4156 -0.0449  0.2607
  920YOPE   GL213524  18.958   9.927   5.769  0.0457 -0.1739  0.1281
  920YOPE   C1A13525  18.490   9.379   6.203 -0.1342  0.0480  0.1282
  920YOPE   D2A13526  18.489   9.120   6.579 -0.1918 -0.0436  0.2886
  920YOPE   C3A13527  18.750   9.053   6.880  0.3057  0.0722 -0.2990
  920YOPE   C4A13528  18.755   8.964   7.240  0.1414  0.0681 -0.2183
  920YOPE   C1B13529  19.172  10.082   6.083 -0.0153  0.1540 -0.0358
  920YOPE   C2B13530  19.069  10.063   6.539  0.1601  0.0059 -0.1461
  920YOPE   D3B13531  18.984  10.389   6.823  0.0431 -0.1667  0.0421
  920YOPE   C4B13532  19.226  10.641   7.093 -0.0814  0.2438  0.1796
  921YOPE   NH313533  12.455  13.566   4.435 -0.0177 -0.1393 -0.1610
  921YOPE   PO413534  12.677  13.344   4.781 -0.1845 -0.0295 -0.5127
  921YOPE   GL113535  12.981  13.327   5.247 -0.3530  0.1024 -0.3016
  921YOPE   GL213536  13.269  13.090   5.271  0.0290 -0.1671  0.1295
  921YOPE   C1A13537  13.170  13.576   5.562 -0.0998 -0.2515  0.2261
  921YOPE   D2A13538  13.448  13.437   5.893  0.0767 -0.4605 -0.1059
  921YOPE   C3A13539  13.340  13.278   6.270  0.1436 -0.0853  0.0920
  921YOPE   C4A13540  13.429  12.899   6.523 -0.3963  0.0643 -0.0275
  921YOPE   C1B13541  13.201  13.041   5.699  0.2900 -0.0432  0.2517
  921YOPE   C2B13542  13.420  12.823   6.088 -0.1120  0.1382  0.0973
  921YOPE   D3B13543  13.785  12.823   6.119  0.2045  0.1901 -0.2274
  921YOPE   C4B13544  13.970  13.054   5.848 -0.0219  0.3909 -0.0199
  922YOPE   NH313545  10.285   5.503   4.841 -0.0065  0.0721 -0.3372
  922YOPE   PO413546  10.262   5.833   5.027  0.1242 -0.1129  0.2035
  922YOPE   GL113547  10.378   5.682   5.446 -0.1121 -0.0125 -0.1076
  922YOPE   GL213548  10.623   5.728   5.595 -0.2607 -0.0498 -0.5002
  922YOPE   C1A13549  10.220   5.835   5.918 -0.2122  0.3680 -0.2827
  922YOPE   D2A13550  10.236   5.961   6.373  0.3033 -0.0368  0.0828
  922YOPE   C3A13551  10.254   5.812   6.750 -0.3715 -0.0249  0.0087
  922YOPE   C4A13552  10.705   5.623   6.952  0.2044 -0.2211 -0.1590
  922YOPE   C1B13553  10.747   5.360   5.977  0.3709  0.1389  0.0972
  922YOPE   C2B13554  10.616   4.991   6.173 -0.0505  0.0494  0.0362
  922YOPE   D3B13555  10.242   4.968   6.511  0.1549  0.1910 -0.1650
  922YOPE   C4B13556   9.818   4.963   6.749  0.1770  0.1190 -0.2108
  923YOPE   NH313557   2.327  16.344   5.300  0.1636 -0.0070 -0.0618
  923YOPE   PO413558   2.779  16.315   5.482 -0.0674  0.0586  0.0737
  923YOPE   GL113559   2.849  16.581   5.849 -0.0890 -0.2910  0.1246
  923YOPE   GL213560   2.530  16.620   5.957 -0.1114  0.1658  0.0004
  923YOPE   C1A13561   2.879  16.853   6.260 -0.0672  0.1084 -0.0832
  923YOPE   D2A13562   2.650  17.081   6.575 -0.1606 -0.1231  0.0603
  923YOPE   C3A13563   2.789  16.946   6.895 -0.4003  0.1565  0.0238
  923YOPE   C4A13564   2.903  16.883   7.302 -0.1579 -0.3197  0.1557
  923YOPE   C1B13565   2.408  16.588   6.415  0.0940  0.1109 -0.3550
  923YOPE   C2B13566   2.608  16.521   6.795 -0.0526 -0.0765  0.0226
  923YOPE   D3B13567   2.780  16.363   7.197 -0.0494 -0.1483 -0.0882
  923YOPE   C4B13568   2.919  16.417   7.609  0.1633  0.0421 -0.0100
  924YOPE   NH313569  14.522  18.463   4.733  0.2084 -0.2566 -0.0347
  924YOPE   PO413570  14.139  18.476   5.052 -0.0328  0.5831  0.6068
  924YOPE   GL113571  14.122  18.037   4.941 -0.0057 -0.0289 -0.1215
  924YOPE   GL213572  14.480  18.023   4.981  0.3428  0.1210 -0.2075
  924YOPE   C1A13573  14.226  17.608   5.160 -0.0520  0.5038 -0.2243
  924YOPE   D2A13574  14.180  17.383   5.563  0.0417  0.1964  0.1386
  924YOPE   C3A13575  14.160  17.429   5.987 -0.0223 -0.1184  0.1354
  924YOPE   C4A13576  14.136  17.278   6.467  0.0344  0.0158  0.0900
  924YOPE   C1B13577  14.508  17.921   5.489  0.0946 -0.1758 -0.5556
  924YOPE   C2B13578  14.311  17.879   5.812  0.2199  0.0793 -0.0427
  924YOPE   D3B13579  14.197  17.923   6.163  0.2929 -0.0367 -0.0945
  924YOPE   C4B13580  14.229  17.870   6.457  0.0484 -0.1825 -0.0847
  925YOPE   NH313581  18.767   7.452   5.478  0.1175  0.2215 -0.2669
  925YOPE   PO413582  18.850   7.057   5.384  0.0531  0.1498 -0.1949
  925YOPE   GL113583  18.950   6.912   5.904 -0.0525  0.2539 -0.0367
  925YOPE   GL213584  19.300   6.870   5.856 -0.1859 -0.1879  0.2070
  925YOPE   C1A13585  18.901   7.104   6.319  0.1581  0.3539  0.2533
  925YOPE   D2A13586  18.633   7.231   6.710  0.1163 -0.2826  0.1484
  925YOPE   C3A13587  18.233   7.437   7.084 -0.1077  0.3542  0.1497
  925YOPE   C4A13588  17.920   7.681   7.052  0.0398 -0.1012 -0.1541
  925YOPE   C1B13589  19.429   7.029   6.301  0.1938  0.3689  0.3195
  925YOPE   C2B13590  19.727   7.142   6.691  0.1957  0.1837  0.1024
  925YOPE   D3B13591  19.730   7.192   7.138  0.2997  0.1111  0.2473
  925YOPE   C4B13592  19.748   7.178   7.651  0.0188 -0.3608 -0.1380
  926YOPE   NH313593  11.576  15.207   5.232 -0.0253  0.2069 -0.3666
  926YOPE   PO413594  11.924  15.256   5.024  0.0491 -0.2224 -0.3679
  926YOPE   GL113595  12.309  15.425   5.272 -0.2234 -0.1556  0.1992
  926YOPE   GL213596  12.427  15.638   5.262  0.3248 -0.0034 -0.0467
  926YOPE   C1A13597  12.511  15.291   5.625 -0.0058 -0.3615 -0.0060
  926YOPE   D2A13598  12.432  15.363   6.029  0.0892  0.0137  0.0201
  926YOPE   C3A13599  12.513  15.080   6.365 -0.1985  0.0836 -0.2232
  926YOPE   C4A13600  12.710  14.795   6.672  0.1516  0.2396 -0.1070
  926YOPE   C1B13601  12.507  15.793   5.745 -0.1116  0.1045 -0.1382
  926YOPE   C2B13602  12.216  15.877   6.187 -0.2155  0.3483  0.0164
  926YOPE   D3B13603  12.008  15.766   6.609 -0.1655  0.0676 -0.1610
  926YOPE   C4B13604  11.873  15.456   7.030 -0.0140  0.0264  0.1023
  927YOPE   NH313605   5.359  10.787   5.136 -0.0961 -0.2070 -0.0190
  927YOPE   PO413606   5.236  10.391   5.399 -0.1476 -0.1133  0.1671
  927YOPE   GL113607   5.617  10.574   5.552 -0.3307  0.4615 -0.0465
  927YOPE   GL213608   5.747  10.404   5.827  0.1362  0.1417 -0.0609
  927YOPE   C1A13609   5.641  10.800   6.164 -0.0546  0.0933  0.0310
  927YOPE   D2A13610   5.666  11.185   6.424  0.1072 -0.1871 -0.0786
  927YOPE   C3A13611   5.884  11.486   6.203  0.3949  0.0581  0.2520
  927YOPE   C4A13612   5.859  11.526   5.738 -0.0511 -0.0252 -0.0531
  927YOPE   C1B13613   6.154  10.447   6.013  0.2410  0.2805 -0.1239
  927YOPE   C2B13614   6.610  10.536   6.098  0.0300  0.2349 -0.0972
  927YOPE   D3B13615   6.872  10.984   6.158 -0.0772 -0.3278  0.0677
  927YOPE   C4B13616   7.243  11.265   6.104 -0.2779 -0.2200  0.0380
  928YOPE   NH313617   2.615  14.546   5.493  0.1159  0.0775  0.2908
  928YOPE   PO413618   2.970  14.772   5.320  0.2235  0.0211  0.0834
  928YOPE   GL113619   2.955  14.869   5.758 -0.0861 -0.1228  0.0560
  928YOPE   GL213620   2.980  14.550   5.811 -0.0811  0.0767  0.0109
  928YOPE   C1A13621   2.934  14.877   6.169 -0.0755  0.1100 -0.1251
  928YOPE   D2A13622   3.049  14.921   6.619  0.0959 -0.0961 -0.0940
  928YOPE   C3A13623   3.325  14.951   6.912  0.2161 -0.0282 -0.1272
  928YOPE   C4A13624   3.590  15.150   7.153  0.2140 -0.0064 -0.0095
  928YOPE   C1B13625   3.238  14.442   6.236  0.1145 -0.1317 -0.0122
  928YOPE   C2B13626   3.353  14.511   6.608  0.0420 -0.0136  0.0389
  928YOPE   D3B13627   3.616  14.620   6.998 -0.0107  0.0078 -0.0778
  928YOPE   C4B13628   3.675  14.662   7.429 -0.1285 -0.0160 -0.3385
  929YOPE   NH313629  12.241   2.967   5.264  0.3993  0.0065  0.0069
  929YOPE   PO413630  12.475   3.195   5.406  0.1707 -0.0237 -0.0251
  929YOPE   GL113631  12.105   3.293   5.736 -0.0791 -0.4928 -0.5317
  929YOPE   GL213632  12.092   2.971   5.775  0.1134  0.3671  0.2554
  929YOPE   C1A13633  11.757   3.441   6.025 -0.3817 -0.1339  0.0705
  929YOPE   D2A13634  11.771   3.767   6.374  0.1540  0.0256 -0.0259
  929YOPE   C3A13635  11.448   3.926   6.634 -0.4715  0.1266 -0.0314
  929YOPE   C4A13636  11.487   4.159   7.068  0.0162  0.1522  0.1099
  929YOPE   C1B13637  12.189   3.049   6.178  0.1984 -0.0027 -0.1090
  929YOPE   C2B13638  12.436   3.024   6.553  0.1897 -0.1403 -0.0235
  929YOPE   D3B13639  12.607   2.947   6.875 -0.1004  0.0675 -0.4035
  929YOPE   C4B13640  12.699   2.498   6.999 -0.1997  0.3333 -0.1531
  930YOPE   NH313641   8.259   9.251   5.338  0.1166  0.1841  0.1251
  930YOPE   PO413642   8.652   9.190   5.467 -0.1624  0.2200  0.1916
  930YOPE   GL113643   8.461   9.590   5.620 -0.1027 -0.0568  0.1609
  930YOPE   GL213644   8.347   9.743   5.394 -0.1122 -0.0321  0.0439
  930YOPE   C1A13645   8.475   9.866   5.937  0.2294  0.2905 -0.0195
  930YOPE   D2A13646   8.351   9.786   6.362  0.0147 -0.2429 -0.2170
  930YOPE   C3A13647   8.242  10.209   6.613  0.3009 -0.1265 -0.1148
  930YOPE   C4A13648   8.273  10.314   7.118  0.1916  0.0567 -0.2587
  930YOPE   C1B13649   8.211  10.159   5.664 -0.0519 -0.0843 -0.0037
  930YOPE   C2B13650   8.302  10.565   5.814  0.0777  0.2107  0.1162
  930YOPE   D3B13651   8.192  10.728   6.156 -0.0083  0.1127  0.0024
  930YOPE   C4B13652   8.147  10.903   6.610 -0.0757 -0.0853  0.0564
  931YOPE   NH313653   4.705  13.953   5.415  0.0631  0.2408 -0.0852
  931YOPE   PO413654   5.001  13.594   5.418  0.2143 -0.1478  0.1246
  931YOPE   GL113655   5.229  13.862   5.551 -0.3350 -0.1993 -0.0309
  931YOPE   GL213656   5.350  13.700   5.833 -0.0673  0.1351  0.0187
  931YOPE   C1A13657   5.524  14.139   5.888  0.2795  0.0653 -0.3594
  931YOPE   D2A13658   5.478  14.240   6.341 -0.2009 -0.0883 -0.0226
  931YOPE   C3A13659   5.583  14.739   6.491  0.1063 -0.2450 -0.1004
  931YOPE   C4A13660   5.750  15.092   6.544 -0.1346  0.0302 -0.2966
  931YOPE   C1B13661   5.654  13.663   6.170 -0.2125 -0.3151  0.0493
  931YOPE   C2B13662   5.797  13.849   6.623  0.0503 -0.2828 -0.0336
  931YOPE   D3B13663   5.860  13.812   6.970 -0.0843  0.0603 -0.0838
  931YOPE   C4B13664   6.176  13.861   7.197 -0.1929 -0.1021  0.0729
  932POPC   NC313665   7.207  15.858   5.300  0.0261 -0.1520  0.0123
  932POPC   PO413666   6.937  15.624   5.555 -0.0791  0.0363  0.0193
  932POPC   GL113667   6.770  15.488   5.848  0.0182  0.1143  0.2630
  932POPC   GL213668   6.841  15.585   6.142 -0.1462  0.0869 -0.0964
  932POPC   C1A13669   6.852  15.068   6.092  0.1767  0.1627 -0.0703
  932POPC   D2A13670   7.007  14.874   6.411  0.0464 -0.0596 -0.1607
  932POPC   C3A13671   7.455  14.959   6.495  0.1807 -0.0549  0.4678
  932POPC   C4A13672   7.921  15.015   6.762 -0.1263  0.0385  0.1725
  932POPC   C1B13673   6.721  15.384   6.495 -0.3313  0.1045 -0.3430
  932POPC   C2B13674   6.956  15.263   6.756 -0.0830 -0.4373  0.2244
  932POPC   C3B13675   7.254  15.144   6.876  0.0003  0.1210 -0.1092
  932POPC   C4B13676   7.563  15.236   7.117 -0.2701 -0.0106 -0.0370
  933POPC   NC313677  17.885  13.529   5.261  0.1481 -0.1284  0.2213
  933POPC   PO413678  17.463  13.629   5.269 -0.0343  0.0008 -0.2613
  933POPC   GL113679  17.631  14.013   5.176  0.0075  0.0663 -0.0508
  933POPC   GL213680  17.988  14.002   5.265  0.0504  0.1329 -0.3978
  933POPC   C1A13681  17.515  14.463   5.374 -0.0128  0.0581 -0.1407
  933POPC   D2A13682  17.610  14.822   5.724  0.0962  0.4471 -0.1393
  933POPC   C3A13683  17.873  14.637   6.039 -0.0970 -0.2429 -0.2120
  933POPC   C4A13684  17.852  14.381   6.385 -0.2878  0.2034 -0.1535
  933POPC   C1B13685  17.902  14.096   5.713 -0.2749 -0.0621  0.0393
  933POPC   C2B13686  18.221  14.171   6.006  0.3403  0.0837 -0.4290
  933POPC   C3B13687  18.373  14.195   6.500  0.2001  0.4495  0.0576
  933POPC   C4B13688  18.258  14.494   6.837 -0.3401 -0.0231 -0.0030
  934POPC   NC313689   2.283   8.327   4.990  0.2540  0.5130 -0.1367
  934POPC   PO413690   2.039   8.100   5.350 -0.0886 -0.0735  0.0857
  934POPC   GL113691   2.084   8.274   5.744 -0.2084  0.0418 -0.0092
  934POPC   GL213692   1.872   8.435   5.736  0.1657  0.0752  0.0698
  934POPC   C1A13693   2.046   8.254   6.223 -0.0055  0.0535  0.3253
  934POPC   D2A13694   2.131   8.288   6.694 -0.3918 -0.3696 -0.2608
  934POPC   C3A13695   2.376   8.158   6.982  0.0996  0.1630 -0.0664
  934POPC   C4A13696   2.709   7.869   7.271  0.1255  0.1187  0.0103
  934POPC   C1B13697   2.101   8.716   5.968 -0.0870  0.0026  0.3812
  934POPC   C2B13698   2.119   8.849   6.426 -0.2733  0.1886  0.0123
  934POPC   C3B13699   1.938   8.826   6.823  0.4347 -0.0190  0.2615
  934POPC   C4B13700   2.060   8.955   7.252 -0.3088  0.0236 -0.5048
  935POPC   NC313701  13.749   9.705   4.850 -0.2280  0.2141 -0.1426
  935POPC   PO413702  13.622  10.075   5.083  0.1330  0.0333  0.1488
  935POPC   GL113703  13.739   9.857   5.336 -0.2102  0.3088 -0.2006
  935POPC   GL213704  13.578   9.695   5.629 -0.4696 -0.2604  0.0057
  935POPC   C1A13705  13.848  10.047   5.778  0.1577 -0.0664 -0.4486
  935POPC   D2A13706  13.875  10.061   6.300 -0.3500  0.0493 -0.1502
  935POPC   C3A13707  13.649   9.904   6.679  0.0859  0.3121  0.1398
  935POPC   C4A13708  13.316   9.793   7.071 -0.0944  0.0073 -0.5417
  935POPC   C1B13709  13.397   9.872   5.978 -0.0652  0.1124  0.0237
  935POPC   C2B13710  13.419  10.209   6.329  0.1878 -0.0889  0.1537
  935POPC   C3B13711  13.227  10.250   6.848 -0.2436  0.1621 -0.1222
  935POPC   C4B13712  12.975  10.326   7.237  0.1388 -0.1416 -0.1182
  936POPC   NC313713  17.266   6.261   4.992 -0.1666  0.0950 -0.1044
  936POPC   PO413714  17.154   5.817   5.085 -0.0111  0.1559  0.0478
  936POPC   GL113715  17.179   5.750   5.549  0.1873 -0.0084 -0.3723
  936POPC   GL213716  16.855   5.833   5.689 -0.1424  0.3364  0.1930
  936POPC   C1A13717  17.313   5.440   5.932  0.1868  0.0407 -0.1621
  936POPC   D2A13718  17.123   5.074   6.125 -0.0251 -0.0722 -0.2818
  936POPC   C3A13719  16.714   5.067   6.151  0.0951  0.2487  0.2716
  936POPC   C4A13720  16.281   5.228   6.047 -0.1378  0.0129 -0.0267
  936POPC   C1B13721  16.778   5.569   6.017 -0.0362  0.3517 -0.1142
  936POPC   C2B13722  16.523   5.509   6.429  0.1318  0.0655  0.2897
  936POPC   C3B13723  16.565   5.635   6.822 -0.3029  0.0003  0.1004
  936POPC   C4B13724  16.397   5.508   7.253  0.2901 -0.6009  0.0910
  937POPC   NC313725   8.889   1.372   5.246  0.0024  0.0123 -0.2383
  937POPC   PO413726   8.493   1.595   5.376  0.1132  0.1932  0.0904
  937POPC   GL113727   8.801   1.701   5.764 -0.0010 -0.1131  0.3820
  937POPC   GL213728   9.150   1.654   5.693 -0.2058  0.0012 -0.1056
  937POPC   C1A13729   8.791   1.873   6.212  0.1008 -0.3507  0.2030
  937POPC   D2A13730   8.761   2.225   6.426 -0.0008 -0.1763  0.2244
  937POPC   C3A13731   9.132   2.266   6.583 -0.1877 -0.2142  0.2295
  937POPC   C4A13732   9.504   2.414   6.311 -0.2303 -0.1217 -0.3039
  937POPC   C1B13733   9.334   1.648   6.033  0.0057 -0.0401  0.2068
  937POPC   C2B13734   9.199   1.754   6.451  0.1052 -0.0361 -0.2067
  937POPC   C3B13735   8.857   1.799   6.684  0.2323  0.2390 -0.1717
  937POPC   C4B13736   8.580   1.748   6.906 -0.2585 -0.0727 -0.2726
  938POPC   NC313737   1.005   0.150   5.235 -0.0344  0.1752 -0.0949
  938POPC   PO413738   1.009   0.215   5.576  0.0166  0.2256 -0.0549
  938POPC   GL113739   1.150   0.226   5.905  0.1078 -0.1785  0.0277
  938POPC   GL213740   1.016   0.550   5.960 -0.0264  0.1645  0.1657
  938POPC   C1A13741   1.369   0.392   6.225 -0.0980 -0.3061  0.0948
  938POPC   D2A13742   1.776   0.331   6.508 -0.0052 -0.0520  0.0800
  938POPC   C3A13743   2.050   0.478   6.915  0.0608 -0.0101 -0.1240
  938POPC   C4A13744   2.287   0.286   7.299  0.4678  0.0081  0.1890
  938POPC   C1B13745   0.816   0.376   6.263  0.0810 -0.2652  0.0656
  938POPC   C2B13746   0.619   0.371   6.657 -0.2501 -0.1598  0.3053
  938POPC   C3B13747   0.420   0.488   7.069  0.2883 -0.0851  0.2994
  938POPC   C4B13748   0.304   0.687   7.361 -0.1768  0.1229 -0.1001
  939POPC   NC313749  14.488   7.503   4.491  0.0188  0.0216 -0.1748
  939POPC   PO413750  14.682   7.661   4.905  0.0466 -0.0800 -0.2294
  939POPC   GL113751  14.886   7.781   5.305  0.2320 -0.0237  0.4546
  939POPC   GL213752  14.881   8.084   5.454  0.1888 -0.0908 -0.1713
  939POPC   C1A13753  15.090   7.475   5.564 -0.0552  0.1092  0.1383
  939POPC   D2A13754  15.225   6.957   5.853 -0.0779 -0.0128 -0.1937
  939POPC   C3A13755  15.351   7.096   6.310 -0.2511  0.4665 -0.3129
  939POPC   C4A13756  15.305   6.868   6.686  0.2315 -0.4044 -0.4253
  939POPC   C1B13757  15.195   7.940   5.772 -0.2429  0.2041 -0.1781
  939POPC   C2B13758  15.205   8.032   6.194 -0.1895  0.0471  0.0716
  939POPC   C3B13759  15.183   8.187   6.564  0.1848  0.1734  0.0717
  939POPC   C4B13760  15.353   8.415   6.926  0.1796 -0.1806 -0.1718
  940POPC   NC313761   2.593   0.891   5.571  0.0928  0.0007  0.2218
  940POPC   PO413762   2.400   0.636   5.790 -0.1646  0.0478  0.2514
  940POPC   GL113763   2.466   0.748   6.182  0.0728 -0.1261  0.0831
  940POPC   GL213764   2.136   0.731   6.472  0.1680 -0.3333  0.4964
  940POPC   C1A13765   2.628   0.769   6.563  0.2276 -0.0670 -0.1513
  940POPC   D2A13766   2.550   0.754   6.996 -0.1018  0.2736 -0.2063
  940POPC   C3A13767   2.255   0.782   7.320  0.2231  0.0542 -0.3842
  940POPC   C4A13768   1.932   0.945   7.689  0.1544  0.0531  0.1247
  940POPC   C1B13769   2.362   0.339   6.538 -0.0865  0.1837  0.1633
  940POPC   C2B13770   2.784   0.302   6.739  0.1949  0.1079  0.0023
  940POPC   C3B13771   3.247   0.352   7.064 -0.0655 -0.1609 -0.0285
  940POPC   C4B13772   3.324   0.250   7.548  0.0416 -0.5311  0.0676
  941POPC   NC313773   8.640   2.954   5.349 -0.1383 -0.0233  0.0461
  941POPC   PO413774   9.050   3.130   5.129  0.4603  0.1393 -0.3303
  941POPC   GL113775   8.986   3.426   5.472  0.3222 -0.0603 -0.2538
  941POPC   GL213776   8.702   3.685   5.609 -0.0601  0.1312  0.3155
  941POPC   C1A13777   9.019   3.377   5.899 -0.1285 -0.0783  0.1753
  941POPC   D2A13778   9.156   3.171   6.105 -0.0302  0.1800 -0.1460
  941POPC   C3A13779   9.369   2.873   5.984  0.0432 -0.0611  0.0601
  941POPC   C4A13780   9.472   2.529   5.840 -0.0549  0.0462  0.0267
  941POPC   C1B13781   8.977   3.885   5.940  0.2925  0.0858 -0.0741
  941POPC   C2B13782   9.386   4.269   5.986  0.1069  0.1201 -0.1727
  941POPC   C3B13783   9.683   4.477   5.968  0.1947  0.2049 -0.2541
  941POPC   C4B13784   9.898   4.787   5.917  0.0312 -0.0865 -0.0679
  942POPC   NC313785   1.966  13.898   5.239  0.0061 -0.1317 -0.1399
  942POPC   PO413786   2.080  13.441   5.191  0.0123  0.2170  0.0479
  942POPC   GL113787   2.277  13.543   5.526 -0.2917  0.2861 -0.3181
  942POPC   GL213788   2.599  13.414   5.576 -0.0260  0.0554  0.3772
  942POPC   C1A13789   2.226  13.717   5.836 -0.2320  0.1884  0.1572
  942POPC   D2A13790   1.919  13.721   6.276 -0.0689 -0.1888 -0.0302
  942POPC   C3A13791   1.957  13.556   6.690  0.1977 -0.1937 -0.0745
  942POPC   C4A13792   2.017  13.256   7.064 -0.2620 -0.0558 -0.0303
  942POPC   C1B13793   2.616  13.467   5.967 -0.2071 -0.1947 -0.1457
  942POPC   C2B13794   2.506  13.403   6.346 -0.0112 -0.2122 -0.1440
  942POPC   C3B13795   2.591  13.244   6.750  0.1513 -0.4631 -0.2878
  942POPC   C4B13796   2.424  12.963   7.101 -0.0902  0.2170  0.0269
  943POPC   NC313797   5.594   2.666   5.490  0.2179  0.1780  0.0082
  943POPC   PO413798   5.936   2.844   5.712  0.1249 -0.0348  0.3259
  943POPC   GL113799   5.665   3.045   5.985 -0.5244  0.0336  0.1170
  943POPC   GL213800   5.579   3.422   5.962 -0.0755  0.0066  0.1476
  943POPC   C1A13801   5.829   3.126   6.412  0.0319  0.0883 -0.0650
  943POPC   D2A13802   5.955   3.104   6.806 -0.0156 -0.0573  0.0604
  943POPC   C3A13803   5.734   3.352   7.155 -0.4303  0.0694  0.1848
  943POPC   C4A13804   5.611   3.452   7.498  0.0469  0.1750 -0.0831
  943POPC   C1B13805   5.322   3.293   6.307  0.3386 -0.3101  0.1318
  943POPC   C2B13806   5.314   3.121   6.753 -0.0270  0.1369 -0.2556
  943POPC   C3B13807   5.237   3.277   7.134 -0.1642  0.0522 -0.0456
  943POPC   C4B13808   5.083   3.485   7.481  0.3151 -0.2137  0.1788
  944POPC   NC313809  18.189   3.407   5.874  0.2449 -0.1498  0.2267
  944POPC   PO413810  17.729   3.143   5.765  0.0436  0.1583  0.1735
  944POPC   GL113811  17.812   3.029   6.174 -0.4492 -0.0783  0.1248
  944POPC   GL213812  17.926   3.328   6.264 -0.0555  0.0366 -0.1430
  944POPC   C1A13813  17.808   2.803   6.586  0.1218  0.0288  0.2651
  944POPC   D2A13814  17.790   2.712   6.971  0.0509  0.1367 -0.2719
  944POPC   C3A13815  18.005   3.030   7.257 -0.0929 -0.1157  0.2753
  944POPC   C4A13816  18.331   2.886   7.402  0.0376 -0.0900  0.0260
  944POPC   C1B13817  17.608   3.330   6.604 -0.0067  0.0445  0.3888
  944POPC   C2B13818  17.555   3.279   7.027 -0.3280  0.5823 -0.0376
  944POPC   C3B13819  17.580   3.287   7.566  0.2950 -0.3127 -0.2548
  944POPC   C4B13820  17.658   3.433   7.878 -0.0361  0.0183 -0.1180
  945POPC   NC313821   5.211   1.118   5.549  0.0660  0.1343 -0.2911
  945POPC   PO413822   5.521   0.910   5.643 -0.0839 -0.1213  0.2619
  945POPC   GL113823   5.512   0.540   6.033 -0.1308 -0.0346  0.2596
  945POPC   GL213824   5.794   0.605   6.028 -0.0034 -0.3060  0.2112
  945POPC   C1A13825   5.443   0.368   6.424 -0.0227  0.0749  0.0657
  945POPC   D2A13826   5.538   0.162   6.777 -0.3802  0.1210 -0.2452
  945POPC   C3A13827   5.397  -0.175   6.928 -0.1843  0.0360 -0.0429
  945POPC   C4A13828   5.093  -0.170   7.391 -0.0339 -0.0005 -0.2027
  945POPC   C1B13829   5.634   0.836   6.373  0.1677  0.0838 -0.0169
  945POPC   C2B13830   5.230   0.809   6.553 -0.3704  0.0155  0.4185
  945POPC   C3B13831   5.044   0.495   6.798  0.0907 -0.1440 -0.2102
  945POPC   C4B13832   4.838   0.115   7.016 -0.0885 -0.0532  0.0735
  946POPC   NC313833  16.543   3.197   5.522  0.1058 -0.1000  0.0404
  946POPC   PO413834  16.667   3.680   5.487 -0.4405  0.1105  0.0809
  946POPC   GL113835  16.702   3.586   5.872  0.0830  0.1888  0.2995
  946POPC   GL213836  16.500   3.469   5.915  0.2786  0.1197 -0.1695
  946POPC   C1A13837  17.008   3.404   6.153  0.1172 -0.0237  0.0643
  946POPC   D2A13838  17.097   3.509   6.576 -0.0695  0.0540 -0.1137
  946POPC   C3A13839  17.009   3.458   6.995 -0.0209  0.1455 -0.1115
  946POPC   C4A13840  17.047   3.402   7.437  0.1934  0.1297 -0.0162
  946POPC   C1B13841  16.551   3.359   6.415 -0.1642 -0.0839  0.1042
  946POPC   C2B13842  16.566   3.448   6.795 -0.1335  0.1636 -0.1838
  946POPC   C3B13843  16.558   3.725   7.162 -0.3569 -0.0722  0.4307
  946POPC   C4B13844  16.782   4.067   7.416  0.0166  0.1279  0.1367
  947POPC   NC313845   9.554  12.040   4.382 -0.1357 -0.2040 -0.1204
  947POPC   PO413846   9.688  12.279   4.773 -0.0520 -0.0702  0.1351
  947POPC   GL113847   9.870  12.228   5.213 -0.0260 -0.0898 -0.2160
  947POPC   GL213848   9.985  11.848   5.164  0.0313  0.1445 -0.3493
  947POPC   C1A13849   9.810  12.477   5.658 -0.2579  0.2646 -0.2987
  947POPC   D2A13850   9.905  12.847   5.923 -0.0144 -0.0307  0.1629
  947POPC   C3A13851  10.092  13.019   6.322  0.1291  0.2840 -0.0201
  947POPC   C4A13852  10.255  13.347   6.574 -0.2572  0.1716 -0.1481
  947POPC   C1B13853   9.755  11.702   5.632  0.1014  0.1144 -0.1647
  947POPC   C2B13854   9.709  11.414   5.957  0.0470  0.2376  0.0045
  947POPC   C3B13855   9.496  11.366   6.309 -0.0010  0.1191  0.1499
  947POPC   C4B13856   9.145  11.236   6.300  0.3139  0.1358 -0.0425
  948POPC   NC313857   9.288   0.033   5.479  0.0574 -0.0773  0.1377
  948POPC   PO413858   9.510  -0.263   5.253  0.1505 -0.3955 -0.2990
  948POPC   GL113859   9.877  -0.115   5.571 -0.0020  0.0389 -0.0845
  948POPC   GL213860   9.737   0.247   5.679 -0.0547 -0.1969 -0.0748
  948POPC   C1A13861  10.167  -0.311   5.915 -0.1530  0.1571  0.3060
  948POPC   D2A13862  10.509  -0.523   6.188  0.0159  0.3259 -0.1394
  948POPC   C3A13863  10.715  -0.360   6.664  0.0231  0.1115 -0.1605
  948POPC   C4A13864  10.867   0.032   6.849  0.0979 -0.4989 -0.1139
  948POPC   C1B13865   9.629   0.373   6.093 -0.2223 -0.0863  0.3755
  948POPC   C2B13866   9.602   0.742   6.255  0.0458 -0.1784 -0.1007
  948POPC   C3B13867   9.185   0.837   6.506  0.0335  0.1085 -0.1031
  948POPC   C4B13868   8.796   0.871   6.848 -0.2010 -0.0330 -0.1195
  949POPC   NC313869  13.594   7.981   4.810  0.0417  0.2751  0.0835
  949POPC   PO413870  13.821   7.634   5.229 -0.0565 -0.1604  0.0131
  949POPC   GL113871  13.990   7.844   5.577  0.1278 -0.1636 -0.1969
  949POPC   GL213872  14.148   7.957   5.580 -0.3380  0.1607  0.3715
  949POPC   C1A13873  13.782   7.855   5.913  0.3617  0.1869  0.1618
  949POPC   D2A13874  13.811   7.914   6.318 -0.3319 -0.3018 -0.2442
  949POPC   C3A13875  13.530   8.139   6.678  0.0240  0.0299  0.1998
  949POPC   C4A13876  13.051   8.182   6.747 -0.0024 -0.3201 -0.0531
  949POPC   C1B13877  14.215   8.029   5.961 -0.0235 -0.3006  0.0224
  949POPC   C2B13878  14.225   8.192   6.362  0.0073  0.3782 -0.1714
  949POPC   C3B13879  14.050   8.215   6.830 -0.1039  0.3374  0.1693
  949POPC   C4B13880  13.740   8.394   7.068 -0.1443  0.1316  0.3388
  950POPC   NC313881  16.993  14.678   4.517 -0.1734 -0.0595  0.1511
  950POPC   PO413882  16.860  15.055   4.660  0.0841  0.1640 -0.1898
  950POPC   GL113883  16.568  15.082   5.168 -0.0453 -0.0789  0.2066
  950POPC   GL213884  16.723  15.398   5.350  0.2757  0.0363  0.1459
  950POPC   C1A13885  16.418  15.097   5.606 -0.0109 -0.0875  0.2049
  950POPC   D2A13886  16.164  15.252   6.002  0.0388 -0.2725  0.1951
  950POPC   C3A13887  16.088  14.932   6.261 -0.1440 -0.1245 -0.2446
  950POPC   C4A13888  16.168  14.635   6.583 -0.2173  0.2229  0.3387
  950POPC   C1B13889  16.795  15.392   5.786  0.3451  0.1300  0.1690
  950POPC   C2B13890  17.103  15.463   6.086  0.2704  0.0214  0.1299
  950POPC   C3B13891  17.368  15.612   6.455  0.0065  0.2291  0.1449
  950POPC   C4B13892  17.540  15.573   6.867 -0.1414 -0.1850 -0.1589
  951POPC   NC313893   1.068   7.899   5.646  0.2063  0.1708  0.1626
  951POPC   PO413894   0.651   7.853   5.863 -0.0932  0.0724  0.1227
  951POPC   GL113895   0.896   7.800   6.205  0.1074  0.1335  0.1281
  951POPC   GL213896   1.100   7.542   6.079 -0.1137  0.1616 -0.2996
  951POPC   C1A13897   1.216   7.944   6.389 -0.0121 -0.3325 -0.2929
  951POPC   D2A13898   1.166   8.110   6.809 -0.1708  0.1630  0.1322
  951POPC   C3A13899   1.365   8.120   7.175 -0.0288 -0.0303 -0.0307
  951POPC   C4A13900   1.195   7.906   7.500  0.0676 -0.2474 -0.1532
  951POPC   C1B13901   1.200   7.456   6.431 -0.2124 -0.3689 -0.1006
  951POPC   C2B13902   1.122   7.572   6.785  0.5084 -0.3004  0.2225
  951POPC   C3B13903   1.033   7.535   7.182 -0.1297  0.1416 -0.1345
  951POPC   C4B13904   0.636   7.532   7.367 -0.2645  0.1114  0.0126
  952POPC   NC313905  18.402  15.036   4.785 -0.2202 -0.1374  0.1926
  952POPC   PO413906  18.310  15.080   5.227 -0.1212  0.1143 -0.1679
  952POPC   GL113907  18.468  14.750   5.485 -0.0312  0.2883 -0.0104
  952POPC   GL213908  18.678  14.977   5.662 -0.1828 -0.2075  0.0117
  952POPC   C1A13909  18.353  14.670   5.882 -0.0890 -0.0729 -0.0288
  952POPC   D2A13910  18.296  14.713   6.341  0.0234  0.3879 -0.1450
  952POPC   C3A13911  18.061  14.902   6.605  0.2127 -0.2061  0.2529
  952POPC   C4A13912  18.043  15.196   7.004  0.3494 -0.0785 -0.2114
  952POPC   C1B13913  18.743  14.986   6.070  0.0652 -0.0945  0.1174
  952POPC   C2B13914  18.598  15.130   6.414  0.0294  0.1704 -0.1662
  952POPC   C3B13915  18.410  15.352   6.765 -0.2665  0.0777  0.1779
  952POPC   C4B13916  18.182  15.706   6.946 -0.0262 -0.2327 -0.2287
  953POPC   NC313917  18.681   3.989   5.627  0.0062  0.1020 -0.0250
  953POPC   PO413918  18.268   3.817   5.603 -0.1128  0.1599  0.1744
  953POPC   GL113919  18.077   3.874   6.003 -0.0134 -0.2444  0.0473
  953POPC   GL213920  18.390   3.905   6.111 -0.0607  0.1662  0.2795
  953POPC   C1A13921  17.944   3.815   6.438  0.0644 -0.0576 -0.1291
  953POPC   D2A13922  17.624   3.860   6.833  0.1283 -0.1470 -0.5162
  953POPC   C3A13923  17.535   3.754   7.369  0.0679  0.0994 -0.1622
  953POPC   C4A13924  17.885   3.894   7.689  0.0694 -0.3073 -0.0212
  953POPC   C1B13925  18.423   4.029   6.537  0.1895 -0.0676 -0.1332
  953POPC   C2B13926  18.221   3.962   6.851  0.0718 -0.0438  0.1422
  953POPC   C3B13927  18.146   4.325   7.174  0.1586  0.0351  0.5248
  953POPC   C4B13928  18.060   4.753   7.325 -0.0384  0.0870 -0.0123
  954POPC   NC313929   0.505   6.943   5.185  0.0147  0.0351 -0.1955
  954POPC   PO413930   0.388   6.600   5.394  0.2719 -0.1700  0.1096
  954POPC   GL113931   0.414   6.826   5.795  0.1570  0.2333  0.0224
  954POPC   GL213932   0.282   6.635   6.018 -0.2860  0.2212  0.2056
  954POPC   C1A13933   0.428   7.092   6.177  0.1672  0.0947  0.3247
  954POPC   D2A13934   0.466   7.457   6.237  0.0378  0.1726 -0.0143
  954POPC   C3A13935   0.193   7.660   6.498 -0.0680 -0.1524 -0.1500
  954POPC   C4A13936   0.112   7.599   6.911 -0.0737  0.2578  0.3032
  954POPC   C1B13937   0.442   6.559   6.486  0.0758  0.1697 -0.0692
  954POPC   C2B13938   0.558   6.302   6.745 -0.0445  0.0486 -0.0092
  954POPC   C3B13939   0.564   6.315   7.161 -0.0450 -0.4636 -0.0041
  954POPC   C4B13940   0.785   6.157   7.445  0.2171 -0.0441 -0.2042
  955POPC   NC313941  11.569   4.384   5.317  0.0616 -0.2626  0.2146
  955POPC   PO413942  11.142   4.598   5.268  0.2965  0.0094  0.0081
  955POPC   GL113943  11.254   4.506   5.682 -0.0926 -0.1100 -0.0951
  955POPC   GL213944  11.226   4.852   5.780  0.2366  0.0947 -0.1963
  955POPC   C1A13945  11.053   4.349   6.064  0.0981 -0.0525 -0.3263
  955POPC   D2A13946  11.129   4.302   6.443 -0.0330  0.0118  0.0312
  955POPC   C3A13947  10.799   4.302   6.763  0.0794  0.1637 -0.1047
  955POPC   C4A13948  10.555   4.042   6.905 -0.0940  0.3628 -0.3457
  955POPC   C1B13949  11.352   4.697   6.208 -0.0029  0.1088 -0.1848
  955POPC   C2B13950  11.692   4.274   6.355  0.0193  0.1937  0.1366
  955POPC   C3B13951  11.894   4.167   6.721  0.2177 -0.0326 -0.1200
  955POPC   C4B13952  11.976   4.273   7.230 -0.0455 -0.1962  0.0929
  956POPC   NC313953   5.399   6.765   5.869  0.1043  0.2251  0.1787
  956POPC   PO413954   5.267   7.078   5.655 -0.0524 -0.1115  0.0175
  956POPC   GL113955   5.346   7.155   6.211 -0.0929 -0.0673  0.1448
  956POPC   GL213956   5.281   7.473   6.205 -0.0469 -0.1976 -0.1585
  956POPC   C1A13957   5.654   7.258   6.462  0.1303 -0.1877 -0.0218
  956POPC   D2A13958   5.754   7.414   6.879  0.1691  0.3114 -0.3572
  956POPC   C3A13959   6.004   7.286   7.140 -0.1765 -0.0240  0.0710
  956POPC   C4A13960   6.231   7.099   7.105 -0.1612 -0.2343  0.1483
  956POPC   C1B13961   5.672   7.752   6.353 -0.3258  0.0692 -0.1439
  956POPC   C2B13962   5.922   7.826   6.719 -0.0940 -0.0222  0.1811
  956POPC   C3B13963   6.238   7.783   7.033  0.0687 -0.2544  0.0345
  956POPC   C4B13964   6.448   8.228   7.214 -0.0436 -0.0736 -0.1058
  957POPC   NC313965   6.009   6.373   5.865  0.3148  0.0551 -0.1109
  957POPC   PO413966   6.001   6.850   5.770  0.2527 -0.3261  0.0646
  957POPC   GL113967   5.981   6.779   6.226  0.0705 -0.0578  0.0539
  957POPC   GL213968   5.677   6.539   6.236 -0.0688 -0.0313 -0.1471
  957POPC   C1A13969   5.991   6.901   6.699 -0.0678 -0.2955  0.0091
  957POPC   D2A13970   5.938   6.665   7.044  0.0416  0.1474 -0.3201
  957POPC   C3A13971   6.302   6.370   7.077 -0.0108 -0.1653 -0.0328
  957POPC   C4A13972   6.643   6.235   7.155  0.0065  0.1714  0.1960
  957POPC   C1B13973   5.531   6.791   6.578  0.1212 -0.0144  0.3332
  957POPC   C2B13974   5.585   6.984   6.923  0.2027 -0.3311  0.1061
  957POPC   C3B13975   5.717   7.011   7.417  0.0364 -0.2357  0.1308
  957POPC   C4B13976   5.781   7.378   7.740  0.3759  0.0788  0.1353
  958POPC   NC313977   0.485  10.648   5.149 -0.2615 -0.1037 -0.2410
  958POPC   PO413978   0.853  10.499   5.107 -0.0783 -0.0334 -0.0444
  958POPC   GL113979   0.788  10.443   5.500 -0.2619 -0.1151 -0.1794
  958POPC   GL213980   1.048  10.755   5.525 -0.2309  0.1966 -0.5015
  958POPC   C1A13981   0.683  10.349   5.937  0.1038 -0.3076  0.1918
  958POPC   D2A13982   0.966  10.291   6.134  0.1425 -0.2240  0.0525
  958POPC   C3A13983   0.964  10.153   6.551 -0.2121 -0.4471  0.0278
  958POPC   C4A13984   0.750  10.124   6.820 -0.0010  0.1392  0.0217
  958POPC   C1B13985   1.296  10.532   5.667 -0.0616 -0.1088  0.1962
  958POPC   C2B13986   1.685  10.412   5.729  0.4157 -0.1924  0.0553
  958POPC   C3B13987   1.887  10.195   6.116 -0.2637  0.0585 -0.1311
  958POPC   C4B13988   1.900   9.923   6.320 -0.2526  0.2558  0.1019
  959POPC   NC313989   8.189   0.536   5.296 -0.0162 -0.2069  0.0778
  959POPC   PO413990   8.112   1.003   5.357 -0.2554  0.0038  0.0823
  959POPC   GL113991   8.276   0.803   5.762 -0.0326 -0.1283  0.4846
  959POPC   GL213992   8.261   0.419   5.773  0.0208 -0.0958  0.1187
  959POPC   C1A13993   8.400   0.581   6.220 -0.0257 -0.1879  0.0398
  959POPC   D2A13994   8.733   0.670   6.368  0.0854 -0.1664  0.0223
  959POPC   C3A13995   9.018   0.401   6.645  0.0455  0.0982 -0.0821
  959POPC   C4A13996   9.068  -0.043   6.776  0.1466  0.1093  0.2618
  959POPC   C1B13997   8.317   0.127   6.019  0.2023 -0.0162 -0.1195
  959POPC   C2B13998   8.238  -0.242   6.155  0.1412  0.1563 -0.2053
  959POPC   C3B13999   8.209  -0.319   6.656  0.1975 -0.0112  0.1162
  959POPC   C4B14000   8.212  -0.209   7.049 -0.0189  0.0632  0.3204
  960POPC   NC314001   3.442  18.618   5.826  0.1312 -0.1447 -0.3871
  960POPC   PO414002   3.039  18.832   6.025  0.1692  0.0882  0.1808
  960POPC   GL114003   2.846  18.952   6.404 -0.1524 -0.2768 -0.1352
  960POPC   GL214004   2.686  18.764   6.561 -0.4263 -0.1999 -0.0867
  960POPC   C1A14005   2.621  19.288   6.633  0.1304 -0.1212 -0.1086
  960POPC   D2A14006   2.478  19.291   7.078 -0.1375  0.1789 -0.1284
  960POPC   C3A14007   2.519  19.200   7.491  0.0573  0.3638  0.0877
  960POPC   C4A14008   2.730  18.897   7.790 -0.0766 -0.1195  0.4742
  960POPC   C1B14009   2.382  18.869   6.917  0.0691  0.3454 -0.0821
  960POPC   C2B14010   2.047  18.953   7.177  0.2249  0.0744  0.0471
  960POPC   C3B14011   2.058  19.045   7.654  0.0761  0.1805 -0.0141
  960POPC   C4B14012   2.347  19.156   8.024  0.1347  0.0472  0.2341
  961POPC   NC314013   9.558   3.090   5.224  0.2551  0.3080 -0.0938
  961POPC   PO414014   9.611   3.548   5.261 -0.0293  0.1626 -0.2655
  961POPC   GL114015   9.648   3.831   5.573 -0.0232 -0.1843  0.0421
  961POPC   GL214016   9.935   3.826   5.689 -0.1853  0.0093 -0.0035
  961POPC   C1A14017   9.446   3.749   5.978  0.1320  0.0771 -0.1004
  961POPC   D2A14018   9.249   3.674   6.312 -0.0915  0.0036  0.2662
  961POPC   C3A14019   9.575   3.765   6.561  0.2841  0.0225 -0.0048
  961POPC   C4A14020   9.851   4.082   6.800  0.1934 -0.0546  0.2610
  961POPC   C1B14021   9.901   3.990   6.101  0.0910  0.0727 -0.3313
  961POPC   C2B14022  10.229   4.066   6.420  0.2099 -0.2074  0.1376
  961POPC   C3B14023  10.264   4.486   6.736 -0.0782 -0.0627 -0.0951
  961POPC   C4B14024  10.229   4.821   7.034  0.3109  0.1262 -0.0097
  962POPC   NC314025  14.996   0.343   5.290  0.1519  0.0631 -0.0092
  962POPC   PO414026  14.538   0.284   5.083  0.1267  0.1798 -0.0030
  962POPC   GL114027  14.562   0.130   5.461  0.4710 -0.0884 -0.0000
  962POPC   GL214028  14.718  -0.137   5.479 -0.0814  0.2150  0.3965
  962POPC   C1A14029  14.167  -0.033   5.716 -0.1307 -0.2228 -0.1241
  962POPC   D2A14030  13.952  -0.355   5.910 -0.3231  0.1108  0.0900
  962POPC   C3A14031  13.707  -0.284   6.312 -0.1363 -0.0560 -0.1291
  962POPC   C4A14032  13.221  -0.271   6.529  0.2588 -0.1925  0.3905
  962POPC   C1B14033  14.699  -0.011   5.902  0.3579  0.2144 -0.2633
  962POPC   C2B14034  14.864   0.040   6.289  0.1736 -0.0126  0.2136
  962POPC   C3B14035  15.067  -0.124   6.544 -0.1804  0.0430  0.4303
  962POPC   C4B14036  15.089  -0.166   6.885  0.0251 -0.1046 -0.0637
  963POPC   NC314037   8.712   7.415   5.363 -0.2685 -0.0756 -0.1630
  963POPC   PO414038   8.538   7.737   5.494  0.1557  0.2756  0.3605
  963POPC   GL114039   8.834   7.721   5.738 -0.1628  0.0934  0.0943
  963POPC   GL214040   9.070   7.902   5.628 -0.1072 -0.4208  0.1945
  963POPC   C1A14041   8.856   7.901   6.139 -0.1852 -0.2280 -0.2144
  963POPC   D2A14042   8.930   7.844   6.539  0.1021 -0.0690 -0.0461
  963POPC   C3A14043   8.601   8.000   6.737 -0.0270  0.3130  0.0134
  963POPC   C4A14044   8.191   7.905   6.716  0.0434  0.2940 -0.0507
  963POPC   C1B14045   9.244   7.550   5.954 -0.1142 -0.1258  0.1526
  963POPC   C2B14046   9.360   7.545   6.343  0.0488  0.1014 -0.3061
  963POPC   C3B14047   9.307   7.600   6.828  0.1191 -0.0123  0.4135
  963POPC   C4B14048   8.943   7.554   7.034 -0.0249 -0.3636 -0.3057
  964POPC   NC314049  19.200   0.233   5.260  0.1008  0.2748  0.1281
  964POPC   PO414050  19.200   0.618   5.568 -0.3260 -0.1309  0.0143
  964POPC   GL114051  18.927   0.525   5.902 -0.2411 -0.1516  0.1329
  964POPC   GL214052  18.594   0.779   5.945  0.0169 -0.2104 -0.2610
  964POPC   C1A14053  18.815   0.456   6.281  0.0092  0.1220  0.0832
  964POPC   D2A14054  18.951   0.208   6.613 -0.1176  0.0831  0.2680
  964POPC   C3A14055  18.724   0.376   7.033  0.3114  0.2767  0.3612
  964POPC   C4A14056  18.415   0.661   6.940 -0.1427  0.3249 -0.1712
  964POPC   C1B14057  18.295   1.018   6.065  0.1217 -0.1853  0.2310
  964POPC   C2B14058  18.168   1.190   6.397  0.0598 -0.0657  0.2263
  964POPC   C3B14059  17.887   1.250   6.761  0.0279  0.1481  0.0110
  964POPC   C4B14060  17.609   1.314   7.070 -0.3220  0.0231 -0.0777
  965POPC   NC314061  12.286  18.522   4.948 -0.1619 -0.0973 -0.0440
  965POPC   PO414062  12.596  18.165   4.900 -0.0465 -0.0917 -0.1672
  965POPC   GL114063  12.254  18.026   5.148 -0.0141  0.1675 -0.1912
  965POPC   GL214064  12.369  17.759   5.179  0.4330  0.0250 -0.1650
  965POPC   C1A14065  11.994  18.082   5.409 -0.1552 -0.0254  0.0542
  965POPC   D2A14066  11.861  18.339   5.761 -0.1323 -0.0803  0.3093
  965POPC   C3A14067  12.140  18.613   5.779 -0.0721  0.5508 -0.2452
  965POPC   C4A14068  12.266  18.926   5.708 -0.1073 -0.2598  0.1823
  965POPC   C1B14069  12.445  17.908   5.626 -0.1767 -0.1077  0.0221
  965POPC   C2B14070  12.392  17.987   6.076 -0.2384  0.2175 -0.1902
  965POPC   C3B14071  12.301  18.093   6.543  0.0471 -0.1663 -0.1499
  965POPC   C4B14072  12.219  17.827   6.924 -0.2121  0.1894 -0.0196
  966POPC   NC314073  18.460   5.921   5.298 -0.2462  0.0086 -0.4069
  966POPC   PO414074  18.127   5.760   5.379  0.1203  0.0848  0.0544
  966POPC   GL114075  18.166   5.877   5.796  0.0192 -0.2006 -0.1103
  966POPC   GL214076  18.332   6.043   5.978 -0.4614  0.0383  0.1284
  966POPC   C1A14077  18.007   5.766   6.229 -0.1242 -0.0327  0.4123
  966POPC   D2A14078  18.120   5.609   6.535 -0.0164  0.1364  0.4751
  966POPC   C3A14079  18.239   5.805   6.918 -0.0330  0.0701 -0.0064
  966POPC   C4A14080  18.338   5.790   7.297 -0.1982 -0.0501  0.0733
  966POPC   C1B14081  18.437   5.972   6.346  0.0659  0.4483 -0.3727
  966POPC   C2B14082  18.447   6.188   6.822  0.0081  0.2641  0.1492
  966POPC   C3B14083  18.285   6.365   7.202  0.1247  0.1890  0.0175
  966POPC   C4B14084  18.571   6.331   7.489 -0.0428 -0.3271  0.3137
  967POPC   NC314085   6.467   9.830   5.267 -0.1988 -0.2605 -0.0002
  967POPC   PO414086   6.819   9.662   4.996 -0.1427  0.1463 -0.2158
  967POPC   GL114087   7.003   9.655   5.476 -0.1428 -0.1460 -0.1125
  967POPC   GL214088   6.972   9.403   5.694  0.3485  0.1417  0.2211
  967POPC   C1A14089   7.025   9.857   5.932  0.2290 -0.1673 -0.2070
  967POPC   D2A14090   7.066   9.985   6.369 -0.1554 -0.2178 -0.1954
  967POPC   C3A14091   6.858  10.301   6.597  0.2503  0.0403  0.2192
  967POPC   C4A14092   6.534  10.347   6.953 -0.1388 -0.3037 -0.0848
  967POPC   C1B14093   7.019   9.398   6.204  0.2612 -0.2884  0.1820
  967POPC   C2B14094   7.210   9.575   6.574 -0.0390 -0.4210 -0.0225
  967POPC   C3B14095   7.395   9.573   6.967 -0.1790  0.3100 -0.0751
  967POPC   C4B14096   7.334   9.542   7.517 -0.2576  0.1110  0.5604
  968POPC   NC314097  17.230   9.914   5.319 -0.2855 -0.0337  0.0541
  968POPC   PO414098  16.838   9.754   5.420 -0.1832  0.2103  0.0583
  968POPC   GL114099  17.080   9.831   5.800 -0.1868  0.1145 -0.1709
  968POPC   GL214100  17.312   9.814   6.001  0.2281  0.1692  0.0797
  968POPC   C1A14101  16.743   9.657   6.261 -0.3417 -0.0821 -0.1482
  968POPC   D2A14102  16.373   9.679   6.543 -0.4733 -0.2667  0.0751
  968POPC   C3A14103  16.177  10.012   6.812  0.2858 -0.1836 -0.0780
  968POPC   C4A14104  15.877  10.402   7.053 -0.3003  0.1724  0.3355
  968POPC   C1B14105  17.205   9.943   6.465  0.0776 -0.0612 -0.0730
  968POPC   C2B14106  16.935   9.793   6.757 -0.1325  0.0108  0.1140
  968POPC   C3B14107  16.574   9.628   7.009  0.0922 -0.0980 -0.0368
  968POPC   C4B14108  16.343   9.731   7.227 -0.3664 -0.2517  0.1972
  969POPC   NC314109  14.839  12.785   4.852 -0.0896 -0.2429 -0.1683
  969POPC   PO414110  15.229  12.886   4.734 -0.0550 -0.0094  0.1402
  969POPC   GL114111  15.237  12.960   5.193  0.0206 -0.0252  0.3045
  969POPC   GL214112  15.037  12.829   5.313  0.2675  0.0377 -0.2196
  969POPC   C1A14113  15.289  13.016   5.693  0.0138  0.0416  0.2392
  969POPC   D2A14114  15.233  13.249   6.127  0.2235  0.2030 -0.0831
  969POPC   C3A14115  14.903  13.098   6.389  0.1105 -0.1189  0.0561
  969POPC   C4A14116  14.724  12.711   6.419  0.1601  0.1815  0.1990
  969POPC   C1B14117  15.193  12.551   5.664  0.2107 -0.0894  0.0321
  969POPC   C2B14118  15.276  12.162   5.802  0.0878  0.1192 -0.1456
  969POPC   C3B14119  15.486  11.936   5.955  0.1074 -0.0579 -0.3702
  969POPC   C4B14120  15.556  11.997   6.385 -0.1660 -0.1620  0.3178
  970POPC   NC314121   2.545   5.018   5.462 -0.1390  0.1197 -0.1426
  970POPC   PO414122   2.829   5.401   5.819  0.2408 -0.0099 -0.0891
  970POPC   GL114123   2.848   5.374   6.283  0.2593 -0.2322 -0.6218
  970POPC   GL214124   2.584   5.255   6.346 -0.1852  0.1288  0.1521
  970POPC   C1A14125   2.818   5.684   6.582 -0.0734 -0.2329  0.2099
  970POPC   D2A14126   2.825   5.839   6.854  0.1658  0.0558 -0.1912
  970POPC   C3A14127   3.059   5.722   7.315 -0.1296  0.2024 -0.2174
  970POPC   C4A14128   3.535   5.504   7.386 -0.1910  0.0604 -0.3645
  970POPC   C1B14129   2.561   5.305   6.734  0.0381 -0.0438 -0.3740
  970POPC   C2B14130   2.336   5.061   7.124  0.0541  0.1466 -0.3317
  970POPC   C3B14131   2.340   5.088   7.526 -0.0261  0.1366  0.2897
  970POPC   C4B14132   2.548   4.975   7.922  0.1611 -0.0335 -0.2855
  971YOPC   NC314133   4.196   1.996   4.904 -0.5212  0.2832  0.2491
  971YOPC   PO414134   4.488   2.140   5.313  0.1081 -0.0972 -0.4048
  971YOPC   GL114135   4.278   2.028   5.828 -0.0095 -0.1427  0.1699
  971YOPC   GL214136   4.436   1.694   5.929  0.1331 -0.0799 -0.0363
  971YOPC   C1A14137   3.906   2.150   6.141  0.3397  0.0593 -0.1890
  971YOPC   D2A14138   3.598   2.394   6.388 -0.2516 -0.2721  0.1815
  971YOPC   C3A14139   3.799   2.500   6.708 -0.0825  0.0558  0.0583
  971YOPC   C4A14140   4.064   2.405   7.112 -0.2604  0.0477  0.2163
  971YOPC   C1B14141   4.518   1.783   6.396  0.3539 -0.1453 -0.1018
  971YOPC   C2B14142   4.435   1.607   6.815  0.2777  0.3196 -0.1708
  971YOPC   D3B14143   4.632   1.229   7.109 -0.1760  0.1623 -0.1695
  971YOPC   C4B14144   4.952   1.030   7.384  0.2607 -0.3009 -0.0208
  972YOPC   NC314145  11.760  17.168   4.987 -0.1683  0.0695 -0.3448
  972YOPC   PO414146  11.326  17.122   5.128  0.0606 -0.1923 -0.1248
  972YOPC   GL114147  11.671  16.804   5.347 -0.0606 -0.0944  0.1787
  972YOPC   GL214148  11.719  16.656   5.082  0.0116  0.0664 -0.1641
  972YOPC   C1A14149  11.901  16.516   5.739  0.4284  0.0882  0.3382
  972YOPC   D2A14150  11.779  16.453   6.209  0.1915 -0.1561  0.3260
  972YOPC   C3A14151  11.772  16.185   6.580 -0.0158  0.3852 -0.1632
  972YOPC   C4A14152  11.895  16.075   6.988  0.0133 -0.1439 -0.1524
  972YOPC   C1B14153  12.125  16.387   5.270 -0.0650  0.0526 -0.1810
  972YOPC   C2B14154  12.458  16.250   5.598 -0.1177 -0.0888 -0.0141
  972YOPC   D3B14155  12.534  16.348   5.975 -0.0181 -0.1287  0.1808
  972YOPC   C4B14156  12.437  16.595   6.322 -0.0904  0.3645 -0.1414
  973YOPC   NC314157  10.471  10.631   5.027  0.0910  0.0542  0.2743
  973YOPC   PO414158  10.674  11.054   5.095 -0.3128 -0.1491 -0.3900
  973YOPC   GL114159  10.877  11.002   5.439  0.1840  0.3383  0.2802
  973YOPC   GL214160  10.605  11.181   5.676 -0.1584 -0.1427  0.1408
  973YOPC   C1A14161  10.775  10.719   5.750 -0.2159 -0.3376 -0.2136
  973YOPC   D2A14162  10.754  10.481   6.136  0.1570 -0.0032 -0.2070
  973YOPC   C3A14163  10.404  10.287   6.373 -0.1063  0.3473  0.2264
  973YOPC   C4A14164  10.211  10.474   6.686  0.0312 -0.2755 -0.1862
  973YOPC   C1B14165  10.689  11.384   6.091 -0.0909 -0.2799 -0.0696
  973YOPC   C2B14166  10.976  11.430   6.431 -0.1650 -0.2952 -0.2546
  973YOPC   D3B14167  10.900  11.709   6.834  0.3096 -0.2060 -0.2361
  973YOPC   C4B14168  10.901  11.966   7.149  0.1171  0.1827 -0.0276
  974YOPC   NC314169   3.335   2.557   5.754 -0.1707  0.1314 -0.1714
  974YOPC   PO414170   2.924   2.246   5.866  0.4841  0.0646 -0.0302
  974YOPC   GL114171   2.988   2.490   6.228 -0.3660 -0.2742  0.1328
  974YOPC   GL214172   3.178   2.112   6.373 -0.0493  0.2953 -0.1507
  974YOPC   C1A14173   2.898   2.797   6.493 -0.1109 -0.2836  0.2694
  974YOPC   D2A14174   2.503   2.996   6.616 -0.0069  0.1384 -0.2036
  974YOPC   C3A14175   2.334   2.993   7.034 -0.0204 -0.2256 -0.1928
  974YOPC   C4A14176   2.131   2.893   7.447 -0.3005  0.1904  0.1354
  974YOPC   C1B14177   3.058   1.842   6.788 -0.0075  0.0218 -0.0156
  974YOPC   C2B14178   2.837   1.586   6.997 -0.2143  0.5533 -0.0050
  974YOPC   D3B14179   2.467   1.385   6.869 -0.1551  0.1461 -0.1331
  974YOPC   C4B14180   2.156   1.139   6.948 -0.0462  0.2678  0.0411
  975YOPC   NC314181  14.733  11.159   4.772  0.3041 -0.2985  0.2785
  975YOPC   PO414182  14.475  10.864   4.696 -0.0352  0.1921  0.0690
  975YOPC   GL114183  14.392  10.810   5.117 -0.0021  0.1212  0.2840
  975YOPC   GL214184  14.409  11.049   5.427 -0.0019  0.0239  0.3285
  975YOPC   C1A14185  14.198  10.561   5.507  0.0728 -0.3063  0.1157
  975YOPC   D2A14186  14.156  10.531   5.890  0.3456 -0.3015 -0.1006
  975YOPC   C3A14187  14.081  10.556   6.219  0.3621  0.0848 -0.2979
  975YOPC   C4A14188  13.875  10.478   6.610 -0.0109  0.1937 -0.4849
  975YOPC   C1B14189  14.753  10.860   5.528  0.0338  0.1980  0.0833
  975YOPC   C2B14190  15.187  10.570   5.535 -0.0037  0.0526  0.2128
  975YOPC   D3B14191  15.228  10.176   5.889  0.0719  0.2088 -0.2234
  975YOPC   C4B14192  15.255   9.794   6.197  0.1133  0.1346  0.1288
  976YOPC   NC314193  12.119  11.168   4.905  0.2782 -0.0368  0.2108
  976YOPC   PO414194  12.610  11.245   4.956  0.4645 -0.2111  0.1695
  976YOPC   GL114195  12.503  11.250   5.342 -0.2855 -0.3333  0.0920
  976YOPC   GL214196  12.654  10.959   5.422 -0.0456 -0.1509 -0.0925
  976YOPC   C1A14197  12.543  11.648   5.585 -0.1330  0.3124 -0.3083
  976YOPC   D2A14198  12.265  11.772   5.886 -0.0732 -0.1688  0.1551
  976YOPC   C3A14199  11.910  11.583   6.147  0.0273  0.0802  0.0837
  976YOPC   C4A14200  11.477  11.535   6.311  0.0204  0.1369 -0.0538
  976YOPC   C1B14201  12.682  11.113   5.809  0.0467  0.2772 -0.2975
  976YOPC   C2B14202  12.739  11.476   5.997 -0.1076  0.1109 -0.0693
  976YOPC   D3B14203  12.377  11.290   6.389  0.1169  0.1843  0.2452
  976YOPC   C4B14204  12.196  10.976   6.533 -0.0616 -0.1840  0.2092
  977YOPC   NC314205  10.553   4.219   4.996 -0.1264  0.0495  0.0977
  977YOPC   PO414206  10.594   3.821   5.166 -0.0092  0.5157  0.1210
  977YOPC   GL114207  10.853   3.666   5.404 -0.1363  0.0299 -0.0143
  977YOPC   GL214208  10.879   3.316   5.424 -0.2506 -0.0827  0.0248
  977YOPC   C1A14209  10.944   3.753   5.901  0.2364 -0.1917 -0.3033
  977YOPC   D2A14210  10.772   3.948   6.363 -0.1644  0.0946 -0.1072
  977YOPC   C3A14211  10.524   3.690   6.492  0.0926 -0.1568 -0.3505
  977YOPC   C4A14212  10.655   3.259   6.793 -0.0079  0.1829  0.0690
  977YOPC   C1B14213  10.783   3.123   5.891  0.2787  0.0464 -0.0283
  977YOPC   C2B14214  10.897   3.357   6.228  0.0365  0.0027  0.2724
  977YOPC   D3B14215  11.046   3.597   6.607 -0.0984  0.3203  0.0790
  977YOPC   C4B14216  11.054   3.895   6.961 -0.0250  0.0103 -0.1055
  978YOPC   NC314217   4.995  12.292   5.478 -0.0760 -0.0431 -0.0574
  978YOPC   PO414218   4.963  12.770   5.363  0.0765  0.2202  0.0664
  978YOPC   GL114219   5.067  12.721   5.847 -0.3585  0.3466  0.0089
  978YOPC   GL214220   4.908  13.019   6.066  0.2631  0.2730  0.3709
  978YOPC   C1A14221   5.280  12.587   6.198 -0.2941 -0.0671 -0.0500
  978YOPC   D2A14222   5.277  12.808   6.544  0.0839  0.0718 -0.2771
  978YOPC   C3A14223   5.367  12.988   6.999  0.1870  0.2707 -0.0209
  978YOPC   C4A14224   5.086  12.935   7.347 -0.3296  0.0139  0.0857
  978YOPC   C1B14225   4.784  12.772   6.413 -0.1987 -0.0344  0.0264
  978YOPC   C2B14226   4.683  12.440   6.747 -0.3547  0.3290 -0.2329
  978YOPC   D3B14227   4.378  12.077   6.633  0.1821 -0.0649 -0.0430
  978YOPC   C4B14228   4.225  12.109   6.239  0.0560 -0.2333 -0.0343
  979YOPC   NC314229  17.269  12.264   5.322  0.2632 -0.2905 -0.0425
  979YOPC   PO414230  17.570  12.605   5.108 -0.1347 -0.3112 -0.1895
  979YOPC   GL114231  17.669  12.738   5.522  0.0190 -0.0235 -0.1802
  979YOPC   GL214232  17.329  12.802   5.731 -0.1475 -0.1671 -0.0640
  979YOPC   C1A14233  17.715  12.641   6.038  0.0623 -0.2348  0.1969
  979YOPC   D2A14234  17.662  12.565   6.540  0.0278  0.0737  0.0194
  979YOPC   C3A14235  17.409  12.242   6.860 -0.0124 -0.2779  0.0908
  979YOPC   C4A14236  17.038  11.868   6.888  0.2745 -0.1040  0.0570
  979YOPC   C1B14237  17.256  12.793   6.180  0.4208 -0.0683  0.1205
  979YOPC   C2B14238  17.238  12.831   6.583  0.0873  0.1032 -0.1388
  979YOPC   D3B14239  17.005  12.948   6.976 -0.0510 -0.1060 -0.0648
  979YOPC   C4B14240  16.790  13.304   7.102  0.0460 -0.0520  0.0032
  980YOPC   NC314241  16.676  15.996   4.617  0.0732  0.2887  0.1606
  980YOPC   PO414242  16.484  15.537   4.645  0.0741  0.2367 -0.0396
  980YOPC   GL114243  16.217  15.451   4.996  0.1440 -0.2154  0.1674
  980YOPC   GL214244  16.214  15.357   5.214 -0.0166  0.0385 -0.0792
  980YOPC   C1A14245  15.898  15.701   5.341  0.0999 -0.0578 -0.2066
  980YOPC   D2A14246  15.838  15.648   5.768 -0.1720 -0.0636 -0.2511
  980YOPC   C3A14247  15.420  15.609   5.987 -0.0810  0.1529  0.1849
  980YOPC   C4A14248  15.206  15.646   6.405 -0.1898  0.0879  0.0283
  980YOPC   C1B14249  16.316  15.560   5.622 -0.1496 -0.2314 -0.2405
  980YOPC   C2B14250  16.372  15.695   5.985  0.4008 -0.3166  0.3384
  980YOPC   D3B14251  15.992  15.672   6.273  0.0242  0.2002 -0.3588
  980YOPC   C4B14252  15.724  15.346   6.498  0.3679 -0.3789 -0.0640
  981YOPC   NC314253  11.974   4.131   5.490  0.0993  0.1195 -0.3165
  981YOPC   PO414254  11.891   3.714   5.457  0.2509  0.0688  0.2345
  981YOPC   GL114255  12.030   3.858   5.869 -0.0810 -0.0392  0.1137
  981YOPC   GL214256  12.207   4.026   5.898  0.2197 -0.2397 -0.2276
  981YOPC   C1A14257  12.196   3.545   6.170 -0.0334 -0.1444  0.1601
  981YOPC   D2A14258  12.162   3.461   6.551  0.1418 -0.0498 -0.0796
  981YOPC   C3A14259  11.760   3.403   6.762  0.0413 -0.2382  0.1257
  981YOPC   C4A14260  11.477   3.596   6.963  0.0957  0.3840 -0.0098
  981YOPC   C1B14261  12.277   4.053   6.320  0.3254  0.3790 -0.3088
  981YOPC   C2B14262  12.264   3.930   6.691  0.0545 -0.0218 -0.1243
  981YOPC   D3B14263  12.552   3.675   6.845 -0.1607 -0.0505 -0.2975
  981YOPC   C4B14264  12.836   3.318   7.059 -0.2282 -0.1715 -0.2691
  982YOPC   NC314265   3.322  12.520   5.361 -0.3785 -0.1565 -0.1868
  982YOPC   PO414266   3.082  12.260   5.263  0.2212  0.1391 -0.0178
  982YOPC   GL114267   2.696  12.303   5.604  0.1876 -0.0315  0.0314
  982YOPC   GL214268   2.638  12.033   5.792 -0.1951  0.1600 -0.2219
  982YOPC   C1A14269   2.404  12.463   6.006  0.2274  0.0955 -0.1634
  982YOPC   D2A14270   2.280  12.332   6.432 -0.1024  0.1340 -0.3349
  982YOPC   C3A14271   2.594  12.166   6.744  0.3038 -0.1673  0.0645
  982YOPC   C4A14272   2.814  12.005   7.024 -0.1301  0.0481 -0.1249
  982YOPC   C1B14273   2.991  11.877   6.004 -0.0014 -0.3428  0.1158
  982YOPC   C2B14274   3.305  11.557   6.064  0.1208  0.3532 -0.4356
  982YOPC   D3B14275   3.590  11.596   6.520 -0.2139  0.4245  0.2408
  982YOPC   C4B14276   3.598  11.427   7.020  0.3717  0.1988 -0.1218
  983YOPC   NC314277   6.504   1.575   5.572 -0.4517  0.1984  0.1090
  983YOPC   PO414278   6.269   1.233   5.497 -0.1462 -0.0618 -0.2994
  983YOPC   GL114279   6.167   1.351   5.891  0.0091  0.2533  0.4135
  983YOPC   GL214280   5.918   1.080   5.901 -0.1637 -0.0476  0.0869
  983YOPC   C1A14281   6.370   1.324   6.220 -0.0276  0.1604  0.1965
  983YOPC   D2A14282   6.689   1.404   6.528 -0.2554  0.0082  0.0333
  983YOPC   C3A14283   7.169   1.525   6.216  0.1403 -0.2349  0.1664
  983YOPC   C4A14284   7.109   1.723   5.849  0.0000 -0.0868 -0.0127
  983YOPC   C1B14285   5.853   1.334   6.291  0.1552 -0.1712 -0.2454
  983YOPC   C2B14286   5.764   1.168   6.653  0.1212 -0.0792  0.2086
  983YOPC   D3B14287   5.640   1.499   7.008 -0.0262 -0.1780 -0.1989
  983YOPC   C4B14288   5.385   1.821   7.116  0.3656 -0.1074  0.2398
  984YOPC   NC314289   0.687  15.184   5.321  0.0685 -0.0350 -0.1082
  984YOPC   PO414290   0.300  14.889   5.415  0.2160  0.2649  0.0626
  984YOPC   GL114291   0.321  14.875   5.885 -0.0115 -0.0961  0.0887
  984YOPC   GL214292   0.626  14.821   5.897 -0.3220  0.2052  0.0593
  984YOPC   C1A14293   0.179  14.907   6.368 -0.2225  0.1885  0.2810
  984YOPC   D2A14294   0.061  14.668   6.748  0.1888  0.1138  0.1169
  984YOPC   C3A14295  -0.328  14.758   6.961 -0.1342 -0.0387 -0.0539
  984YOPC   C4A14296  -0.649  14.580   7.153  0.2321  0.1130 -0.1255
  984YOPC   C1B14297   0.668  14.914   6.304  0.1703  0.0771 -0.1054
  984YOPC   C2B14298   0.545  14.702   6.617 -0.0034 -0.0753 -0.1807
  984YOPC   D3B14299   0.690  14.318   6.620 -0.0371 -0.3639 -0.2847
  984YOPC   C4B14300   0.663  13.876   6.527 -0.1372  0.1814  0.0950
  985YOPC   NC314301  19.154   4.956   5.918 -0.1754  0.1065 -0.0423
  985YOPC   PO414302  19.490   5.222   5.772  0.1625 -0.1416  0.0790
  985YOPC   GL114303  19.442   5.268   6.164  0.1881  0.0643  0.1482
  985YOPC   GL214304  19.740   5.419   6.243  0.1487 -0.3746 -0.1734
  985YOPC   C1A14305  19.261   5.452   6.480  0.0992  0.1808 -0.0748
  985YOPC   D2A14306  19.325   5.700   6.934  0.3583 -0.0497 -0.0582
  985YOPC   C3A14307  19.534   5.548   7.189  0.4795 -0.3422 -0.0993
  985YOPC   C4A14308  19.417   5.469   7.516  0.1135  0.0500  0.2229
  985YOPC   C1B14309  19.768   5.619   6.604 -0.0250  0.1389 -0.0900
  985YOPC   C2B14310  19.785   5.908   6.927 -0.0217  0.1787 -0.0259
  985YOPC   D3B14311  19.929   5.796   7.345  0.1908  0.2165 -0.0118
  985YOPC   C4B14312  19.646   5.789   7.796  0.2621 -0.3819  0.0823
  986YOPC   NC314313   6.140   5.121   5.216  0.0402 -0.0020  0.0209
  986YOPC   PO414314   6.515   5.185   5.560  0.1788 -0.0489 -0.1172
  986YOPC   GL114315   6.505   5.497   5.822 -0.0675 -0.1221 -0.0935
  986YOPC   GL214316   6.705   5.409   6.074  0.0214  0.2559 -0.0995
  986YOPC   C1A14317   6.213   5.432   6.200  0.1865 -0.2972 -0.3593
  986YOPC   D2A14318   5.989   5.372   6.573 -0.0080 -0.1332 -0.1145
  986YOPC   C3A14319   6.141   5.387   7.051  0.4968  0.0492 -0.2115
  986YOPC   C4A14320   6.161   5.699   7.351  0.0046  0.0891  0.0212
  986YOPC   C1B14321   6.930   5.720   6.308 -0.3219  0.0874 -0.1081
  986YOPC   C2B14322   6.906   5.968   6.516 -0.0593  0.0807 -0.1328
  986YOPC   D3B14323   7.076   5.879   7.013  0.1096  0.1269 -0.0650
  986YOPC   C4B14324   7.245   5.748   7.376  0.0282  0.1378  0.1909
  987YOPC   NC314325  11.199   2.661   4.689  0.1526  0.1994 -0.1259
  987YOPC   PO414326  11.345   2.410   5.067 -0.1060  0.1115 -0.1877
  987YOPC   GL114327  11.350   2.529   5.488  0.1516  0.0698 -0.1084
  987YOPC   GL214328  11.066   2.748   5.565  0.0196  0.0681  0.1115
  987YOPC   C1A14329  11.277   2.367   5.869 -0.4419  0.4501 -0.0925
  987YOPC   D2A14330  11.453   2.359   6.237  0.1463 -0.2347  0.4646
  987YOPC   C3A14331  11.221   2.669   6.489  0.1526 -0.0236 -0.0945
  987YOPC   C4A14332  10.898   2.847   6.575  0.0112  0.0000  0.3187
  987YOPC   C1B14333  11.594   2.932   5.649 -0.0243 -0.1563 -0.0452
  987YOPC   C2B14334  11.773   2.681   5.980  0.0961  0.2791  0.3226
  987YOPC   D3B14335  12.267   2.572   6.133  0.0566 -0.0425 -0.1636
  987YOPC   C4B14336  12.290   2.494   6.594  0.1087  0.2705 -0.1660
  988YOPC   NC314337   4.202   5.489   5.610 -0.1861 -0.1389 -0.1156
  988YOPC   PO414338   4.069   5.903   5.592 -0.2538  0.4226  0.0775
  988YOPC   GL114339   4.046   5.792   5.983 -0.2585 -0.1905  0.0156
  988YOPC   GL214340   4.255   5.972   6.171  0.5129  0.1127 -0.0186
  988YOPC   C1A14341   3.911   5.779   6.434  0.2729  0.1548  0.3303
  988YOPC   D2A14342   3.694   5.715   6.936  0.2088 -0.3768  0.1567
  988YOPC   C3A14343   3.313   6.016   6.874  0.0573 -0.1412 -0.1979
  988YOPC   C4A14344   3.085   6.230   7.131  0.2655  0.0523  0.3387
  988YOPC   C1B14345   4.159   6.125   6.639 -0.5788 -0.2026  0.0745
  988YOPC   C2B14346   3.840   6.225   6.859  0.0957  0.2079 -0.0552
  988YOPC   D3B14347   3.616   6.089   7.265 -0.1172 -0.1493  0.1002
  988YOPC   C4B14348   3.354   5.936   7.662 -0.0576 -0.0295  0.1614
  989YOPC   NC314349  18.447  12.444   4.827  0.1394 -0.0091 -0.5179
  989YOPC   PO414350  18.355  12.256   5.267 -0.3409  0.1850  0.0742
  989YOPC   GL114351  18.255  12.353   5.655  0.0198 -0.1550  0.0339
  989YOPC   GL214352  18.102  12.130   5.778 -0.1798  0.0826 -0.1110
  989YOPC   C1A14353  18.224  12.635   5.967 -0.3888 -0.0722 -0.2086
  989YOPC   D2A14354  18.475  12.968   6.061  0.0850 -0.2155  0.4186
  989YOPC   C3A14355  18.873  12.920   6.432  0.2010  0.3052  0.1227
  989YOPC   C4A14356  19.081  12.561   6.505 -0.1255 -0.1431  0.2548
  989YOPC   C1B14357  18.127  12.163   6.113  0.0387 -0.1948  0.1810
  989YOPC   C2B14358  18.132  12.260   6.547  0.0089  0.0392 -0.0777
  989YOPC   D3B14359  18.336  12.063   6.857  0.0623 -0.1471  0.1082
  989YOPC   C4B14360  18.532  11.781   6.929 -0.0790  0.4800 -0.0821
  990YOPC   NC314361   7.821  11.045   4.845  0.1270 -0.6181 -0.0145
  990YOPC   PO414362   7.723  10.594   4.876 -0.0312 -0.0645  0.1541
  990YOPC   GL114363   7.707  10.683   5.313 -0.1755 -0.0810 -0.1817
  990YOPC   GL214364   7.754  10.443   5.427  0.0437  0.0853  0.2409
  990YOPC   C1A14365   7.968  10.844   5.616 -0.0709  0.0819  0.0901
  990YOPC   D2A14366   8.409  10.995   5.641  0.0939  0.2048  0.1815
  990YOPC   C3A14367   8.721  10.772   5.671 -0.2022 -0.2938  0.1464
  990YOPC   C4A14368   8.842  10.255   5.561 -0.1729  0.0710 -0.0235
  990YOPC   C1B14369   7.679  10.385   5.838 -0.0800 -0.2106  0.2104
  990YOPC   C2B14370   7.635  10.007   6.156 -0.0623  0.1780 -0.0326
  990YOPC   D3B14371   7.488  10.001   6.625  0.1279 -0.0039  0.0006
  990YOPC   C4B14372   7.747  10.222   6.912 -0.0306 -0.1470 -0.0566
  991YOPC   NC314373  10.539  16.120   4.774 -0.1083  0.0664  0.1388
  991YOPC   PO414374  10.300  15.668   4.812 -0.0292 -0.1645 -0.2459
  991YOPC   GL114375  10.542  15.555   5.192 -0.2612 -0.3761  0.0096
  991YOPC   GL214376  10.372  15.737   5.466 -0.7253  0.2623  0.2565
  991YOPC   C1A14377  10.847  15.589   5.387  0.0205 -0.0113 -0.0333
  991YOPC   D2A14378  11.283  15.625   5.566 -0.0574  0.2790  0.1565
  991YOPC   C3A14379  11.579  15.556   5.829 -0.2690  0.0188  0.0572
  991YOPC   C4A14380  11.790  15.674   6.193 -0.0525 -0.0719  0.0697
  991YOPC   C1B14381  10.374  16.111   5.811 -0.0823  0.1207  0.5299
  991YOPC   C2B14382  10.264  16.433   5.984  0.0716  0.0850  0.1657
  991YOPC   D3B14383   9.908  16.470   6.152  0.0086  0.0062 -0.0342
  991YOPC   C4B14384   9.600  16.638   6.133  0.0427 -0.1593 -0.0251
  992YOPC   NC314385  19.251   1.708   5.427  0.1427  0.0147 -0.1866
  992YOPC   PO414386  19.216   2.007   5.784 -0.1325 -0.1663  0.2691
  992YOPC   GL114387  19.414   2.027   6.269  0.0799 -0.0795 -0.0777
  992YOPC   GL214388  19.389   2.334   6.286 -0.0894 -0.1178 -0.2953
  992YOPC   C1A14389  19.382   1.782   6.628 -0.2287  0.3896  0.1827
  992YOPC   D2A14390  19.291   1.451   6.930  0.0814  0.2175  0.2279
  992YOPC   C3A14391  19.027   1.573   7.260 -0.0773  0.1624 -0.2203
  992YOPC   C4A14392  18.886   1.687   7.660 -0.1920  0.1977 -0.0173
  992YOPC   C1B14393  19.175   2.266   6.670  0.3227 -0.3041 -0.1625
  992YOPC   C2B14394  18.916   2.348   7.033 -0.0727 -0.0211  0.4056
  992YOPC   D3B14395  18.824   2.136   7.445 -0.2199  0.0667  0.2616
  992YOPC   C4B14396  18.700   2.086   7.908  0.1412  0.0160 -0.1666
  993YOPC   NC314397  14.265  13.349   4.460 -0.2485 -0.1691  0.1559
  993YOPC   PO414398  14.475  13.169   4.831 -0.0835 -0.2683  0.1950
  993YOPC   GL114399  14.437  13.250   5.230 -0.0699 -0.0290  0.4771
  993YOPC   GL214400  14.146  13.335   5.437  0.2800 -0.1493  0.1031
  993YOPC   C1A14401  14.622  13.041   5.600  0.2049  0.1539 -0.1758
  993YOPC   D2A14402  14.763  12.901   5.931  0.0675 -0.1523  0.2686
  993YOPC   C3A14403  15.150  12.733   6.151 -0.0218 -0.2865  0.3084
  993YOPC   C4A14404  15.423  12.481   6.120 -0.0181 -0.0628 -0.2093
  993YOPC   C1B14405  14.416  13.551   5.688 -0.0114 -0.0961 -0.0629
  993YOPC   C2B14406  14.601  13.811   6.004 -0.2544 -0.1799  0.1042
  993YOPC   D3B14407  14.480  14.063   6.302 -0.1572 -0.1255 -0.0309
  993YOPC   C4B14408  14.799  14.317   6.521 -0.2018  0.0979  0.1848
  994YOPC   NC314409   3.034  10.197   4.931  0.1523 -0.0102  0.3564
  994YOPC   PO414410   3.417  10.429   4.928  0.0589 -0.0435  0.0785
  994YOPC   GL114411   3.173  10.598   5.394 -0.1927 -0.1972 -0.2893
  994YOPC   GL214412   2.879  10.384   5.469  0.2242  0.2391  0.4086
  994YOPC   C1A14413   3.118  10.916   5.687 -0.0410  0.0025 -0.1024
  994YOPC   D2A14414   3.427  11.045   5.955 -0.2257 -0.0555  0.0507
  994YOPC   C3A14415   3.252  11.084   6.320  0.0754 -0.2067 -0.0172
  994YOPC   C4A14416   3.299  11.058   6.710 -0.1476  0.0830 -0.0187
  994YOPC   C1B14417   2.827  10.551   5.877 -0.3289 -0.0885 -0.0568
  994YOPC   C2B14418   2.828  10.863   6.209 -0.1362 -0.0595  0.0230
  994YOPC   D3B14419   2.358  11.006   6.297 -0.0897  0.2261 -0.3203
  994YOPC   C4B14420   1.910  11.093   6.480  0.2404 -0.0014  0.0039
  995YOPC   NC314421  15.342  16.260   4.193 -0.1727  0.0748 -0.0096
  995YOPC   PO414422  15.166  16.603   4.559  0.0537 -0.2247 -0.1816
  995YOPC   GL114423  14.939  16.604   4.979  0.2480  0.0289 -0.0834
  995YOPC   GL214424  15.067  16.458   5.205 -0.0625 -0.0710 -0.3426
  995YOPC   C1A14425  14.633  16.828   5.289 -0.0842 -0.2650  0.0924
  995YOPC   D2A14426  14.379  16.960   5.539 -0.2307 -0.0125 -0.0038
  995YOPC   C3A14427  14.427  16.690   5.792  0.1039  0.2141 -0.0817
  995YOPC   C4A14428  14.810  16.620   6.045  0.1482  0.0738 -0.0011
  995YOPC   C1B14429  15.263  16.652   5.618  0.0483 -0.0053 -0.2896
  995YOPC   C2B14430  15.288  16.760   6.063 -0.1428  0.1872 -0.1341
  995YOPC   D3B14431  15.484  16.631   6.454  0.0186  0.0416 -0.1389
  995YOPC   C4B14432  15.719  16.420   6.674 -0.3533 -0.3443  0.1800
  996YOPC   NC314433  17.412   0.107   5.372 -0.3286  0.0996 -0.1053
  996YOPC   PO414434  17.029   0.292   5.469  0.0121  0.0802  0.2643
  996YOPC   GL114435  16.666   0.247   5.856 -0.1635 -0.0062 -0.0623
  996YOPC   GL214436  16.441   0.509   5.790 -0.1055 -0.0639  0.0474
  996YOPC   C1A14437  16.561   0.231   6.222 -0.1027  0.1093 -0.3454
  996YOPC   D2A14438  16.756   0.146   6.563  0.1197  0.0683  0.1980
  996YOPC   C3A14439  16.900   0.378   6.882 -0.2469  0.5121 -0.0021
  996YOPC   C4A14440  16.681   0.262   7.236 -0.0218 -0.0400  0.1820
  996YOPC   C1B14441  16.142   0.578   6.115 -0.2300 -0.2318 -0.1702
  996YOPC   C2B14442  16.285   0.494   6.573  0.0819  0.0863  0.1966
  996YOPC   D3B14443  16.071   0.289   6.949 -0.0472  0.1053  0.0233
  996YOPC   C4B14444  16.168   0.096   7.351  0.0870 -0.0197 -0.0245
  997YOPC   NC314445  17.048   3.790   5.132  0.4536 -0.1989 -0.1081
  997YOPC   PO414446  17.427   3.942   5.243  0.0550 -0.0616  0.3865
  997YOPC   GL114447  17.375   4.111   5.624  0.0069 -0.0952 -0.3459
  997YOPC   GL214448  17.611   4.153   5.856 -0.2316  0.0533 -0.1491
  997YOPC   C1A14449  17.057   4.290   5.864  0.1374 -0.0618  0.1307
  997YOPC   D2A14450  16.870   4.635   6.004 -0.1937  0.0429  0.3244
  997YOPC   C3A14451  16.927   4.708   6.418 -0.2380 -0.1443  0.0809
  997YOPC   C4A14452  16.695   4.800   6.798  0.1612  0.2059  0.0271
  997YOPC   C1B14453  17.415   4.414   6.141 -0.0834 -0.4524 -0.3535
  997YOPC   C2B14454  17.461   4.707   6.272  0.3042  0.1219 -0.0038
  997YOPC   D3B14455  17.417   4.817   6.636  0.3164 -0.0337  0.0878
  997YOPC   C4B14456  17.152   4.889   6.866 -0.2783  0.3393  0.1197
  998YOPC   NC314457  12.968  17.852   4.692 -0.1202 -0.0805  0.1216
  998YOPC   PO414458  13.421  17.870   4.632 -0.0193  0.1304 -0.1960
  998YOPC   GL114459  13.627  17.813   5.041  0.3192  0.1558  0.3396
  998YOPC   GL214460  13.375  17.990   5.131 -0.1246  0.1320 -0.1282
  998YOPC   C1A14461  13.901  17.911   5.386 -0.2630  0.1778 -0.3849
  998YOPC   D2A14462  14.139  18.296   5.599  0.2534 -0.2866  0.3231
  998YOPC   C3A14463  14.192  18.383   6.055  0.0733  0.0137  0.2330
  998YOPC   C4A14464  14.376  18.432   6.441  0.0829 -0.0833 -0.0997
  998YOPC   C1B14465  13.437  18.262   5.395  0.1717  0.1849  0.2302
  998YOPC   C2B14466  13.576  18.110   5.733 -0.0908  0.3403 -0.2054
  998YOPC   D3B14467  13.464  18.168   6.173 -0.1373 -0.1181  0.0256
  998YOPC   C4B14468  13.385  18.170   6.590  0.0433  0.2018 -0.0613
  999YOPC   NC314469  10.552  12.884   5.230 -0.1045 -0.0672  0.3814
  999YOPC   PO414470  10.804  13.312   5.335 -0.1987  0.1240  0.1238
  999YOPC   GL114471  11.108  13.006   5.681 -0.1948  0.1743  0.0270
  999YOPC   GL214472  11.393  13.000   5.602 -0.4391  0.1848 -0.0121
  999YOPC   C1A14473  10.968  12.815   6.011  0.1593  0.0058  0.2502
  999YOPC   D2A14474  11.213  12.968   6.416 -0.1437 -0.2078 -0.3252
  999YOPC   C3A14475  11.129  13.408   6.566  0.0993 -0.2058 -0.1447
  999YOPC   C4A14476  11.018  13.803   6.495  0.5506 -0.0567  0.0899
  999YOPC   C1B14477  11.464  13.156   5.962 -0.1704  0.1021  0.0248
  999YOPC   C2B14478  11.596  13.305   6.358 -0.2915  0.0826 -0.1923
  999YOPC   D3B14479  11.491  13.083   6.810  0.0820  0.0223  0.0370
  999YOPC   C4B14480  11.813  13.155   7.250 -0.0963  0.0501  0.2698
 1000YOPC   NC314481  12.342  15.039   5.001 -0.1038  0.1318  0.0921
 1000YOPC   PO414482  12.232  14.575   5.086  0.1109  0.2848  0.3287
 1000YOPC   GL114483  12.240  14.824   5.431 -0.2886  0.1986 -0.2891
 1000YOPC   GL214484  12.017  15.057   5.450 -0.1150  0.0854  0.2764
 1000YOPC   C1A14485  12.469  14.787   5.768 -0.3807 -0.3280  0.1444
 1000YOPC   D2A14486  12.270  14.553   6.105 -0.2649 -0.1054  0.0336
 1000YOPC   C3A14487  12.183  14.774   6.533  0.3150 -0.2168  0.3205
 1000YOPC   C4A14488  12.211  15.217   6.686 -0.2866 -0.0604  0.0823
 1000YOPC   C1B14489  12.052  15.381   5.716  0.2428  0.1209 -0.2012
 1000YOPC   C2B14490  12.015  15.861   5.761 -0.0127 -0.0803 -0.0143
 1000YOPC   D3B14491  11.654  16.073   5.939  0.2118  0.0899  0.1254
 1000YOPC   C4B14492  11.165  16.070   6.017 -0.2270 -0.2202 -0.1070
 1001YOPC   NC314493   4.174   3.656   5.297  0.1640  0.2125 -0.2430
 1001YOPC   PO414494   4.301   3.166   5.191 -0.0591 -0.2999 -0.1171
 1001YOPC   GL114495   4.160   3.033   5.585 -0.1572  0.3478 -0.1496
 1001YOPC   GL214496   4.442   2.920   5.926  0.2142  0.0626 -0.0922
 1001YOPC   C1A14497   4.105   3.306   6.010 -0.0929 -0.0041 -0.1295
 1001YOPC   D2A14498   4.183   3.265   6.445  0.0865  0.1114 -0.0493
 1001YOPC   C3A14499   3.806   3.030   6.575 -0.2309 -0.1260 -0.1302
 1001YOPC   C4A14500   3.367   2.784   6.747 -0.0655  0.0253  0.0161
 1001YOPC   C1B14501   4.538   2.594   6.152 -0.1264  0.3498 -0.1157
 1001YOPC   C2B14502   4.706   2.482   6.474 -0.3533 -0.1152 -0.1285
 1001YOPC   D3B14503   4.294   2.239   6.572  0.0773  0.0164  0.1630
 1001YOPC   C4B14504   4.191   2.001   6.857  0.3605 -0.2874 -0.1252
 1002YOPC   NC314505  18.328  19.360   5.487  0.0447  0.0505  0.0114
 1002YOPC   PO414506  17.949  19.545   5.370  0.0376 -0.2618  0.1477
 1002YOPC   GL114507  17.789  19.542   5.752 -0.0638 -0.2104 -0.2181
 1002YOPC   GL214508  17.981  19.406   5.978 -0.0227 -0.1042 -0.0427
 1002YOPC   C1A14509  17.579  19.606   6.115  0.1038 -0.0450  0.2384
 1002YOPC   D2A14510  17.341  19.970   6.300 -0.0455  0.1243 -0.2899
 1002YOPC   C3A14511  17.354  19.851   6.632 -0.0167 -0.0658  0.0282
 1002YOPC   C4A14512  17.254  19.512   6.983 -0.0559  0.0275  0.1708
 1002YOPC   C1B14513  18.051  19.217   6.453 -0.4796  0.0757  0.2899
 1002YOPC   C2B14514  18.186  19.074   6.898  0.2217 -0.2526  0.0547
 1002YOPC   D3B14515  18.290  18.591   6.857  0.3101 -0.2566 -0.2223
 1002YOPC   C4B14516  18.451  18.087   7.105  0.1592  0.0570 -0.1310
 1003YOPC   NC314517   5.755  15.633   4.906 -0.0416  0.1627  0.1007
 1003YOPC   PO414518   5.839  16.057   5.174  0.0712  0.0033  0.5753
 1003YOPC   GL114519   5.840  16.174   5.629  0.0410  0.1104  0.2957
 1003YOPC   GL214520   5.674  16.305   5.949 -0.1633  0.1340  0.1048
 1003YOPC   C1A14521   6.108  16.096   6.025  0.1211  0.0808 -0.1257
 1003YOPC   D2A14522   5.925  16.124   6.430  0.3029 -0.0617 -0.0992
 1003YOPC   C3A14523   5.507  16.031   6.623  0.0706  0.2784  0.3927
 1003YOPC   C4A14524   5.323  16.323   6.903 -0.1366  0.0872  0.0320
 1003YOPC   C1B14525   5.927  16.532   6.169  0.2333  0.0602 -0.2774
 1003YOPC   C2B14526   5.915  16.877   6.382  0.2220  0.1237  0.1066
 1003YOPC   D3B14527   6.045  16.638   6.749 -0.0116 -0.0911  0.3439
 1003YOPC   C4B14528   5.812  16.264   6.912 -0.1362 -0.2475  0.1149
 1004YOPC   NC314529   4.280  17.765   5.118 -0.0510  0.2069  0.0620
 1004YOPC   PO414530   4.398  17.330   5.455 -0.0078 -0.1444  0.0578
 1004YOPC   GL114531   4.721  17.404   5.754 -0.0640 -0.2611 -0.1558
 1004YOPC   GL214532   4.616  17.658   5.990  0.1942 -0.1307 -0.2861
 1004YOPC   C1A14533   5.069  17.239   6.190  0.0450  0.0742 -0.3797
 1004YOPC   D2A14534   5.183  16.859   6.389  0.1157 -0.1846 -0.4270
 1004YOPC   C3A14535   5.185  16.876   6.791 -0.2122 -0.0328  0.3439
 1004YOPC   C4A14536   4.982  17.190   7.051 -0.1860 -0.0245  0.1409
 1004YOPC   C1B14537   4.820  17.626   6.495 -0.2053  0.0174 -0.2521
 1004YOPC   C2B14538   5.196  17.425   6.632 -0.1977 -0.2135 -0.1718
 1004YOPC   D3B14539   5.561  17.261   6.663  0.1627 -0.0592 -0.0334
 1004YOPC   C4B14540   5.550  17.241   7.131  0.0509  0.3032  0.1330
 1005YOPC   NC314541   8.089   7.914   5.387 -0.2284  0.0123  0.1500
 1005YOPC   PO414542   8.053   8.335   5.424 -0.0663  0.0687  0.1101
 1005YOPC   GL114543   8.110   8.474   5.832 -0.1724  0.0147  0.4320
 1005YOPC   GL214544   7.880   8.587   6.037  0.0021 -0.2280  0.1812
 1005YOPC   C1A14545   8.446   8.589   6.029  0.0398  0.1826 -0.1357
 1005YOPC   D2A14546   8.778   8.404   6.379 -0.1072  0.1107  0.0656
 1005YOPC   C3A14547   8.797   8.479   6.734 -0.2003  0.2147  0.0583
 1005YOPC   C4A14548   8.559   8.548   7.058  0.0124 -0.0649  0.1030
 1005YOPC   C1B14549   8.272   8.916   6.295  0.2391 -0.3946 -0.1366
 1005YOPC   C2B14550   8.713   8.893   6.377 -0.2776 -0.0154 -0.2778
 1005YOPC   D3B14551   8.871   9.029   6.690 -0.5473 -0.0060  0.0260
 1005YOPC   C4B14552   8.868   8.930   7.156  0.0415 -0.1672  0.1554
 1006YOPC   NC314553  11.324   8.573   5.439  0.2848 -0.0603  0.0523
 1006YOPC   PO414554  11.088   8.140   5.427 -0.3846  0.1132  0.2661
 1006YOPC   GL114555  11.079   8.341   5.852  0.2175 -0.1864  0.0830
 1006YOPC   GL214556  10.911   8.159   6.139  0.0830  0.1085 -0.1902
 1006YOPC   C1A14557  11.090   8.636   6.183  0.1739 -0.3182 -0.0969
 1006YOPC   D2A14558  11.149   9.019   6.466 -0.3218  0.0819  0.0824
 1006YOPC   C3A14559  11.562   9.247   6.688  0.0119 -0.1288  0.1728
 1006YOPC   C4A14560  11.557   9.403   7.092 -0.2766 -0.2384 -0.1679
 1006YOPC   C1B14561  10.644   7.903   6.515 -0.3063  0.1769 -0.1020
 1006YOPC   C2B14562  10.676   7.788   6.989  0.5036  0.0583 -0.1088
 1006YOPC   D3B14563  10.881   7.790   7.298  0.0915 -0.0102  0.3471
 1006YOPC   C4B14564  11.145   7.695   7.611  0.0675  0.1748 -0.4055
 1007YOPC   NC314565   4.759  10.246   5.313 -0.2875  0.2234 -0.2326
 1007YOPC   PO414566   5.018   9.943   5.261  0.0267 -0.3166 -0.2453
 1007YOPC   GL114567   5.004   9.979   5.664 -0.0665 -0.0234  0.0847
 1007YOPC   GL214568   5.292  10.134   5.863 -0.1919 -0.4054 -0.1162
 1007YOPC   C1A14569   4.819  10.240   6.012 -0.0660 -0.0629  0.2866
 1007YOPC   D2A14570   4.733  10.074   6.446  0.1188 -0.4099  0.0069
 1007YOPC   C3A14571   4.923  10.052   6.754 -0.2470  0.0590  0.1950
 1007YOPC   C4A14572   5.262   9.914   7.049  0.3512  0.1735  0.3079
 1007YOPC   C1B14573   5.260  10.298   6.343 -0.1349 -0.0570  0.1836
 1007YOPC   C2B14574   5.297  10.722   6.587 -0.1706 -0.2959 -0.2596
 1007YOPC   D3B14575   5.634  10.803   6.878  0.0557 -0.1746  0.0224
 1007YOPC   C4B14576   6.000  10.981   6.923  0.0386 -0.2224  0.1327
 1008YOPC   NC314577  16.085  17.912   5.087  0.0605  0.1144 -0.2554
 1008YOPC   PO414578  16.437  18.030   4.921 -0.0242 -0.1373  0.3170
 1008YOPC   GL114579  16.617  18.077   5.401  0.0485  0.0034  0.2127
 1008YOPC   GL214580  16.611  18.392   5.572  0.0098 -0.0871 -0.0596
 1008YOPC   C1A14581  16.656  17.891   5.838  0.1816  0.1864  0.4671
 1008YOPC   D2A14582  16.466  17.655   6.263  0.2765 -0.2282 -0.0522
 1008YOPC   C3A14583  16.347  17.411   6.577 -0.4209 -0.2341  0.0998
 1008YOPC   C4A14584  16.005  17.347   6.799  0.0485 -0.1486  0.3051
 1008YOPC   C1B14585  16.282  18.230   5.720  0.1258  0.0519 -0.4362
 1008YOPC   C2B14586  16.117  17.886   5.998  0.0905 -0.0947  0.0591
 1008YOPC   D3B14587  16.095  17.928   6.439  0.0128 -0.0834 -0.3298
 1008YOPC   C4B14588  15.958  17.852   6.868  0.0027 -0.0376  0.5102
 1009YOPC   NC314589   7.560  18.511   5.295  0.1822  0.5319 -0.0061
 1009YOPC   PO414590   7.356  18.975   5.427  0.2343 -0.0211  0.4612
 1009YOPC   GL114591   7.572  18.650   5.823 -0.4579 -0.0813 -0.0921
 1009YOPC   GL214592   7.605  18.326   5.909 -0.0534  0.1321  0.0883
 1009YOPC   C1A14593   7.428  18.698   6.317  0.3700  0.1957 -0.0374
 1009YOPC   D2A14594   7.339  18.571   6.751  0.0474  0.1119  0.3191
 1009YOPC   C3A14595   6.997  18.444   6.954 -0.1543  0.1123 -0.0150
 1009YOPC   C4A14596   6.604  18.509   7.021  0.0894  0.1679  0.1836
 1009YOPC   C1B14597   7.917  18.317   6.336 -0.2594 -0.2955 -0.0351
 1009YOPC   C2B14598   7.900  18.430   6.708  0.0010 -0.1784 -0.0081
 1009YOPC   D3B14599   7.777  18.840   6.660 -0.1289  0.4444  0.0907
 1009YOPC   C4B14600   7.718  19.122   6.859  0.4269 -0.1055 -0.0742
 1010YOPC   NC314601  12.391   9.112   4.984 -0.1083 -0.0251  0.1682
 1010YOPC   PO414602  12.157   8.722   5.129 -0.1874  0.1769 -0.2205
 1010YOPC   GL114603  12.459   8.707   5.522  0.3462  0.1942  0.2890
 1010YOPC   GL214604  12.770   8.750   5.355  0.0755 -0.1656  0.0031
 1010YOPC   C1A14605  12.638   8.751   5.874  0.0981 -0.1177  0.0833
 1010YOPC   D2A14606  12.638   9.012   6.246 -0.1529 -0.1705 -0.1847
 1010YOPC   C3A14607  12.311   9.150   6.228 -0.0239  0.0727 -0.4445
 1010YOPC   C4A14608  12.079   9.412   6.556  0.2568 -0.3217 -0.2923
 1010YOPC   C1B14609  13.273   8.731   5.473 -0.1460 -0.0865 -0.2428
 1010YOPC   C2B14610  13.606   8.894   5.784  0.2254  0.2527  0.0954
 1010YOPC   D3B14611  13.480   9.321   5.998 -0.2100 -0.1432  0.4042
 1010YOPC   C4B14612  13.513   9.590   6.319 -0.1214  0.0022 -0.1798
 1011YOPC   NC314613  13.761  15.030   4.840  0.1229 -0.0061 -0.2822
 1011YOPC   PO414614  14.231  15.190   4.939  0.0797 -0.1117  0.2849
 1011YOPC   GL114615  13.946  14.976   5.299 -0.0942  0.0378 -0.1264
 1011YOPC   GL214616  13.662  14.912   5.282 -0.0736 -0.2769  0.0113
 1011YOPC   C1A14617  13.970  15.058   5.778 -0.2727 -0.2537  0.0371
 1011YOPC   D2A14618  13.912  15.112   6.166  0.0100 -0.0721  0.0554
 1011YOPC   C3A14619  13.835  14.784   6.566 -0.1684  0.2843 -0.0207
 1011YOPC   C4A14620  13.570  14.490   6.731  0.0779  0.2605  0.2451
 1011YOPC   C1B14621  13.636  14.666   5.652 -0.0265 -0.2389  0.1357
 1011YOPC   C2B14622  13.712  14.352   5.840 -0.0113 -0.0638 -0.1130
 1011YOPC   D3B14623  13.796  14.316   6.322  0.2851  0.0011  0.0298
 1011YOPC   C4B14624  14.018  14.309   6.637  0.2655  0.1162  0.1103
 1012YOPC   NC314625   3.885  13.704   5.125 -0.0205  0.0433  0.0116
 1012YOPC   PO414626   4.070  13.946   5.430 -0.1218  0.1622 -0.3112
 1012YOPC   GL114627   3.922  13.933   5.877 -0.1567 -0.1140 -0.0060
 1012YOPC   GL214628   3.692  14.263   5.985  0.3600  0.0912 -0.1252
 1012YOPC   C1A14629   3.943  13.668   6.173  0.0413 -0.0030  0.1778
 1012YOPC   D2A14630   4.131  13.436   6.462  0.2228 -0.1337 -0.0120
 1012YOPC   C3A14631   4.009  13.095   6.745  0.0984  0.0075 -0.1141
 1012YOPC   C4A14632   3.756  12.995   7.045 -0.1594 -0.1756 -0.1597
 1012YOPC   C1B14633   3.510  14.023   6.328 -0.0251  0.0931  0.0459
 1012YOPC   C2B14634   3.366  13.650   6.409  0.0514 -0.2584  0.1973
 1012YOPC   D3B14635   3.137  13.535   6.774 -0.2487  0.5139  0.0512
 1012YOPC   C4B14636   2.979  13.095   7.088  0.1500  0.2053 -0.1737
 1013YOPC   NC314637   3.682  10.351   5.341  0.0265  0.1913  0.2547
 1013YOPC   PO414638   3.348  10.114   5.385  0.1749  0.0016 -0.0213
 1013YOPC   GL114639   3.116  10.024   5.695  0.1465 -0.2741  0.1838
 1013YOPC   GL214640   2.925   9.771   5.701 -0.0023 -0.3270 -0.0163
 1013YOPC   C1A14641   2.932   9.991   6.167 -0.0321 -0.0366  0.4963
 1013YOPC   D2A14642   2.731   9.934   6.541  0.1641 -0.2474  0.0834
 1013YOPC   C3A14643   2.906  10.169   6.846 -0.1550 -0.3405  0.0487
 1013YOPC   C4A14644   3.207  10.119   7.088 -0.2094  0.0307 -0.1425
 1013YOPC   C1B14645   2.855   9.513   6.029  0.2042  0.2048  0.4604
 1013YOPC   C2B14646   3.056   9.369   6.400  0.1954  0.0501  0.1561
 1013YOPC   D3B14647   2.976   9.612   6.784 -0.0686 -0.1423  0.0585
 1013YOPC   C4B14648   3.310   9.889   6.708 -0.1029 -0.3565 -0.2503
 1014YOPC   NC314649   9.561  12.881   4.788 -0.2774 -0.3463 -0.2163
 1014YOPC   PO414650   9.298  12.764   5.108  0.1007 -0.0816  0.1097
 1014YOPC   GL114651   9.162  12.745   5.551  0.4479  0.0548  0.0003
 1014YOPC   GL214652   8.880  12.742   5.680 -0.2082  0.4849 -0.0717
 1014YOPC   C1A14653   9.306  12.565   5.875 -0.0270  0.1150  0.0469
 1014YOPC   D2A14654   9.159  12.652   6.317  0.0716  0.3685  0.0466
 1014YOPC   C3A14655   9.343  12.938   6.620  0.3507 -0.0199  0.1754
 1014YOPC   C4A14656   9.759  13.019   6.819 -0.3222 -0.0480 -0.0047
 1014YOPC   C1B14657   8.801  12.856   6.099  0.1556 -0.2302  0.0569
 1014YOPC   C2B14658   8.708  13.043   6.434 -0.2851 -0.0535 -0.2521
 1014YOPC   D3B14659   8.532  13.449   6.540 -0.1008  0.0564 -0.0171
 1014YOPC   C4B14660   8.244  13.608   6.891 -0.0043  0.3938 -0.0491
 1015YOPC   NC314661  10.052  16.802   4.715  0.1971 -0.0261  0.2594
 1015YOPC   PO414662  10.314  16.595   4.977 -0.0023 -0.0264 -0.3403
 1015YOPC   GL114663  10.252  16.478   5.405 -0.1063 -0.0189 -0.2190
 1015YOPC   GL214664  10.422  16.774   5.570 -0.1956 -0.1198  0.1012
 1015YOPC   C1A14665   9.853  16.301   5.714  0.0272  0.1457  0.2047
 1015YOPC   D2A14666   9.538  16.181   6.028 -0.0011  0.1547 -0.0297
 1015YOPC   C3A14667   9.647  16.012   6.372 -0.2058 -0.2734  0.2221
 1015YOPC   C4A14668   9.448  15.982   6.769 -0.2380 -0.2237  0.1429
 1015YOPC   C1B14669  10.596  16.844   5.994  0.1350 -0.0436  0.2974
 1015YOPC   C2B14670  10.944  16.990   6.132  0.3907  0.2071 -0.0780
 1015YOPC   D3B14671  11.133  17.013   6.577 -0.1090 -0.5329  0.0179
 1015YOPC   C4B14672  11.292  17.239   6.925 -0.2265 -0.2193  0.5461
 1016YOPC   NC314673   1.191   5.868   5.727 -0.2470  0.6323 -0.3811
 1016YOPC   PO414674   1.335   6.219   5.771 -0.3916 -0.2235 -0.0355
 1016YOPC   GL114675   1.155   6.435   6.058  0.1532 -0.0729  0.3351
 1016YOPC   GL214676   0.864   6.575   6.032  0.1515  0.0741 -0.1937
 1016YOPC   C1A14677   1.119   6.541   6.582  0.0600  0.0592  0.1224
 1016YOPC   D2A14678   0.903   6.707   6.980 -0.4071 -0.4071  0.3507
 1016YOPC   C3A14679   0.382   6.748   7.011 -0.0114 -0.0710 -0.0908
 1016YOPC   C4A14680   0.017   6.752   6.728 -0.4259 -0.2047 -0.1049
 1016YOPC   C1B14681   0.639   6.274   6.111  0.1538 -0.0623  0.0218
 1016YOPC   C2B14682   0.294   6.170   6.201  0.3003  0.0416  0.0345
 1016YOPC   D3B14683  -0.073   6.446   6.253 -0.1977 -0.0745 -0.1208
 1016YOPC   C4B14684  -0.355   6.670   6.301  0.0029  0.0393 -0.0396
 1017YOPC   NC314685   7.691   1.187   5.229 -0.0691  0.2926 -0.0096
 1017YOPC   PO414686   7.989   1.552   5.218  0.1982 -0.2449  0.0460
 1017YOPC   GL114687   8.085   1.643   5.659 -0.1841 -0.0401  0.3645
 1017YOPC   GL214688   7.879   1.316   5.760 -0.3222  0.1594 -0.0162
 1017YOPC   C1A14689   8.139   1.579   6.143  0.0676 -0.0747 -0.1399
 1017YOPC   D2A14690   8.362   1.676   6.474  0.2311  0.3683  0.1047
 1017YOPC   C3A14691   8.208   2.059   6.821 -0.1678  0.0975  0.1083
 1017YOPC   C4A14692   7.947   2.242   7.176 -0.0961 -0.1628  0.0013
 1017YOPC   C1B14693   7.645   1.488   6.158 -0.2454  0.1404  0.0583
 1017YOPC   C2B14694   7.568   1.254   6.477  0.2171  0.0805 -0.0732
 1017YOPC   D3B14695   7.127   1.233   6.627 -0.2432  0.0303  0.0800
 1017YOPC   C4B14696   7.048   1.435   7.002 -0.0088  0.0008 -0.0021
 1018YOPC   NC314697   5.472  18.264   5.451  0.1101 -0.3765  0.0779
 1018YOPC   PO414698   5.234  18.625   5.362  0.0951  0.0959 -0.3453
 1018YOPC   GL114699   5.246  18.701   5.669 -0.0721  0.0456  0.0501
 1018YOPC   GL214700   5.217  18.429   5.862 -0.0768  0.1919  0.1434
 1018YOPC   C1A14701   5.317  18.966   6.074  0.1621 -0.0360  0.1824
 1018YOPC   D2A14702   5.294  19.342   6.179 -0.0085 -0.2508  0.1373
 1018YOPC   C3A14703   5.064  19.355   6.564  0.1657  0.0697 -0.0544
 1018YOPC   C4A14704   4.999  18.966   6.922 -0.3019  0.0672  0.0379
 1018YOPC   C1B14705   5.051  18.457   6.257  0.3273  0.0190  0.0817
 1018YOPC   C2B14706   4.884  18.368   6.748  0.0325  0.1868 -0.0934
 1018YOPC   D3B14707   4.883  18.049   7.038  0.1271 -0.1331  0.1982
 1018YOPC   C4B14708   5.016  17.987   7.502  0.0198 -0.0411  0.2091
 1019YOPC   NC314709  17.875   9.334   5.025 -0.5091  0.0099 -0.0759
 1019YOPC   PO414710  18.218   9.675   5.264 -0.0331 -0.1711  0.0317
 1019YOPC   GL114711  18.103   9.569   5.694  0.2707  0.0206 -0.2373
 1019YOPC   GL214712  17.987   9.847   5.741  0.2496  0.1598 -0.0437
 1019YOPC   C1A14713  17.685   9.425   5.856  0.0749 -0.3939  0.1616
 1019YOPC   D2A14714  17.243   9.325   6.018 -0.2464 -0.0624 -0.2020
 1019YOPC   C3A14715  17.019   9.301   6.448 -0.1367  0.0082  0.3045
 1019YOPC   C4A14716  16.673   9.252   6.607  0.3174  0.0358  0.2574
 1019YOPC   C1B14717  18.196   9.774   6.230  0.0407  0.0144 -0.0169
 1019YOPC   C2B14718  18.145   9.881   6.593 -0.1021  0.0841 -0.1870
 1019YOPC   D3B14719  18.530   9.651   6.662 -0.0489  0.0266  0.0492
 1019YOPC   C4B14720  18.910   9.608   6.417  0.1889  0.1219 -0.3200
 1020YOPC   NC314721   2.417   3.427   5.312  0.0306 -0.3539  0.1817
 1020YOPC   PO414722   2.257   3.236   5.733  0.1725  0.0308 -0.1181
 1020YOPC   GL114723   2.349   3.415   6.092 -0.1857  0.1327 -0.3311
 1020YOPC   GL214724   2.707   3.365   6.132 -0.0292 -0.0918 -0.1172
 1020YOPC   C1A14725   2.370   3.728   6.299 -0.0515 -0.2724  0.0170
 1020YOPC   D2A14726   2.515   3.878   6.745 -0.0784 -0.0729  0.0052
 1020YOPC   C3A14727   2.694   3.915   7.142 -0.0047  0.4411 -0.0022
 1020YOPC   C4A14728   2.860   3.655   7.409  0.1723 -0.1153  0.0878
 1020YOPC   C1B14729   2.762   3.415   6.621  0.2212 -0.1017  0.2384
 1020YOPC   C2B14730   2.884   3.286   7.009 -0.0513 -0.0019 -0.2639
 1020YOPC   D3B14731   3.280   3.095   7.189  0.0874  0.0995  0.2156
 1020YOPC   C4B14732   3.562   2.935   7.526 -0.1816 -0.0527  0.0154
 1021YOPC   NC314733   9.242  10.834   4.818  0.0048 -0.0361  0.1886
 1021YOPC   PO414734   9.516  10.924   5.147  0.4197  0.0967  0.0691
 1021YOPC   GL114735   9.547  10.764   5.590 -0.0847 -0.3321 -0.2200
 1021YOPC   GL214736   9.395  10.487   5.603  0.2103 -0.3085  0.1361
 1021YOPC   C1A14737   9.664  10.801   6.054 -0.3450 -0.0293 -0.1947
 1021YOPC   D2A14738   9.900  11.042   6.375  0.0876  0.0975  0.1357
 1021YOPC   C3A14739  10.039  10.921   6.692  0.1556  0.2552  0.1187
 1021YOPC   C4A14740  10.376  10.989   7.038 -0.0509 -0.5319 -0.0588
 1021YOPC   C1B14741   9.422  10.302   6.066  0.0628  0.3259 -0.0586
 1021YOPC   C2B14742   9.573  10.054   6.411 -0.0925 -0.1281  0.0738
 1021YOPC   D3B14743   9.333   9.820   6.688 -0.2523 -0.0752  0.1323
 1021YOPC   C4B14744   9.079   9.478   6.734  0.0095 -0.2883  0.0878
 1022YOPC   NC314745   9.990  13.480   4.428  0.0419 -0.0939  0.2477
 1022YOPC   PO414746   9.704  13.431   4.827 -0.3051 -0.0332  0.1508
 1022YOPC   GL114747   9.605  13.259   5.230  0.2493 -0.1707  0.1383
 1022YOPC   GL214748   9.765  12.835   5.289  0.2933 -0.1895  0.0508
 1022YOPC   C1A14749   9.549  13.164   5.646 -0.3781 -0.3330  0.0823
 1022YOPC   D2A14750   9.150  13.179   5.757 -0.1388  0.1738  0.1409
 1022YOPC   C3A14751   8.729  13.264   5.743 -0.2478 -0.3015  0.1754
 1022YOPC   C4A14752   8.435  13.291   6.076  0.2476 -0.0473  0.1448
 1022YOPC   C1B14753  10.056  13.144   5.528 -0.3202  0.0632 -0.0267
 1022YOPC   C2B14754  10.266  13.162   5.847 -0.0432 -0.1382 -0.2364
 1022YOPC   D3B14755  10.323  13.527   6.127  0.4115  0.1250  0.0020
 1022YOPC   C4B14756  10.521  13.837   6.293 -0.0366  0.0580 -0.1604
 1023YOPC   NC314757  19.048  16.720   5.580  0.1453 -0.1368  0.3807
 1023YOPC   PO414758  18.691  16.472   5.334  0.0036  0.1058 -0.0800
 1023YOPC   GL114759  18.786  16.251   5.642  0.0869  0.0852  0.0083
 1023YOPC   GL214760  18.858  16.421   5.923 -0.1113  0.0605  0.2411
 1023YOPC   C1A14761  18.725  15.873   5.877  0.0937 -0.0341 -0.0497
 1023YOPC   D2A14762  18.606  15.707   6.247 -0.3526 -0.4217 -0.1609
 1023YOPC   C3A14763  18.184  15.674   6.420 -0.0827 -0.1101  0.0033
 1023YOPC   C4A14764  17.893  15.410   6.560  0.0746  0.2617  0.1483
 1023YOPC   C1B14765  18.836  16.253   6.205  0.1355 -0.0074  0.1676
 1023YOPC   C2B14766  18.921  16.151   6.549  0.0779  0.0643 -0.1412
 1023YOPC   D3B14767  19.155  16.100   6.964 -0.1996  0.2198 -0.0161
 1023YOPC   C4B14768  18.930  16.134   7.457 -0.0826 -0.1220 -0.1604
 1024YOPC   NC314769   8.487   5.179   5.363 -0.0442  0.0226  0.1193
 1024YOPC   PO414770   8.026   5.409   5.386  0.1486  0.0980  0.1179
 1024YOPC   GL114771   7.910   5.273   5.842  0.2291 -0.0086 -0.2535
 1024YOPC   GL214772   7.633   5.012   5.871 -0.0235  0.0959  0.0766
 1024YOPC   C1A14773   7.770   5.172   6.326  0.1299 -0.4141 -0.3377
 1024YOPC   D2A14774   7.802   5.412   6.704  0.0938  0.1070  0.0437
 1024YOPC   C3A14775   7.698   5.915   6.889  0.1659  0.0909 -0.0156
 1024YOPC   C4A14776   7.399   6.287   6.880  0.4649  0.1719  0.0203
 1024YOPC   C1B14777   7.596   4.757   6.231 -0.0810  0.1269  0.0053
 1024YOPC   C2B14778   7.569   4.527   6.598  0.0050  0.3109 -0.3250
 1024YOPC   D3B14779   7.856   4.421   7.003  0.0464 -0.1361 -0.1924
 1024YOPC   C4B14780   7.867   4.083   7.273  0.2519 -0.0562  0.4002
 1025YOPC   NC314781   0.617   2.359   5.533 -0.0769  0.0632  0.1013
 1025YOPC   PO414782   0.885   2.243   5.933 -0.2434  0.0301 -0.3625
 1025YOPC   GL114783   0.818   2.080   6.417 -0.3051 -0.0834 -0.1236
 1025YOPC   GL214784   0.766   1.860   6.640  0.0093  0.0126 -0.3630
 1025YOPC   C1A14785   1.095   2.225   6.909 -0.0764  0.1484  0.0441
 1025YOPC   D2A14786   0.926   2.421   7.322 -0.2233 -0.1047  0.0622
 1025YOPC   C3A14787   1.056   2.857   7.445 -0.1305 -0.0567 -0.0724
 1025YOPC   C4A14788   1.404   3.098   7.217 -0.0490 -0.2678  0.0115
 1025YOPC   C1B14789   0.610   2.206   6.927  0.1030 -0.1255  0.1211
 1025YOPC   C2B14790   0.429   2.233   7.319 -0.0670  0.1141  0.2188
 1025YOPC   D3B14791   0.353   1.912   7.557 -0.1438  0.0932  0.1255
 1025YOPC   C4B14792   0.057   1.636   7.520 -0.2051  0.0636  0.4072
 1026YOPC   NC314793   5.352   9.494   5.085  0.0486  0.4092 -0.2981
 1026YOPC   PO414794   5.508   9.188   5.442  0.0112  0.1590  0.2573
 1026YOPC   GL114795   5.548   9.467   5.653 -0.0865 -0.3629  0.0403
 1026YOPC   GL214796   5.490   9.332   5.978  0.2225 -0.0098 -0.1188
 1026YOPC   C1A14797   5.671   9.775   6.013  0.0603  0.1818  0.1630
 1026YOPC   D2A14798   5.793  10.116   6.236  0.1671  0.0315  0.3304
 1026YOPC   C3A14799   6.254  10.174   6.507  0.1178  0.1652  0.3527
 1026YOPC   C4A14800   6.617  10.035   6.214  0.0563  0.0834  0.0120
 1026YOPC   C1B14801   5.501   9.107   6.308 -0.1583 -0.0856 -0.2249
 1026YOPC   C2B14802   5.367   9.163   6.766 -0.3400  0.0877  0.0273
 1026YOPC   D3B14803   4.988   9.069   7.073 -0.0084 -0.0835  0.0401
 1026YOPC   C4B14804   4.912   8.994   7.492  0.0869  0.1979  0.0717
 1027YOPC   NC314805   9.794  18.060   5.068 -0.3959 -0.1596  0.1590
 1027YOPC   PO414806  10.148  18.498   5.160  0.0822 -0.0450  0.0747
 1027YOPC   GL114807   9.960  18.717   5.512 -0.0008 -0.0092  0.2719
 1027YOPC   GL214808   9.681  18.529   5.409 -0.0865 -0.0111 -0.0056
 1027YOPC   C1A14809   9.689  18.915   5.807 -0.2384 -0.2503  0.1448
 1027YOPC   D2A14810   9.309  19.158   5.960  0.1058 -0.0156 -0.0501
 1027YOPC   C3A14811   9.104  18.946   6.294 -0.3187 -0.0051  0.0435
 1027YOPC   C4A14812   8.896  18.609   6.556 -0.1651 -0.3315  0.0275
 1027YOPC   C1B14813   9.734  18.371   5.860  0.0928 -0.2459 -0.2601
 1027YOPC   C2B14814   9.862  18.271   6.298 -0.1219 -0.3614  0.0884
 1027YOPC   D3B14815  10.159  18.007   6.025 -0.0051  0.0801  0.2205
 1027YOPC   C4B14816  10.391  17.774   5.840 -0.0136 -0.1242 -0.1545
 1028YOPC   NC314817  12.934   4.502   5.204 -0.1203  0.3298 -0.2266
 1028YOPC   PO414818  13.287   4.365   5.520 -0.1779 -0.0818 -0.0198
 1028YOPC   GL114819  13.375   4.258   5.864  0.1029  0.2772  0.0219
 1028YOPC   GL214820  13.441   4.489   6.143  0.0861  0.2472 -0.1075
 1028YOPC   C1A14821  13.146   4.095   6.095  0.2424  0.0154 -0.2723
 1028YOPC   D2A14822  12.747   3.914   6.119 -0.0249  0.1620 -0.1094
 1028YOPC   C3A14823  12.694   3.696   6.375 -0.1443 -0.0051  0.3010
 1028YOPC   C4A14824  12.791   3.320   6.556  0.0973 -0.1827  0.2769
 1028YOPC   C1B14825  13.061   4.617   6.260  0.0633  0.1375 -0.1912
 1028YOPC   C2B14826  12.844   4.613   6.482 -0.3666  0.2173  0.2825
 1028YOPC   D3B14827  12.671   4.896   6.670 -0.0411  0.1867  0.2846
 1028YOPC   C4B14828  12.317   4.994   6.572  0.0552 -0.1208 -0.1578
 1029YOPC   NC314829  12.902  18.810   4.767 -0.2591 -0.0640 -0.1639
 1029YOPC   PO414830  12.760  19.226   4.939 -0.0520  0.0187  0.4444
 1029YOPC   GL114831  13.058  19.145   5.227 -0.0148  0.1943  0.2639
 1029YOPC   GL214832  12.898  19.226   5.409 -0.1929 -0.2367 -0.0719
 1029YOPC   C1A14833  13.459  18.947   5.541  0.0525 -0.2090  0.2040
 1029YOPC   D2A14834  13.703  18.627   5.933  0.1462 -0.2147 -0.1754
 1029YOPC   C3A14835  13.504  18.711   6.402  0.3000 -0.1910 -0.0481
 1029YOPC   C4A14836  13.049  18.638   6.457 -0.1705 -0.0287 -0.4583
 1029YOPC   C1B14837  12.917  19.064   5.702 -0.1099  0.0240 -0.1093
 1029YOPC   C2B14838  12.884  19.196   6.205  0.0971  0.3126  0.1747
 1029YOPC   D3B14839  12.580  19.076   6.439  0.1588  0.2879 -0.0933
 1029YOPC   C4B14840  12.520  19.481   6.668 -0.0903  0.0837  0.5577
 1030YOPC   NC314841  13.205  13.319   4.782 -0.0642  0.0060  0.1315
 1030YOPC   PO414842  13.553  13.432   5.054 -0.1420  0.0209  0.1206
 1030YOPC   GL114843  13.731  13.553   5.394 -0.2775 -0.1861  0.0735
 1030YOPC   GL214844  13.741  13.885   5.399  0.0046  0.1747 -0.0602
 1030YOPC   C1A14845  13.909  13.615   5.800  0.3485  0.2277 -0.3147
 1030YOPC   D2A14846  13.991  13.455   6.145  0.0460 -0.1948 -0.4130
 1030YOPC   C3A14847  14.104  13.730   6.549  0.2129  0.2134 -0.2128
 1030YOPC   C4A14848  14.043  13.821   6.951 -0.3882  0.2261 -0.1268
 1030YOPC   C1B14849  13.428  13.974   5.717 -0.1814 -0.0087  0.1409
 1030YOPC   C2B14850  13.192  14.081   6.056  0.0804 -0.0468 -0.0120
 1030YOPC   D3B14851  13.326  14.203   6.416  0.2611 -0.1681  0.1085
 1030YOPC   C4B14852  13.612  13.991   6.705  0.1703  0.5904 -0.1157
 1031YOPC   NC314853   4.548  15.216   5.953 -0.0710 -0.0074  0.0655
 1031YOPC   PO414854   4.359  15.607   6.004 -0.0465  0.1328  0.3143
 1031YOPC   GL114855   4.192  15.765   6.356  0.2541  0.0340  0.0997
 1031YOPC   GL214856   3.913  15.962   6.354  0.0403 -0.0068  0.3878
 1031YOPC   C1A14857   4.441  16.162   6.510  0.1947 -0.1265 -0.0471
 1031YOPC   D2A14858   4.751  16.452   6.720 -0.0218  0.1217  0.1675
 1031YOPC   C3A14859   4.688  16.937   6.776 -0.0157 -0.0077  0.2053
 1031YOPC   C4A14860   4.536  17.335   6.729  0.0354  0.1977  0.0354
 1031YOPC   C1B14861   3.779  15.671   6.679 -0.1420  0.0552 -0.2407
 1031YOPC   C2B14862   3.833  15.604   7.013 -0.0264 -0.0731  0.2131
 1031YOPC   D3B14863   3.991  15.868   7.324 -0.2543 -0.3280  0.1229
 1031YOPC   C4B14864   4.253  15.876   7.595  0.0930  0.1792 -0.1718
 1032YOPC   NC314865   4.265  12.954   5.528  0.2591  0.1354  0.0786
 1032YOPC   PO414866   3.814  12.778   5.479 -0.0848 -0.1855  0.3189
 1032YOPC   GL114867   3.871  12.778   5.774 -0.1344 -0.3180  0.1730
 1032YOPC   GL214868   4.046  12.601   5.884  0.4400 -0.0904  0.1365
 1032YOPC   C1A14869   3.429  12.780   6.163  0.2703  0.0448 -0.2393
 1032YOPC   D2A14870   3.046  12.620   5.963  0.0342 -0.1422 -0.0093
 1032YOPC   C3A14871   2.819  12.277   6.296 -0.0133  0.2294  0.0226
 1032YOPC   C4A14872   2.520  11.889   6.326 -0.3069  0.1976 -0.0608
 1032YOPC   C1B14873   3.830  12.479   6.183 -0.1130  0.0128 -0.1203
 1032YOPC   C2B14874   3.422  12.194   6.193 -0.0452 -0.2497 -0.3057
 1032YOPC   D3B14875   3.226  11.915   6.486  0.1855  0.0574 -0.1103
 1032YOPC   C4B14876   2.865  11.631   6.558  0.0114  0.0764  0.2165
 1033YOPC   NC314877  11.959   2.230   5.046 -0.0494  0.1766  0.0861
 1033YOPC   PO414878  12.303   2.441   5.311 -0.0179  0.1102 -0.1997
 1033YOPC   GL114879  12.364   2.246   5.722 -0.0732  0.2009 -0.0178
 1033YOPC   GL214880  12.645   2.214   5.831 -0.4412 -0.5253 -0.1543
 1033YOPC   C1A14881  12.267   1.853   5.963  0.1246 -0.3507 -0.2475
 1033YOPC   D2A14882  12.398   1.658   6.354  0.0131 -0.0664 -0.1158
 1033YOPC   C3A14883  12.502   1.323   6.468  0.2668  0.1536 -0.1216
 1033YOPC   C4A14884  12.335   0.925   6.683 -0.1280 -0.0641 -0.1743
 1033YOPC   C1B14885  12.539   2.167   6.262 -0.1593  0.0084  0.2066
 1033YOPC   C2B14886  12.161   1.985   6.597 -0.0216 -0.1332 -0.0863
 1033YOPC   D3B14887  11.783   2.248   6.754 -0.1632 -0.1969  0.2031
 1033YOPC   C4B14888  11.309   2.241   6.812 -0.2315 -0.2795  0.0982
 1034YOPC   NC314889   7.639  15.995   5.002  0.0694 -0.0668 -0.0049
 1034YOPC   PO414890   7.657  15.630   5.319  0.0181 -0.3573 -0.1356
 1034YOPC   GL114891   7.531  15.777   5.681  0.0072  0.2371 -0.0635
 1034YOPC   GL214892   7.342  15.544   5.784  0.0149 -0.1459 -0.1183
 1034YOPC   C1A14893   7.694  15.696   6.109 -0.2652 -0.1747  0.1313
 1034YOPC   D2A14894   7.786  15.994   6.473  0.0704 -0.1812  0.4435
 1034YOPC   C3A14895   8.170  16.083   6.591 -0.1113 -0.2546  0.1080
 1034YOPC   C4A14896   8.445  16.028   7.041 -0.1964  0.1430  0.1720
 1034YOPC   C1B14897   7.268  15.414   6.237  0.1751  0.0706 -0.0322
 1034YOPC   C2B14898   7.473  15.519   6.658  0.2048 -0.0766 -0.0450
 1034YOPC   D3B14899   7.862  15.507   6.781 -0.3366  0.1325 -0.1727
 1034YOPC   C4B14900   8.000  15.806   7.097  0.1978 -0.2394  0.1156
 1035YOPC   NC314901   8.588   2.184   5.288 -0.0718 -0.2643 -0.1200
 1035YOPC   PO414902   8.344   2.546   5.395  0.0608  0.0246 -0.1630
 1035YOPC   GL114903   8.544   2.506   5.824  0.0414  0.0674 -0.0911
 1035YOPC   GL214904   8.782   2.271   5.776 -0.1881  0.0644  0.0436
 1035YOPC   C1A14905   8.376   2.677   6.158 -0.0041 -0.2344  0.0069
 1035YOPC   D2A14906   8.036   2.782   6.353 -0.2522 -0.1417  0.0459
 1035YOPC   C3A14907   7.957   3.107   6.729 -0.2492 -0.2118  0.0128
 1035YOPC   C4A14908   8.038   3.152   7.190  0.2252  0.0947 -0.3388
 1035YOPC   C1B14909   8.446   2.078   5.990  0.0251  0.1060 -0.1557
 1035YOPC   C2B14910   8.261   2.191   6.332  0.0160  0.1701  0.0184
 1035YOPC   D3B14911   8.370   2.571   6.643 -0.2758 -0.0874 -0.0090
 1035YOPC   C4B14912   8.449   2.989   6.635  0.0200 -0.2917  0.1741
 1036YOPC   NC314913   2.202  12.941   5.176  0.0571  0.1567 -0.1787
 1036YOPC   PO414914   2.059  12.415   5.040 -0.1236 -0.0793 -0.0875
 1036YOPC   GL114915   1.653  12.487   5.316  0.1201  0.3430 -0.0686
 1036YOPC   GL214916   1.444  12.762   5.547  0.0716  0.2831  0.1914
 1036YOPC   C1A14917   1.509  12.287   5.787  0.2912 -0.0831  0.1082
 1036YOPC   D2A14918   1.424  12.213   6.199 -0.1930  0.4769 -0.0881
 1036YOPC   C3A14919   1.532  11.645   6.150  0.0913 -0.1005 -0.3381
 1036YOPC   C4A14920   1.727  11.366   6.038  0.3652 -0.2035  0.0113
 1036YOPC   C1B14921   1.159  12.622   5.818 -0.0208  0.0635 -0.1227
 1036YOPC   C2B14922   1.046  12.836   6.202 -0.1483  0.2059 -0.1327
 1036YOPC   D3B14923   1.317  12.685   6.359  0.0777 -0.0734 -0.1201
 1036YOPC   C4B14924   1.553  12.581   6.678 -0.3413 -0.1047  0.2119
 1037YOPC   NC314925  14.948   6.194   4.921 -0.1500 -0.1560 -0.1890
 1037YOPC   PO414926  15.394   6.015   5.107  0.3661  0.1012 -0.0393
 1037YOPC   GL114927  15.406   5.896   5.580  0.0135  0.2166 -0.0651
 1037YOPC   GL214928  15.503   6.249   5.807  0.1169 -0.2646 -0.1300
 1037YOPC   C1A14929  15.273   5.816   5.923 -0.0978 -0.1762  0.0516
 1037YOPC   D2A14930  15.345   5.598   6.293  0.0715  0.3055  0.2360
 1037YOPC   C3A14931  15.537   5.662   6.652  0.2263 -0.2200 -0.1019
 1037YOPC   C4A14932  15.630   5.698   7.131 -0.2017  0.1971 -0.1246
 1037YOPC   C1B14933  15.615   6.177   6.091 -0.0118 -0.0175  0.1078
 1037YOPC   C2B14934  15.722   6.059   6.404 -0.1715  0.1908 -0.1373
 1037YOPC   D3B14935  15.540   6.155   6.777 -0.1447  0.0497  0.1433
 1037YOPC   C4B14936  15.250   6.420   6.953 -0.0624 -0.4060  0.1514
 1038YOPC   NC314937  13.516   9.395   5.234 -0.1939 -0.0200  0.0051
 1038YOPC   PO414938  13.227   9.636   4.975 -0.0277 -0.0070 -0.1145
 1038YOPC   GL114939  13.098   9.841   5.329 -0.2290  0.1297 -0.0710
 1038YOPC   GL214940  13.279  10.107   5.544 -0.1744 -0.2110  0.3098
 1038YOPC   C1A14941  12.653   9.945   5.373  0.0603  0.1974 -0.0470
 1038YOPC   D2A14942  12.194   9.890   5.485  0.0014 -0.0035  0.2534
 1038YOPC   C3A14943  12.021   9.968   5.870  0.0921 -0.0573 -0.2296
 1038YOPC   C4A14944  11.983   9.939   6.430 -0.0095 -0.0559 -0.0238
 1038YOPC   C1B14945  12.929  10.025   5.823 -0.1500 -0.0840 -0.2778
 1038YOPC   C2B14946  12.509  10.172   6.004  0.1221  0.0610 -0.1729
 1038YOPC   D3B14947  12.446  10.104   6.395 -0.3155  0.3033  0.3771
 1038YOPC   C4B14948  12.387   9.819   6.675  0.2487  0.1388  0.4512
 1039YOPC   NC314949   3.334  16.480   5.596 -0.1338 -0.1555  0.1522
 1039YOPC   PO414950   3.673  16.081   5.603  0.1876  0.3843 -0.3180
 1039YOPC   GL114951   3.477  16.241   6.070 -0.1732 -0.0597 -0.2091
 1039YOPC   GL214952   3.634  16.381   6.371 -0.0483  0.1720  0.0392
 1039YOPC   C1A14953   3.379  15.973   6.433 -0.0134 -0.0661  0.3062
 1039YOPC   D2A14954   3.135  15.902   6.695  0.1733 -0.1837 -0.0236
 1039YOPC   C3A14955   3.183  16.062   7.138 -0.1714  0.1900  0.1114
 1039YOPC   C4A14956   3.514  15.984   7.280  0.1222  0.1832  0.2204
 1039YOPC   C1B14957   3.965  16.594   6.662  0.1311  0.0074  0.1677
 1039YOPC   C2B14958   4.321  16.595   7.007  0.1141  0.4466  0.1483
 1039YOPC   D3B14959   4.295  16.726   7.310  0.1407  0.0648  0.0122
 1039YOPC   C4B14960   4.027  17.066   7.476 -0.1632 -0.1396  0.2530
 1040YOPC   NC314961  17.508   1.925   5.516  0.0508  0.1560 -0.2141
 1040YOPC   PO414962  17.420   2.395   5.504  0.2393 -0.0150 -0.2764
 1040YOPC   GL114963  17.230   2.204   5.838 -0.2081 -0.0906  0.3350
 1040YOPC   GL214964  17.216   1.854   6.038 -0.2869  0.0823  0.0485
 1040YOPC   C1A14965  16.995   2.301   6.093  0.3289  0.0517  0.0789
 1040YOPC   D2A14966  17.113   2.244   6.530 -0.1973  0.2582  0.0971
 1040YOPC   C3A14967  17.051   2.468   6.954 -0.2304 -0.2706  0.1648
 1040YOPC   C4A14968  16.665   2.544   7.147 -0.2292  0.2956 -0.0163
 1040YOPC   C1B14969  16.858   1.842   6.337 -0.2155 -0.2289  0.0764
 1040YOPC   C2B14970  16.580   2.249   6.460 -0.1016 -0.0189  0.1143
 1040YOPC   D3B14971  16.339   2.308   6.748  0.0060  0.1630 -0.0972
 1040YOPC   C4B14972  16.212   2.386   7.151 -0.1102 -0.2971 -0.0702
 1041YOPC   NC314973  14.349   3.469   5.172  0.2195 -0.2005 -0.0065
 1041YOPC   PO414974  14.755   3.357   5.376 -0.1963  0.2335 -0.1040
 1041YOPC   GL114975  14.654   3.675   5.595  0.0591 -0.0259  0.2692
 1041YOPC   GL214976  14.822   3.908   5.675 -0.1169 -0.1552  0.0953
 1041YOPC   C1A14977  14.241   3.843   5.956 -0.4060 -0.0604  0.3220
 1041YOPC   D2A14978  14.208   3.857   6.365 -0.0581 -0.0533  0.2651
 1041YOPC   C3A14979  14.411   3.536   6.570 -0.0721 -0.2436  0.0285
 1041YOPC   C4A14980  14.848   3.450   6.789 -0.1043  0.3314  0.0271
 1041YOPC   C1B14981  15.138   3.868   5.904  0.0726 -0.1225  0.2231
 1041YOPC   C2B14982  15.563   3.760   6.060  0.4388  0.0532  0.4340
 1041YOPC   D3B14983  15.517   3.430   6.277  0.1355 -0.2351  0.4227
 1041YOPC   C4B14984  15.155   3.265   6.476  0.2882 -0.4138  0.1144
 1042YOPC   NC314985   6.842  13.123   4.963 -0.3601 -0.2490  0.1307
 1042YOPC   PO414986   7.183  13.095   4.772 -0.1428  0.0459 -0.2941
 1042YOPC   GL114987   7.353  13.079   5.217 -0.0418  0.5706 -0.0192
 1042YOPC   GL214988   7.532  13.300   5.345  0.2731 -0.1659  0.0579
 1042YOPC   C1A14989   7.578  12.820   5.566 -0.0981 -0.2651  0.0037
 1042YOPC   D2A14990   7.785  12.630   6.032 -0.3406 -0.2163 -0.0114
 1042YOPC   C3A14991   7.736  12.324   6.257 -0.2081  0.0641  0.1299
 1042YOPC   C4A14992   7.397  12.227   6.577 -0.0461  0.3838  0.2326
 1042YOPC   C1B14993   7.604  13.397   5.839 -0.0659 -0.2623 -0.2377
 1042YOPC   C2B14994   7.561  13.412   6.335 -0.0687 -0.0021  0.0474
 1042YOPC   D3B14995   7.380  13.149   6.600  0.1684 -0.2219 -0.4193
 1042YOPC   C4B14996   7.024  12.933   6.835 -0.1717 -0.2538  0.2552
 1043YOPC   NC314997   0.464  13.905   4.796  0.0701 -0.2843  0.1822
 1043YOPC   PO414998   0.214  13.855   5.181  0.2878  0.5371 -0.1114
 1043YOPC   GL114999   0.469  13.884   5.415 -0.0936  0.2306  0.0449
 1043YOPC   GL215000   0.497  13.560   5.569 -0.2903  0.1521  0.0637
 1043YOPC   C1A15001   0.757  14.093   5.705 -0.0856 -0.0547  0.2351
 1043YOPC   D2A15002   0.891  13.932   6.084  0.0727 -0.0973  0.2826
 1043YOPC   C3A15003   1.200  14.013   6.519  0.1027  0.3618 -0.2041
 1043YOPC   C4A15004   1.376  14.044   6.848 -0.1194 -0.1019 -0.0152
 1043YOPC   C1B15005   0.659  13.445   5.998 -0.1204  0.3181  0.0288
 1043YOPC   C2B15006   0.849  13.429   6.365 -0.0626 -0.3425 -0.2859
 1043YOPC   D3B15007   0.647  13.455   6.778 -0.3208  0.0355  0.0723
 1043YOPC   C4B15008   0.207  13.476   6.926 -0.1799  0.0811 -0.1673
 1044YOPC   NC315009  15.704   9.850   5.185 -0.4383  0.1338  0.3103
 1044YOPC   PO415010  15.190   9.769   5.361  0.2716  0.2834  0.1542
 1044YOPC   GL115011  15.533   9.780   5.650  0.1145  0.0161 -0.1995
 1044YOPC   GL215012  15.557   9.437   5.655 -0.0956 -0.3909 -0.2775
 1044YOPC   C1A15013  15.714   9.687   6.060 -0.1853  0.1984 -0.1873
 1044YOPC   D2A15014  15.815   9.758   6.525  0.2731  0.3921  0.4579
 1044YOPC   C3A15015  15.732   9.946   6.929 -0.0214 -0.2635 -0.0831
 1044YOPC   C4A15016  15.419   9.873   7.227  0.0017  0.1736  0.1210
 1044YOPC   C1B15017  15.284   9.230   6.034 -0.1066 -0.1835  0.3100
 1044YOPC   C2B15018  15.215   9.288   6.510  0.0266  0.0960 -0.1467
 1044YOPC   D3B15019  15.292   9.049   6.877 -0.2761  0.1500 -0.0792
 1044YOPC   C4B15020  14.981   8.705   7.172  0.1626 -0.0960 -0.1000
 1045YOPC   NC315021   5.536  12.694   5.497  0.1436  0.0099 -0.1994
 1045YOPC   PO415022   5.594  12.352   5.252  0.2048  0.0289 -0.2409
 1045YOPC   GL115023   5.510  12.094   5.606 -0.0403  0.1010 -0.3742
 1045YOPC   GL215024   5.517  12.374   5.848  0.0147  0.1814  0.0595
 1045YOPC   C1A15025   5.376  11.740   5.766 -0.1896 -0.0800 -0.1620
 1045YOPC   D2A15026   5.409  11.618   6.181  0.3824 -0.1403 -0.2142
 1045YOPC   C3A15027   5.706  11.697   6.610 -0.0168 -0.1800 -0.1419
 1045YOPC   C4A15028   5.742  11.377   6.969 -0.0431  0.5921  0.0875
 1045YOPC   C1B15029   5.556  12.127   6.241 -0.1299 -0.2366 -0.0982
 1045YOPC   C2B15030   5.430  12.273   6.689  0.0346  0.0983  0.3309
 1045YOPC   D3B15031   5.472  11.966   7.044 -0.0705 -0.0913  0.2169
 1045YOPC   C4B15032   5.680  11.732   7.403 -0.1267  0.1936 -0.4638
 1046YOPC   NC315033   3.602   5.034   5.638 -0.0816 -0.0275  0.0862
 1046YOPC   PO415034   3.654   5.522   5.709  0.0402  0.0120  0.0269
 1046YOPC   GL115035   3.723   5.400   6.086 -0.5368 -0.2500 -0.0001
 1046YOPC   GL215036   3.950   5.225   6.064  0.0142 -0.1490 -0.0763
 1046YOPC   C1A15037   3.708   5.177   6.492  0.0122 -0.3747 -0.0042
 1046YOPC   D2A15038   3.595   5.111   6.946  0.0374 -0.0897 -0.2164
 1046YOPC   C3A15039   3.901   4.927   7.248  0.1401  0.0674  0.2191
 1046YOPC   C4A15040   4.109   4.971   7.709  0.0201 -0.1810  0.1746
 1046YOPC   C1B15041   4.168   5.321   6.401  0.0035  0.4016  0.0492
 1046YOPC   C2B15042   4.591   5.238   6.632  0.1992  0.1915 -0.1404
 1046YOPC   D3B15043   4.589   5.444   7.015  0.0961 -0.0019  0.1135
 1046YOPC   C4B15044   4.320   5.188   7.299  0.2770 -0.1391  0.1250
 1047YOPC   NC315045  19.425  12.949   4.592  0.2630 -0.1088  0.0758
 1047YOPC   PO415046  19.307  12.708   4.991 -0.0310 -0.0813  0.3701
 1047YOPC   GL115047  19.558  12.651   5.373  0.1626 -0.0513  0.0773
 1047YOPC   GL215048  19.512  12.408   5.574 -0.0071 -0.0563  0.0608
 1047YOPC   C1A15049  19.708  12.811   5.791 -0.2198 -0.2491  0.1501
 1047YOPC   D2A15050  19.585  13.188   5.967 -0.0350 -0.3996  0.0897
 1047YOPC   C3A15051  19.325  13.362   6.236 -0.1261  0.0168 -0.0937
 1047YOPC   C4A15052  19.118  13.753   6.342  0.0286  0.4075 -0.1810
 1047YOPC   C1B15053  19.262  12.544   5.746  0.3159 -0.2599 -0.2974
 1047YOPC   C2B15054  18.919  12.648   6.044  0.4694  0.1614 -0.2474
 1047YOPC   D3B15055  18.524  12.508   6.350  0.0281 -0.0812  0.4020
 1047YOPC   C4B15056  18.127  12.781   6.479  0.0154  0.3472  0.1292
 1048YOPC   NC315057   0.442   3.155   5.943  0.2095  0.0715  0.1671
 1048YOPC   PO415058   0.216   3.184   6.301  0.2884 -0.2302 -0.0480
 1048YOPC   GL115059   0.101   3.518   6.616 -0.0097 -0.0989 -0.2099
 1048YOPC   GL215060   0.331   3.748   6.780 -0.1781 -0.0225 -0.0247
 1048YOPC   C1A15061  -0.182   3.404   6.737  0.2403  0.0151 -0.1762
 1048YOPC   D2A15062  -0.357   3.181   7.119  0.1276 -0.2091  0.2056
 1048YOPC   C3A15063  -0.321   3.564   7.364 -0.0289 -0.1844  0.1489
 1048YOPC   C4A15064  -0.157   3.726   7.761 -0.1382  0.2910 -0.0766
 1048YOPC   C1B15065   0.793   3.809   6.746 -0.2457 -0.0541 -0.1626
 1048YOPC   C2B15066   1.151   3.834   7.124  0.0376 -0.3616 -0.2543
 1048YOPC   D3B15067   1.281   4.040   7.419  0.4613 -0.1362  0.1226
 1048YOPC   C4B15068   1.070   4.214   7.799  0.3271 -0.3842 -0.1893
 1049YOPC   NC315069  17.010  13.883   4.962 -0.1733 -0.2541  0.1730
 1049YOPC   PO415070  17.080  13.460   4.977 -0.0067  0.4034  0.0593
 1049YOPC   GL115071  16.976  13.628   5.418 -0.1664 -0.3187  0.0470
 1049YOPC   GL215072  17.125  13.965   5.485  0.1590  0.0448 -0.1939
 1049YOPC   C1A15073  17.070  13.702   5.852 -0.0356 -0.2184  0.0307
 1049YOPC   D2A15074  17.296  13.746   6.329  0.1036  0.1103 -0.2288
 1049YOPC   C3A15075  17.430  13.813   6.716  0.3812  0.1012  0.2007
 1049YOPC   C4A15076  17.764  13.566   6.960 -0.2071  0.2521  0.0108
 1049YOPC   C1B15077  17.354  14.136   5.828 -0.0469  0.1278  0.0023
 1049YOPC   C2B15078  17.317  14.546   6.064 -0.2026  0.2158  0.1166
 1049YOPC   D3B15079  17.307  14.409   6.439  0.1592 -0.0005 -0.3245
 1049YOPC   C4B15080  17.585  14.333   6.774  0.0203  0.0427 -0.1457
 1050YOPC   NC315081   8.310  15.804   4.854  0.0298 -0.1536  0.3774
 1050YOPC   PO415082   8.527  15.565   5.174  0.1621 -0.0984 -0.0418
 1050YOPC   GL115083   8.454  15.477   5.623 -0.4064 -0.0419 -0.0171
 1050YOPC   GL215084   8.149  15.354   5.870  0.3866 -0.3030 -0.1884
 1050YOPC   C1A15085   8.598  15.691   6.065 -0.1655 -0.1620  0.1406
 1050YOPC   D2A15086   8.842  15.466   6.304 -0.0408 -0.2539 -0.0978
 1050YOPC   C3A15087   8.878  15.248   6.710  0.0835 -0.1344  0.1634
 1050YOPC   C4A15088   9.264  15.119   6.734 -0.2726  0.1549  0.1977
 1050YOPC   C1B15089   8.128  15.841   5.878  0.1900  0.1362  0.0835
 1050YOPC   C2B15090   7.846  16.143   5.931 -0.1853 -0.1629  0.1508
 1050YOPC   D3B15091   8.225  16.278   6.125 -0.1277  0.2187 -0.1612
 1050YOPC   C4B15092   8.676  16.163   6.281  0.1536 -0.1005  0.0406
 1051YOPC   NC315093  11.827   5.720   5.111 -0.3102  0.1327 -0.0269
 1051YOPC   PO415094  12.216   5.796   5.177  0.0735 -0.0284 -0.1411
 1051YOPC   GL115095  12.304   5.579   5.518  0.2570 -0.0246  0.0385
 1051YOPC   GL215096  12.380   5.733   5.810 -0.1942 -0.0192 -0.2483
 1051YOPC   C1A15097  11.916   5.481   5.738  0.0219 -0.0685 -0.1100
 1051YOPC   D2A15098  11.582   5.289   5.985  0.1081  0.0093 -0.0602
 1051YOPC   C3A15099  11.418   5.622   6.256  0.3084  0.0696 -0.0528
 1051YOPC   C4A15100  11.089   5.769   6.191  0.0792 -0.0585 -0.3870
 1051YOPC   C1B15101  12.801   5.687   6.068 -0.1891  0.2392  0.0141
 1051YOPC   C2B15102  12.967   5.838   6.468 -0.0416  0.1464  0.3077
 1051YOPC   D3B15103  12.800   6.160   6.723 -0.0474 -0.2407 -0.0314
 1051YOPC   C4B15104  12.829   6.369   7.065  0.0254  0.0857  0.1485
 1052YOPC   NC315105  12.700  12.973   5.291  0.0472 -0.1164 -0.1680
 1052YOPC   PO415106  12.282  12.831   5.285  0.0885 -0.0054 -0.3395
 1052YOPC   GL115107  12.439  12.927   5.709 -0.2497 -0.0179 -0.0969
 1052YOPC   GL215108  12.811  12.729   5.778 -0.2853  0.1298  0.1286
 1052YOPC   C1A15109  12.446  13.025   6.113  0.1014  0.1622  0.1785
 1052YOPC   D2A15110  12.603  13.220   6.424  0.1433 -0.4697 -0.1221
 1052YOPC   C3A15111  12.527  13.469   6.732  0.0635  0.1143  0.1380
 1052YOPC   C4A15112  12.409  13.823   6.562  0.0219 -0.0721 -0.0905
 1052YOPC   C1B15113  12.956  12.921   6.178  0.0610  0.2280 -0.2339
 1052YOPC   C2B15114  13.020  13.121   6.755  0.1842 -0.1959 -0.0687
 1052YOPC   D3B15115  13.346  13.221   6.959  0.1940  0.1684  0.0424
 1052YOPC   C4B15116  13.603  12.853   7.136 -0.4101  0.2733 -0.2326
 1053YOPC   NC315117   9.261   5.242   5.121 -0.0999  0.2194 -0.2330
 1053YOPC   PO415118   8.899   5.055   5.092  0.1445  0.0336 -0.0047
 1053YOPC   GL115119   9.061   5.256   5.594  0.1225  0.0731  0.1915
 1053YOPC   GL215120   8.824   5.416   5.638  0.0050 -0.0096 -0.3359
 1053YOPC   C1A15121   9.126   5.465   6.071 -0.0774 -0.1820  0.1116
 1053YOPC   D2A15122   9.151   5.730   6.302  0.0417  0.1521  0.0986
 1053YOPC   C3A15123   9.467   5.781   6.676 -0.2648 -0.0438  0.1106
 1053YOPC   C4A15124   9.599   5.661   7.125  0.2740  0.1607  0.2899
 1053YOPC   C1B15125   8.721   5.797   5.974 -0.0750 -0.0347 -0.0168
 1053YOPC   C2B15126   8.703   5.557   6.408  0.1260  0.1422 -0.1509
 1053YOPC   D3B15127   8.992   5.523   6.742  0.1255  0.0911 -0.0519
 1053YOPC   C4B15128   9.061   5.461   7.172 -0.2070  0.4161 -0.2969
 1054YOPC   NC315129  12.862   9.430   4.739 -0.4451  0.1615  0.1670
 1054YOPC   PO415130  12.973   9.135   5.120  0.0388  0.1505  0.0906
 1054YOPC   GL115131  12.721   9.355   5.342  0.0515 -0.0914  0.0535
 1054YOPC   GL215132  12.630   9.199   5.663 -0.0521 -0.2538 -0.0074
 1054YOPC   C1A15133  12.534   9.631   5.804  0.0021 -0.3234 -0.1486
 1054YOPC   D2A15134  12.295   9.647   6.176  0.1216  0.2156  0.0183
 1054YOPC   C3A15135  11.800   9.571   6.127  0.0722 -0.4827 -0.3753
 1054YOPC   C4A15136  11.534   9.441   6.045  0.0645  0.1738 -0.1809
 1054YOPC   C1B15137  13.076   8.995   5.820 -0.1333  0.1595  0.2506
 1054YOPC   C2B15138  13.233   8.860   6.109  0.0123  0.0040  0.1257
 1054YOPC   D3B15139  13.349   9.122   6.476 -0.0069 -0.2256  0.2794
 1054YOPC   C4B15140  13.157   9.426   6.725 -0.0144 -0.1444 -0.1762
 1055YOPC   NC315141   1.522  18.325   5.656 -0.1484 -0.1765  0.2099
 1055YOPC   PO415142   1.669  17.809   5.837 -0.0257 -0.1608 -0.1107
 1055YOPC   GL115143   1.558  17.515   6.226  0.0195  0.2660  0.0002
 1055YOPC   GL215144   1.649  17.144   6.181  0.1704  0.2743 -0.3702
 1055YOPC   C1A15145   1.729  17.746   6.587  0.1983  0.1729 -0.1045
 1055YOPC   D2A15146   1.667  18.063   6.821 -0.0567  0.2392 -0.1728
 1055YOPC   C3A15147   1.667  17.997   7.232 -0.2375  0.0786  0.0202
 1055YOPC   C4A15148   1.672  17.836   7.579 -0.5012 -0.3218 -0.1541
 1055YOPC   C1B15149   1.601  16.850   6.438  0.0865  0.0008 -0.0444
 1055YOPC   C2B15150   1.854  16.726   6.899 -0.0485 -0.1487  0.3145
 1055YOPC   D3B15151   1.876  16.667   7.371 -0.0720  0.1795 -0.2019
 1055YOPC   C4B15152   2.291  16.412   7.462 -0.2010  0.1087  0.3614
 1056YOPC   NC315153   9.107  12.323   4.992 -0.2219  0.1715 -0.3624
 1056YOPC   PO415154   9.231  11.962   4.734 -0.1130 -0.0380  0.0490
 1056YOPC   GL115155   9.425  11.927   5.143 -0.1318 -0.0744 -0.1233
 1056YOPC   GL215156   9.302  11.611   5.367  0.1066  0.3569  0.2112
 1056YOPC   C1A15157   9.495  12.137   5.518 -0.1789  0.1686 -0.0392
 1056YOPC   D2A15158   9.512  12.066   5.944  0.0840 -0.4153  0.0548
 1056YOPC   C3A15159   9.680  12.370   6.144  0.0701  0.2303 -0.1232
 1056YOPC   C4A15160   9.728  12.715   6.438  0.1069  0.2502 -0.1327
 1056YOPC   C1B15161   9.185  11.664   5.876 -0.0926  0.0032 -0.0859
 1056YOPC   C2B15162   9.153  11.728   6.333 -0.0997 -0.2789 -0.1098
 1056YOPC   D3B15163   9.188  11.484   6.714  0.2420 -0.1697  0.1804
 1056YOPC   C4B15164   8.881  11.270   7.004 -0.1021  0.5079  0.0944
 1057YOPC   NC315165   9.249   8.703   5.012  0.0545  0.0416  0.0999
 1057YOPC   PO415166   8.817   8.631   5.130  0.2697  0.1255 -0.0302
 1057YOPC   GL115167   8.993   8.334   5.487 -0.0456  0.2195  0.1425
 1057YOPC   GL215168   9.364   8.353   5.463  0.1430 -0.0883 -0.0189
 1057YOPC   C1A15169   9.038   8.394   5.896 -0.1334  0.2006 -0.0255
 1057YOPC   D2A15170   9.230   8.595   6.206  0.1551 -0.3585  0.2088
 1057YOPC   C3A15171   9.304   8.474   6.588  0.1298  0.3223 -0.0162
 1057YOPC   C4A15172   9.235   8.739   6.876 -0.1516 -0.2722 -0.2418
 1057YOPC   C1B15173   9.640   8.563   5.789 -0.1891  0.0558 -0.1517
 1057YOPC   C2B15174   9.703   8.620   6.228  0.0171  0.0324  0.0054
 1057YOPC   D3B15175   9.996   8.370   6.518  0.0494 -0.0304 -0.1411
 1057YOPC   C4B15176   9.713   8.440   6.890  0.1319  0.1902  0.3295
 1058YOPC   NC315177   7.725  19.227   5.220 -0.0856 -0.2148  0.0095
 1058YOPC   PO415178   8.107  19.449   5.399 -0.1692  0.2924 -0.1059
 1058YOPC   GL115179   7.757  19.715   5.643  0.2695 -0.0690  0.2412
 1058YOPC   GL215180   7.700  19.598   6.034  0.3978  0.1196  0.1996
 1058YOPC   C1A15181   7.887  20.025   6.032 -0.1221  0.2661  0.1883
 1058YOPC   D2A15182   7.934  20.478   6.145 -0.2006 -0.2894  0.0172
 1058YOPC   C3A15183   8.122  20.690   6.491  0.1017  0.2661 -0.0108
 1058YOPC   C4A15184   8.000  20.670   6.852  0.0391  0.1938  0.0755
 1058YOPC   C1B15185   7.305  19.771   5.991 -0.2466  0.3041 -0.1254
 1058YOPC   C2B15186   6.920  19.514   5.881  0.2007  0.1601 -0.3234
 1058YOPC   D3B15187   6.747  19.430   6.274 -0.0516 -0.1969  0.1921
 1058YOPC   C4B15188   6.749  19.376   6.666  0.1160 -0.1073 -0.2137
 1059YOPC   NC315189  16.394   1.892   4.990  0.0826 -0.2815  0.2291
 1059YOPC   PO415190  16.491   1.989   5.388 -0.0422 -0.2651  0.3520
 1059YOPC   GL115191  16.291   2.085   5.768  0.1605 -0.2974  0.4574
 1059YOPC   GL215192  15.978   2.263   5.749 -0.1708 -0.0401  0.4179
 1059YOPC   C1A15193  16.337   1.859   6.189  0.2313 -0.1028 -0.0324
 1059YOPC   D2A15194  16.086   1.914   6.596  0.0283 -0.3438  0.1088
 1059YOPC   C3A15195  16.324   1.883   6.995  0.1619  0.0563 -0.0999
 1059YOPC   C4A15196  16.772   2.018   6.924  0.1615 -0.0665 -0.1587
 1059YOPC   C1B15197  16.234   2.605   5.922  0.1194 -0.0545 -0.1123
 1059YOPC   C2B15198  16.590   2.535   5.945 -0.0151  0.1452  0.2222
 1059YOPC   D3B15199  16.814   2.710   6.357 -0.0111  0.0860  0.1126
 1059YOPC   C4B15200  16.782   2.829   6.748 -0.2702 -0.0319 -0.0750
 1060YOPC   NC315201   1.430   4.336   5.948 -0.1469  0.4250  0.1115
 1060YOPC   PO415202   1.880   4.424   5.994 -0.1148 -0.0900  0.1241
 1060YOPC   GL115203   1.735   4.476   6.285  0.1093  0.1147 -0.2677
 1060YOPC   GL215204   1.690   4.155   6.354  0.1662  0.3596 -0.4966
 1060YOPC   C1A15205   1.910   4.410   6.752  0.0746  0.3219  0.0058
 1060YOPC   D2A15206   2.109   4.620   7.058 -0.1885  0.2968 -0.0555
 1060YOPC   C3A15207   1.879   4.741   7.407 -0.0368  0.0282  0.1634
 1060YOPC   C4A15208   1.876   4.647   7.844  0.0472  0.2057 -0.1364
 1060YOPC   C1B15209   1.901   3.894   6.669 -0.3276  0.3444 -0.1691
 1060YOPC   C2B15210   2.104   3.959   7.079 -0.4998  0.4712 -0.0031
 1060YOPC   D3B15211   2.323   4.234   7.302  0.1138 -0.1901  0.2624
 1060YOPC   C4B15212   2.304   4.593   7.537 -0.0347  0.1305 -0.1678
 1061YOPC   NC315213   7.701   2.353   5.431 -0.2529  0.0534  0.0269
 1061YOPC   PO415214   7.336   2.254   5.490 -0.1069  0.1654 -0.3418
 1061YOPC   GL115215   7.494   2.141   5.823  0.0842 -0.1002  0.0696
 1061YOPC   GL215216   7.499   2.002   6.141 -0.0953  0.3050 -0.1191
 1061YOPC   C1A15217   7.839   2.366   6.152 -0.3266  0.1633  0.2872
 1061YOPC   D2A15218   7.867   2.358   6.642  0.0483  0.1250 -0.1943
 1061YOPC   C3A15219   7.687   2.598   7.002 -0.0148  0.1665 -0.1875
 1061YOPC   C4A15220   7.813   2.767   7.354 -0.3078  0.1376  0.0741
 1061YOPC   C1B15221   7.811   1.913   6.416  0.1625  0.2797  0.0441
 1061YOPC   C2B15222   7.903   1.673   6.726  0.0517  0.2428 -0.3096
 1061YOPC   D3B15223   7.912   1.685   7.217 -0.3501 -0.6524 -0.1763
 1061YOPC   C4B15224   7.854   1.435   7.466 -0.4264 -0.0967  0.0811
 1062YOPC   NC315225  11.120  19.188   4.550 -0.0018  0.1074 -0.0611
 1062YOPC   PO415226  11.103  19.195   5.056  0.2870 -0.2172 -0.0536
 1062YOPC   GL115227  10.900  19.404   5.394  0.0305 -0.1207 -0.1163
 1062YOPC   GL215228  10.603  19.669   5.416 -0.3008 -0.1468 -0.2474
 1062YOPC   C1A15229  11.002  19.749   5.801  0.1929 -0.0539  0.0383
 1062YOPC   D2A15230  11.216  20.022   6.145  0.1390  0.1560 -0.1176
 1062YOPC   C3A15231  11.476  19.609   6.180 -0.0339 -0.2598  0.0393
 1062YOPC   C4A15232  11.683  19.347   6.247 -0.0462  0.2846  0.0866
 1062YOPC   C1B15233  10.242  19.629   5.801 -0.0359 -0.0532  0.1569
 1062YOPC   C2B15234  10.228  19.513   6.239 -0.2114  0.3354  0.0648
 1062YOPC   D3B15235   9.933  19.628   6.510  0.0485  0.2348 -0.5085
 1062YOPC   C4B15236   9.484  19.780   6.684 -0.5927  0.0504  0.0949
 1063YOPC   NC315237  18.446  18.472   5.196 -0.0085 -0.0187 -0.1339
 1063YOPC   PO415238  18.759  18.380   5.581 -0.2698  0.0639  0.2797
 1063YOPC   GL115239  18.918  18.152   5.971 -0.1047 -0.1069  0.0234
 1063YOPC   GL215240  18.937  17.829   5.832  0.2185  0.1932 -0.2867
 1063YOPC   C1A15241  18.833  17.918   6.397  0.2005 -0.0729  0.1838
 1063YOPC   D2A15242  19.012  17.873   6.777  0.0533  0.3901  0.0028
 1063YOPC   C3A15243  19.000  18.203   7.032  0.2492  0.2932  0.0059
 1063YOPC   C4A15244  19.164  18.349   7.502 -0.1097  0.1829  0.1034
 1063YOPC   C1B15245  18.835  17.435   6.157  0.0115 -0.1877  0.3727
 1063YOPC   C2B15246  18.611  17.168   6.292  0.1215 -0.2950  0.0879
 1063YOPC   D3B15247  18.444  17.157   6.739 -0.1629  0.1391  0.1244
 1063YOPC   C4B15248  18.180  17.191   7.007 -0.2812  0.4265  0.0828
 1064YOPC   NC315249   7.587  16.989   4.993 -0.1910  0.2075  0.0318
 1064YOPC   PO415250   7.378  17.402   4.911 -0.2020  0.0353  0.0033
 1064YOPC   GL115251   7.328  17.487   5.371 -0.1930  0.0906  0.0286
 1064YOPC   GL215252   7.213  17.857   5.473  0.0101 -0.6589 -0.0109
 1064YOPC   C1A15253   7.241  17.483   5.863  0.0396  0.0375 -0.1872
 1064YOPC   D2A15254   7.387  17.610   6.246 -0.2125  0.1152  0.3235
 1064YOPC   C3A15255   7.386  17.577   6.664 -0.2083 -0.1104  0.0434
 1064YOPC   C4A15256   7.596  17.703   7.100  0.0749 -0.1041 -0.3383
 1064YOPC   C1B15257   7.128  18.035   5.879 -0.1217 -0.1529 -0.1949
 1064YOPC   C2B15258   7.425  18.148   6.313  0.1742 -0.2196 -0.2956
 1064YOPC   D3B15259   7.284  18.089   6.750 -0.0632  0.1043 -0.0066
 1064YOPC   C4B15260   7.316  18.135   7.169 -0.0451 -0.0153  0.1967
 1065YOPC   NC315261   7.141   5.643   5.197  0.0251 -0.1658  0.0099
 1065YOPC   PO415262   7.302   5.938   5.516 -0.1339 -0.2590  0.2345
 1065YOPC   GL115263   6.924   6.043   5.654 -0.0985 -0.3114  0.0174
 1065YOPC   GL215264   6.793   6.483   5.744 -0.0838  0.1290  0.0950
 1065YOPC   C1A15265   6.692   6.023   6.007 -0.2249 -0.0116  0.0571
 1065YOPC   D2A15266   6.422   5.848   6.330  0.0481  0.2722 -0.1380
 1065YOPC   C3A15267   6.614   5.460   6.598  0.1858 -0.0154 -0.2562
 1065YOPC   C4A15268   6.924   5.367   6.811 -0.3658  0.0208  0.0284
 1065YOPC   C1B15269   6.944   6.487   6.193 -0.0621  0.3805 -0.0077
 1065YOPC   C2B15270   6.964   6.636   6.661 -0.1562  0.0588  0.0863
 1065YOPC   D3B15271   6.987   6.588   7.040 -0.1175 -0.2202  0.0876
 1065YOPC   C4B15272   7.211   6.256   7.299  0.3618  0.4235 -0.1471
 1066YOPC   NC315273  18.558  13.271   5.138 -0.0882 -0.0857  0.2492
 1066YOPC   PO415274  18.346  13.650   5.063  0.1497  0.2451 -0.0730
 1066YOPC   GL115275  18.520  13.838   5.352  0.0628  0.5015 -0.3057
 1066YOPC   GL215276  18.737  14.139   5.326 -0.0530  0.1318 -0.3629
 1066YOPC   C1A15277  18.571  13.941   5.815  0.1349  0.2141 -0.0637
 1066YOPC   D2A15278  18.623  13.908   6.250  0.0813 -0.0666  0.2019
 1066YOPC   C3A15279  18.422  13.478   6.176 -0.1118  0.0039  0.1611
 1066YOPC   C4A15280  18.228  13.273   6.469  0.3471  0.0571 -0.0250
 1066YOPC   C1B15281  18.315  14.316   5.434  0.2439 -0.1867  0.0811
 1066YOPC   C2B15282  17.966  14.568   5.472  0.2356  0.0945 -0.0551
 1066YOPC   D3B15283  18.094  15.036   5.689 -0.1922  0.0484 -0.1969
 1066YOPC   C4B15284  18.202  15.167   6.149  0.3317 -0.2959  0.7013
 1067YOPC   NC315285  10.574   1.790   4.738  0.3359 -0.0386  0.1460
 1067YOPC   PO415286  10.967   1.695   4.469  0.1592 -0.0390  0.0777
 1067YOPC   GL115287  11.060   1.692   4.956 -0.3082 -0.1947  0.0657
 1067YOPC   GL215288  10.909   2.013   5.070  0.1104  0.4727  0.2529
 1067YOPC   C1A15289  11.205   1.724   5.400  0.1045  0.1594 -0.2122
 1067YOPC   D2A15290  11.468   2.043   5.526  0.0114  0.0089 -0.4804
 1067YOPC   C3A15291  11.688   2.000   5.941 -0.0592 -0.3070 -0.1720
 1067YOPC   C4A15292  11.943   2.173   6.115 -0.0252  0.0721 -0.2091
 1067YOPC   C1B15293  10.917   2.158   5.481 -0.2190 -0.0811 -0.3542
 1067YOPC   C2B15294  10.987   1.941   5.965  0.3095 -0.1766  0.1223
 1067YOPC   D3B15295  11.393   1.555   6.004 -0.1077  0.1864  0.0890
 1067YOPC   C4B15296  11.546   1.402   5.692  0.3064 -0.0698  0.1122
 1068YOPC   NC315297   3.196  19.259   5.751 -0.2877 -0.0637 -0.1491
 1068YOPC   PO415298   3.494  19.062   5.996 -0.4898 -0.1024 -0.0155
 1068YOPC   GL115299   3.477  18.818   6.426  0.1262 -0.0635 -0.0062
 1068YOPC   GL215300   3.472  18.499   6.329  0.0282  0.1911 -0.0170
 1068YOPC   C1A15301   3.358  18.987   6.809  0.0608 -0.1085  0.1682
 1068YOPC   D2A15302   2.952  18.997   7.010  0.0539  0.0522 -0.4112
 1068YOPC   C3A15303   2.931  19.428   7.062  0.0451  0.2393 -0.2652
 1068YOPC   C4A15304   2.773  19.831   7.194  0.1056 -0.0170  0.3416
 1068YOPC   C1B15305   3.705  18.541   6.797 -0.0639 -0.0884  0.0986
 1068YOPC   C2B15306   3.788  18.394   7.141  0.1933 -0.2098  0.2323
 1068YOPC   D3B15307   4.000  18.086   7.084  0.1091  0.1456 -0.0951
 1068YOPC   C4B15308   4.356  17.824   6.970 -0.1908  0.1790  0.1925
 1069YOPC   NC315309   6.632   5.704   5.359 -0.0520  0.0488  0.1083
 1069YOPC   PO415310   6.960   5.479   5.637 -0.1690  0.4307 -0.0173
 1069YOPC   GL115311   7.210   5.672   5.926  0.2245  0.0822  0.1198
 1069YOPC   GL215312   7.523   5.571   6.067 -0.1162 -0.2026 -0.1814
 1069YOPC   C1A15313   7.323   5.992   6.223 -0.0737 -0.2452 -0.0218
 1069YOPC   D2A15314   7.477   6.439   6.136 -0.0845  0.2534  0.1903
 1069YOPC   C3A15315   7.604   6.786   6.374  0.3154 -0.1877  0.1611
 1069YOPC   C4A15316   7.455   7.025   6.765  0.1010  0.2726  0.0004
 1069YOPC   C1B15317   7.357   5.632   6.582  0.0978 -0.1886  0.1094
 1069YOPC   C2B15318   7.368   5.446   7.014 -0.0848  0.4228 -0.1196
 1069YOPC   D3B15319   7.794   5.398   7.246 -0.0342 -0.0922 -0.0879
 1069YOPC   C4B15320   8.100   5.538   7.600 -0.3776  0.0932 -0.2811
 1070YOPC   NC315321   9.674   9.977   5.236  0.2970 -0.0606  0.0281
 1070YOPC   PO415322  10.110   9.841   5.323 -0.0791  0.0341 -0.2303
 1070YOPC   GL115323   9.913   9.899   5.811  0.1607  0.4450 -0.0108
 1070YOPC   GL215324   9.572  10.016   5.722  0.2116 -0.0368 -0.2141
 1070YOPC   C1A15325   9.990   9.925   6.214  0.2142 -0.1698 -0.1304
 1070YOPC   D2A15326  10.048  10.021   6.616 -0.0512  0.1882  0.0205
 1070YOPC   C3A15327   9.716  10.036   6.949  0.3161 -0.0837 -0.0496
 1070YOPC   C4A15328   9.356  10.183   7.120 -0.1547  0.0570 -0.3368
 1070YOPC   C1B15329   9.219   9.943   5.654 -0.0194 -0.1287 -0.3054
 1070YOPC   C2B15330   8.980  10.010   6.084  0.2028 -0.4178 -0.0797
 1070YOPC   D3B15331   8.548  10.246   6.196  0.0582  0.1655 -0.0823
 1070YOPC   C4B15332   8.094  10.190   6.114 -0.1674  0.1007 -0.2741
 1071YOPC   NC315333  11.468   7.790   5.309 -0.2914 -0.1188  0.0498
 1071YOPC   PO415334  11.554   8.243   5.157  0.0587 -0.0922 -0.0872
 1071YOPC   GL115335  11.604   8.121   5.618  0.1877  0.0087  0.2015
 1071YOPC   GL215336  11.889   8.041   5.842  0.3466  0.0542 -0.2931
 1071YOPC   C1A15337  11.532   8.285   6.102 -0.0521  0.1657 -0.4321
 1071YOPC   D2A15338  11.674   8.108   6.552  0.0430 -0.4178  0.0043
 1071YOPC   C3A15339  11.679   8.319   6.895 -0.2457 -0.0982  0.1075
 1071YOPC   C4A15340  11.381   8.629   7.068  0.2719 -0.0350 -0.0270
 1071YOPC   C1B15341  12.321   8.028   5.859  0.0384  0.1170  0.3289
 1071YOPC   C2B15342  12.614   7.819   6.038  0.0616 -0.2769 -0.1453
 1071YOPC   D3B15343  12.704   8.023   6.483  0.0163  0.4217 -0.1375
 1071YOPC   C4B15344  12.547   8.109   6.857 -0.1421 -0.3411 -0.0138
 1072YOPC   NC315345   4.510  16.815   5.329  0.0289  0.1525  0.0885
 1072YOPC   PO415346   4.684  16.402   5.676 -0.0094  0.0865  0.0184
 1072YOPC   GL115347   5.082  16.320   5.958  0.0052  0.2232 -0.3778
 1072YOPC   GL215348   5.179  15.941   6.092  0.1266 -0.0152  0.1956
 1072YOPC   C1A15349   5.145  16.348   6.393 -0.4337  0.1649  0.1188
 1072YOPC   D2A15350   5.571  16.515   6.522 -0.0278  0.0314 -0.1423
 1072YOPC   C3A15351   5.596  16.733   6.895 -0.1968  0.2786 -0.0074
 1072YOPC   C4A15352   5.333  16.842   7.311  0.1694 -0.2108 -0.1576
 1072YOPC   C1B15353   4.932  15.919   6.501  0.0988 -0.0000 -0.0934
 1072YOPC   C2B15354   4.830  16.025   6.897  0.3282  0.1943 -0.0014
 1072YOPC   D3B15355   4.891  16.208   7.188 -0.2181  0.1309  0.2640
 1072YOPC   C4B15356   5.314  16.323   7.529  0.0034 -0.3648  0.0633
 1073YOPC   NC315357  17.575  16.127   4.544  0.1587  0.2638 -0.2811
 1073YOPC   PO415358  17.156  16.072   4.533  0.1502 -0.3468 -0.2224
 1073YOPC   GL115359  17.276  15.955   4.916  0.0384  0.0209  0.1619
 1073YOPC   GL215360  17.050  16.087   5.099  0.3227 -0.0265 -0.1146
 1073YOPC   C1A15361  17.440  16.077   5.411 -0.0442  0.1263  0.0502
 1073YOPC   D2A15362  17.327  15.941   5.915 -0.1756 -0.0506  0.1922
 1073YOPC   C3A15363  17.078  15.932   6.230  0.1336  0.0870 -0.1226
 1073YOPC   C4A15364  16.766  15.997   6.571 -0.0254 -0.2570 -0.2372
 1073YOPC   C1B15365  16.699  16.374   5.324 -0.1016  0.0268  0.2515
 1073YOPC   C2B15366  16.469  16.425   5.664 -0.2294  0.2061 -0.0842
 1073YOPC   D3B15367  16.302  16.791   5.757  0.3304 -0.0955 -0.1045
 1073YOPC   C4B15368  15.956  17.063   5.622  0.0617 -0.0375 -0.0353
 1074YOPC   NC315369  18.272   1.127   4.938 -0.1070  0.2074  0.4563
 1074YOPC   PO415370  18.325   1.376   5.236  0.0678  0.1585  0.2140
 1074YOPC   GL115371  18.091   1.407   5.666  0.1711  0.1099  0.0665
 1074YOPC   GL215372  17.969   1.689   5.730  0.1539  0.1430  0.0757
 1074YOPC   C1A15373  18.336   1.525   6.003  0.1755  0.0213  0.0661
 1074YOPC   D2A15374  18.650   1.432   6.223 -0.2601 -0.2114  0.0755
 1074YOPC   C3A15375  18.637   1.091   6.414  0.2146 -0.1282 -0.1936
 1074YOPC   C4A15376  18.421   0.688   6.431 -0.1100  0.0654 -0.3818
 1074YOPC   C1B15377  17.883   1.541   6.213  0.1722  0.1411  0.2582
 1074YOPC   C2B15378  17.475   1.371   6.362  0.3945  0.0251  0.1163
 1074YOPC   D3B15379  17.123   1.574   6.769 -0.1608 -0.2139 -0.1836
 1074YOPC   C4B15380  17.201   1.606   7.227 -0.2714  0.1335  0.0070
 1075YOPC   NC315381  14.196   8.666   4.834 -0.3230  0.3019 -0.1002
 1075YOPC   PO415382  14.126   8.408   5.209 -0.0701 -0.0284  0.2399
 1075YOPC   GL115383  14.095   8.432   5.650  0.1735 -0.1594 -0.4088
 1075YOPC   GL215384  14.448   8.334   5.626 -0.0232 -0.1622  0.1382
 1075YOPC   C1A15385  14.121   8.856   5.874  0.2156  0.1425  0.0542
 1075YOPC   D2A15386  13.891   9.133   6.238 -0.2813 -0.1586 -0.1120
 1075YOPC   C3A15387  14.173   9.158   6.712  0.0271  0.0087  0.0969
 1075YOPC   C4A15388  14.436   9.582   6.822  0.5372 -0.0471  0.1326
 1075YOPC   C1B15389  14.803   8.207   5.964  0.1652  0.0934 -0.0104
 1075YOPC   C2B15390  14.906   8.541   6.273 -0.3071  0.0545 -0.1559
 1075YOPC   D3B15391  14.881   8.987   6.211 -0.1476  0.0795 -0.2092
 1075YOPC   C4B15392  14.582   9.108   5.825  0.2525 -0.2217 -0.1626
 1076YOPC   NC315393   3.102   8.501   5.472 -0.0100 -0.0244  0.0952
 1076YOPC   PO415394   3.484   8.837   5.492 -0.2139  0.2025  0.2496
 1076YOPC   GL115395   3.540   8.734   5.997 -0.3568 -0.1026 -0.0480
 1076YOPC   GL215396   3.854   8.732   6.093 -0.1868 -0.2601  0.0149
 1076YOPC   C1A15397   3.371   8.457   6.187  0.1878  0.3694  0.1191
 1076YOPC   D2A15398   3.235   8.421   6.528  0.2441  0.1820  0.2760
 1076YOPC   C3A15399   2.936   8.743   6.602  0.3069 -0.2430  0.1481
 1076YOPC   C4A15400   2.502   8.653   6.713  0.0754 -0.0674  0.0341
 1076YOPC   C1B15401   3.851   8.896   6.512  0.0957 -0.1189 -0.5237
 1076YOPC   C2B15402   3.939   9.009   6.894  0.0941  0.0717  0.0661
 1076YOPC   D3B15403   3.751   8.766   7.214  0.1602 -0.0363 -0.1228
 1076YOPC   C4B15404   3.529   8.520   7.432 -0.0543  0.5243 -0.3987
 1077YOPC   NC315405  19.224  14.085   4.888  0.3106  0.1149 -0.1385
 1077YOPC   PO415406  19.103  14.473   5.179 -0.2513  0.3029 -0.0344
 1077YOPC   GL115407  19.282  14.462   5.560  0.0315 -0.0849 -0.1968
 1077YOPC   GL215408  18.954  14.508   5.666  0.0979  0.4137  0.1805
 1077YOPC   C1A15409  19.251  14.794   6.021 -0.4176 -0.3280  0.0296
 1077YOPC   D2A15410  19.099  14.981   6.448  0.6107 -0.1311  0.0889
 1077YOPC   C3A15411  19.442  15.199   6.696  0.2479 -0.0930  0.1405
 1077YOPC   C4A15412  19.627  15.552   6.932 -0.0646 -0.1918  0.1373
 1077YOPC   C1B15413  18.771  14.394   6.050  0.1002  0.1340 -0.1166
 1077YOPC   C2B15414  18.845  14.289   6.492  0.0795 -0.1650 -0.4641
 1077YOPC   D3B15415  19.212  14.217   6.788  0.1007  0.1760 -0.1021
 1077YOPC   C4B15416  19.396  14.380   7.204  0.0535  0.0439 -0.0058
 1078YOPC   NC315417  11.192  12.350   5.128 -0.0150 -0.1544  0.0005
 1078YOPC   PO415418  10.732  12.412   5.193  0.2061 -0.4120  0.2106
 1078YOPC   GL115419  10.756  12.332   5.563 -0.4817  0.1282 -0.0746
 1078YOPC   GL215420  10.694  12.671   5.648 -0.1302 -0.0890  0.0599
 1078YOPC   C1A15421  10.745  12.292   5.973  0.1270  0.0187 -0.2953
 1078YOPC   D2A15422  10.981  12.463   6.336  0.0617 -0.0607  0.0468
 1078YOPC   C3A15423  10.850  12.659   6.676 -0.1710  0.1787  0.2206
 1078YOPC   C4A15424  10.949  12.961   6.859  0.1508 -0.3102 -0.1407
 1078YOPC   C1B15425  10.476  12.708   5.965 -0.0142 -0.1275  0.2144
 1078YOPC   C2B15426  10.254  12.494   6.299 -0.0293 -0.2588  0.1205
 1078YOPC   D3B15427  10.153  12.652   6.716 -0.2815 -0.0982  0.1244
 1078YOPC   C4B15428   9.760  12.601   7.022  0.3476  0.0386  0.0601
 1079YOPC   NC315429  16.054  11.884   5.312  0.0209  0.0562  0.3501
 1079YOPC   PO415430  16.100  11.484   5.165  0.0319 -0.2481  0.2556
 1079YOPC   GL115431  15.933  11.219   5.560 -0.1639 -0.0675 -0.2434
 1079YOPC   GL215432  16.181  10.982   5.685 -0.1626  0.4004  0.6174
 1079YOPC   C1A15433  15.678  11.091   5.948  0.1442 -0.0040  0.0403
 1079YOPC   D2A15434  15.485  11.001   6.269  0.0147 -0.1231  0.3840
 1079YOPC   C3A15435  15.655  10.992   6.651 -0.2332 -0.2425  0.1482
 1079YOPC   C4A15436  15.854  10.822   6.901  0.1835 -0.2066  0.3241
 1079YOPC   C1B15437  16.304  11.042   6.092 -0.0204 -0.2035  0.0483
 1079YOPC   C2B15438  16.134  10.994   6.495  0.0809 -0.0023  0.0108
 1079YOPC   D3B15439  16.352  10.972   6.921  0.2434 -0.0613  0.2138
 1079YOPC   C4B15440  16.519  11.105   7.399 -0.0036  0.1701  0.3567
 1080YOPC   NC315441  19.112   2.583   5.967  0.4189  0.2558 -0.0218
 1080YOPC   PO415442  19.321   2.995   6.010 -0.1917 -0.1269  0.0036
 1080YOPC   GL115443  19.218   2.818   6.357 -0.2033 -0.0082 -0.1309
 1080YOPC   GL215444  19.069   3.031   6.468 -0.0844  0.1700 -0.1330
 1080YOPC   C1A15445  19.218   2.764   6.850 -0.0107  0.1438 -0.4671
 1080YOPC   D2A15446  19.476   2.531   7.211  0.1795 -0.0225 -0.1378
 1080YOPC   C3A15447  19.273   2.360   7.521  0.0053 -0.4491  0.0425
 1080YOPC   C4A15448  19.284   2.039   7.602 -0.2385 -0.1206  0.0669
 1080YOPC   C1B15449  18.758   3.150   6.728 -0.1662 -0.4201  0.0134
 1080YOPC   C2B15450  18.349   2.962   6.825  0.0658  0.1694 -0.2732
 1080YOPC   D3B15451  18.006   3.387   6.874  0.1819 -0.0407 -0.1024
 1080YOPC   C4B15452  18.014   3.534   7.296 -0.0187 -0.2159 -0.2095
 1081YOPC   NC315453   8.398  17.964   4.995  0.1422  0.0554  0.3495
 1081YOPC   PO415454   8.274  17.647   5.324  0.1576 -0.2967 -0.4090
 1081YOPC   GL115455   8.077  17.576   5.696 -0.1037  0.1872 -0.1434
 1081YOPC   GL215456   8.323  17.350   5.733 -0.1034  0.0165  0.1928
 1081YOPC   C1A15457   7.901  17.254   5.923  0.3506 -0.0255 -0.3032
 1081YOPC   D2A15458   8.152  16.842   6.132 -0.1364  0.0503  0.2421
 1081YOPC   C3A15459   7.894  16.926   6.429  0.1566 -0.1920 -0.0385
 1081YOPC   C4A15460   7.629  16.853   6.753 -0.3328  0.0739  0.2437
 1081YOPC   C1B15461   8.326  17.305   6.146 -0.0084  0.0662 -0.0946
 1081YOPC   C2B15462   8.295  17.199   6.575  0.0553  0.2028 -0.1020
 1081YOPC   D3B15463   8.639  16.999   6.797  0.0791 -0.1412 -0.1253
 1081YOPC   C4B15464   8.978  16.760   7.071 -0.0106 -0.1248 -0.2163
 1082YOPC   NC315465  17.192  11.536   5.114  0.3597  0.1623  0.1052
 1082YOPC   PO415466  17.282  11.806   5.464  0.2717 -0.0207 -0.0571
 1082YOPC   GL115467  17.368  11.749   5.831  0.0011  0.2498 -0.1454
 1082YOPC   GL215468  17.710  11.896   6.001 -0.0111  0.2247  0.0802
 1082YOPC   C1A15469  17.479  11.585   6.257  0.0369 -0.1027 -0.0715
 1082YOPC   D2A15470  17.243  11.357   6.529  0.0620 -0.2134 -0.1770
 1082YOPC   C3A15471  16.981  11.654   6.372 -0.0870 -0.3609  0.4159
 1082YOPC   C4A15472  16.783  11.912   6.100 -0.0619 -0.0536 -0.0428
 1082YOPC   C1B15473  17.675  11.967   6.531  0.1939 -0.0054 -0.2343
 1082YOPC   C2B15474  17.888  12.106   6.923 -0.3544  0.1723 -0.0239
 1082YOPC   D3B15475  17.736  11.936   7.357 -0.1071  0.2410 -0.0404
 1082YOPC   C4B15476  17.617  12.044   7.760 -0.2073  0.1627  0.1417
 1083YOPC   NC315477  15.054  12.031   4.357 -0.1504 -0.0244  0.1020
 1083YOPC   PO415478  14.863  12.064   4.732  0.0155 -0.2143  0.3204
 1083YOPC   GL115479  14.881  11.874   5.108  0.0421  0.2676  0.3053
 1083YOPC   GL215480  15.064  11.785   5.366 -0.0712 -0.0751 -0.1738
 1083YOPC   C1A15481  14.548  11.829   5.318  0.0271 -0.1071 -0.0683
 1083YOPC   D2A15482  14.254  12.168   5.532  0.3723  0.0360 -0.1746
 1083YOPC   C3A15483  14.185  12.282   5.969  0.0865  0.0921  0.2368
 1083YOPC   C4A15484  13.957  12.114   6.259  0.1204 -0.1909 -0.0951
 1083YOPC   C1B15485  14.925  11.819   5.847 -0.4621 -0.2642 -0.3349
 1083YOPC   C2B15486  14.702  11.671   6.143 -0.0375  0.1163  0.1556
 1083YOPC   D3B15487  14.822  11.603   6.553 -0.2750  0.2194  0.1794
 1083YOPC   C4B15488  15.162  11.962   6.819 -0.2308 -0.3200  0.0194
 1084YOPC   NC315489  10.068   2.795   5.281 -0.0019  0.5664 -0.5288
 1084YOPC   PO415490  10.063   3.245   5.108  0.2964  0.0830  0.1980
 1084YOPC   GL115491   9.966   3.273   5.531  0.0183 -0.2484 -0.2374
 1084YOPC   GL215492   9.740   2.949   5.688 -0.1442  0.4276 -0.1163
 1084YOPC   C1A15493  10.229   3.107   5.848  0.2001 -0.1733 -0.2094
 1084YOPC   D2A15494  10.388   3.046   6.293  0.2343  0.2874  0.3001
 1084YOPC   C3A15495  10.173   3.265   6.633 -0.1473  0.1090  0.1122
 1084YOPC   C4A15496  10.269   3.607   6.874  0.0544  0.4802  0.0861
 1084YOPC   C1B15497   9.918   2.833   6.147 -0.2874 -0.0906 -0.0409
 1084YOPC   C2B15498   9.916   2.831   6.606 -0.3712  0.0746 -0.3225
 1084YOPC   D3B15499   9.773   3.073   6.871 -0.0187 -0.0346  0.1453
 1084YOPC   C4B15500   9.765   3.538   6.939  0.2058  0.1711  0.0419
 1085YOPC   NC315501  16.691  12.306   5.180  0.2714 -0.5176  0.0121
 1085YOPC   PO415502  16.228  12.322   5.136  0.0411 -0.0013 -0.1764
 1085YOPC   GL115503  15.945  12.371   5.432 -0.2285 -0.1064  0.1390
 1085YOPC   GL215504  15.788  12.164   5.596 -0.1717 -0.1569  0.1248
 1085YOPC   C1A15505  15.698  12.676   5.669  0.1454  0.2088 -0.3392
 1085YOPC   D2A15506  15.652  12.956   6.023  0.0974  0.0533  0.1992
 1085YOPC   C3A15507  15.547  12.937   6.435 -0.2121 -0.0029 -0.0436
 1085YOPC   C4A15508  15.257  12.959   6.720 -0.2157  0.1055  0.0877
 1085YOPC   C1B15509  16.027  12.097   5.963 -0.2390  0.0910  0.1425
 1085YOPC   C2B15510  16.307  11.956   6.267  0.2641  0.2435  0.1894
 1085YOPC   D3B15511  16.438  11.540   6.230  0.0066  0.1607  0.0814
 1085YOPC   C4B15512  16.734  11.464   5.898  0.0486  0.1397 -0.1224
 1086YOPC   NC315513   1.688   1.329   5.810  0.3279  0.0993 -0.1884
 1086YOPC   PO415514   1.369   1.468   6.085  0.1962 -0.1021 -0.3067
 1086YOPC   GL115515   1.504   1.341   6.442 -0.1071  0.3017  0.2048
 1086YOPC   GL215516   1.723   1.582   6.445  0.0041  0.0329 -0.5655
 1086YOPC   C1A15517   1.661   1.364   6.900  0.2910  0.0446 -0.0026
 1086YOPC   D2A15518   1.862   1.239   7.347 -0.2109 -0.1876 -0.0448
 1086YOPC   C3A15519   2.323   1.277   7.419  0.0359  0.0532 -0.0994
 1086YOPC   C4A15520   2.803   1.256   7.501  0.0572  0.3875  0.2673
 1086YOPC   C1B15521   2.014   1.251   6.472 -0.0415  0.1533  0.0263
 1086YOPC   C2B15522   2.442   1.192   6.427  0.0903 -0.0775 -0.0542
 1086YOPC   D3B15523   2.913   1.246   6.640 -0.2160  0.0411  0.1050
 1086YOPC   C4B15524   3.273   1.364   6.774 -0.2597 -0.0748 -0.1244
 1087YOPC   NC315525  11.453  13.799   5.185 -0.0089  0.0333  0.1690
 1087YOPC   PO415526  11.791  14.209   5.108  0.0720 -0.0511 -0.4003
 1087YOPC   GL115527  11.641  14.172   5.593 -0.3687 -0.1845  0.4226
 1087YOPC   GL215528  11.404  14.025   5.660  0.2748  0.5062  0.0120
 1087YOPC   C1A15529  11.739  14.081   6.001  0.0531 -0.2591  0.1618
 1087YOPC   D2A15530  11.926  14.315   6.346 -0.1594  0.5621  0.0199
 1087YOPC   C3A15531  11.964  14.147   6.765  0.5174 -0.0198 -0.1196
 1087YOPC   C4A15532  11.681  14.071   7.027  0.0864  0.2546 -0.1200
 1087YOPC   C1B15533  11.401  13.763   6.152  0.0700  0.2931 -0.0513
 1087YOPC   C2B15534  11.363  14.151   6.366 -0.0911 -0.1213  0.0659
 1087YOPC   D3B15535  11.252  14.148   6.772 -0.2833  0.1249 -0.0360
 1087YOPC   C4B15536  11.073  13.778   7.001  0.2611 -0.1456  0.1983
 1088YOPC   NC315537  18.966  18.758   5.454  0.3047  0.3768  0.2404
 1088YOPC   PO415538  18.604  18.888   5.363  0.3087  0.0617 -0.0811
 1088YOPC   GL115539  18.344  18.667   5.709 -0.3355  0.2111  0.0794
 1088YOPC   GL215540  18.204  18.938   5.687  0.0928  0.5976 -0.1903
 1088YOPC   C1A15541  18.155  18.642   6.167 -0.0230  0.0040 -0.0311
 1088YOPC   D2A15542  17.917  18.753   6.588  0.1485 -0.1087  0.0170
 1088YOPC   C3A15543  17.478  18.834   6.799 -0.1736  0.1422 -0.0378
 1088YOPC   C4A15544  17.334  19.041   7.233  0.2212 -0.0591  0.2027
 1088YOPC   C1B15545  18.311  19.102   6.077  0.0290 -0.0921  0.2428
 1088YOPC   C2B15546  18.520  18.951   6.502  0.1682 -0.0791  0.0218
 1088YOPC   D3B15547  18.759  19.130   6.808 -0.1978  0.1682  0.1196
 1088YOPC   C4B15548  18.968  19.414   7.113 -0.0812 -0.1496 -0.0310
 1089YOPC   NC315549  10.089   3.690   5.259  0.2166  0.0158 -0.0212
 1089YOPC   PO415550  10.205   4.174   5.359 -0.0899  0.0713 -0.3507
 1089YOPC   GL115551  10.223   4.282   5.830  0.3510  0.4094 -0.2371
 1089YOPC   GL215552  10.557   4.308   5.965 -0.0837 -0.1689  0.1482
 1089YOPC   C1A15553  10.200   4.536   6.222 -0.2096 -0.0556 -0.0358
 1089YOPC   D2A15554   9.883   4.507   6.490 -0.1720  0.0447  0.1692
 1089YOPC   C3A15555   9.784   4.564   7.026 -0.0693  0.0602  0.0005
 1089YOPC   C4A15556   9.622   4.526   7.462  0.1094  0.2910 -0.0718
 1089YOPC   C1B15557  10.626   4.513   6.371 -0.1926 -0.1921 -0.1366
 1089YOPC   C2B15558  10.896   4.791   6.548 -0.0839  0.1236 -0.2029
 1089YOPC   D3B15559  10.813   5.083   6.881 -0.0198  0.3503 -0.0760
 1089YOPC   C4B15560  10.340   5.277   6.895 -0.0277 -0.1775  0.3621
 1090YOPC   NC315561   9.130  17.535   4.791 -0.1141 -0.0644  0.0076
 1090YOPC   PO415562   9.093  17.210   5.017 -0.1264 -0.0414 -0.0011
 1090YOPC   GL115563   9.107  16.942   5.432 -0.0063 -0.1109 -0.4389
 1090YOPC   GL215564   8.871  16.755   5.481  0.1537 -0.0038  0.2501
 1090YOPC   C1A15565   9.349  16.600   5.687  0.0786  0.2247  0.0848
 1090YOPC   D2A15566   9.188  16.232   5.674  0.2116 -0.0845 -0.1778
 1090YOPC   C3A15567   9.045  16.102   5.941 -0.0553  0.3243  0.0095
 1090YOPC   C4A15568   9.144  16.032   6.395  0.2703 -0.3543 -0.1504
 1090YOPC   C1B15569   9.122  16.958   5.911  0.2071 -0.1177  0.2518
 1090YOPC   C2B15570   9.213  16.942   6.340  0.1369  0.0140 -0.0906
 1090YOPC   D3B15571   9.129  17.219   6.656  0.2209  0.0625 -0.3431
 1090YOPC   C4B15572   8.962  17.236   7.072 -0.1389 -0.0784 -0.2654
 1091YOPC   NC315573  16.541   4.648   5.412 -0.0321 -0.1585 -0.1500
 1091YOPC   PO415574  16.464   4.194   5.291 -0.0301 -0.0610  0.1219
 1091YOPC   GL115575  16.554   4.190   5.657  0.0753 -0.0064 -0.1468
 1091YOPC   GL215576  16.456   4.446   5.860 -0.0897  0.2783 -0.2040
 1091YOPC   C1A15577  16.688   4.060   6.086 -0.2578 -0.1870 -0.2947
 1091YOPC   D2A15578  16.551   3.827   6.289  0.2218 -0.2393 -0.2461
 1091YOPC   C3A15579  16.250   3.955   6.593  0.1057  0.0990 -0.0101
 1091YOPC   C4A15580  15.803   3.939   6.457  0.4905  0.0059  0.2094
 1091YOPC   C1B15581  16.351   4.723   6.265  0.3966 -0.4069  0.1133
 1091YOPC   C2B15582  16.102   4.537   6.679 -0.4971  0.1942  0.1479
 1091YOPC   D3B15583  15.595   4.512   6.840 -0.2853  0.1631 -0.1034
 1091YOPC   C4B15584  15.399   4.751   6.977  0.0888 -0.3658  0.1740
 1092YOPC   NC315585   8.935   0.428   5.014 -0.1113  0.1704  0.0507
 1092YOPC   PO415586   9.027   0.857   5.157 -0.0377 -0.0111 -0.0121
 1092YOPC   GL115587   9.207   1.077   5.591 -0.1321  0.1166 -0.1696
 1092YOPC   GL215588   8.949   1.071   5.699  0.4087 -0.3828 -0.5623
 1092YOPC   C1A15589   9.282   1.170   6.114  0.3903  0.1640  0.0200
 1092YOPC   D2A15590   9.492   1.210   6.503 -0.1179  0.1589  0.0086
 1092YOPC   C3A15591   9.925   1.371   6.458 -0.2290  0.2389 -0.1309
 1092YOPC   C4A15592  10.361   1.580   6.358 -0.1449 -0.2306 -0.1475
 1092YOPC   C1B15593   8.859   0.769   5.901 -0.0260  0.0899 -0.4014
 1092YOPC   C2B15594   8.724   0.343   5.911 -0.1472 -0.1821  0.3972
 1092YOPC   D3B15595   9.034   0.249   6.029  0.1790 -0.1541  0.2440
 1092YOPC   C4B15596   9.279   0.075   6.350  0.0713  0.1545 -0.0904
 1093YOPC   NC315597  12.746   5.770   4.970  0.2327  0.1491  0.2504
 1093YOPC   PO415598  12.974   5.584   5.310  0.0179  0.2709  0.1446
 1093YOPC   GL115599  12.762   5.403   5.585 -0.0042  0.2863  0.0114
 1093YOPC   GL215600  13.058   5.267   5.741  0.1860  0.2198 -0.0378
 1093YOPC   C1A15601  12.473   5.246   5.912  0.1069  0.1856  0.3441
 1093YOPC   D2A15602  12.438   5.410   6.256 -0.3847 -0.1028  0.1893
 1093YOPC   C3A15603  12.788   5.342   6.518  0.4779  0.2421  0.0130
 1093YOPC   C4A15604  12.970   5.293   6.900  0.0500 -0.3690 -0.1233
 1093YOPC   C1B15605  12.939   5.064   6.079 -0.3539  0.3385 -0.2682
 1093YOPC   C2B15606  12.585   4.827   6.091 -0.0269  0.1859  0.0175
 1093YOPC   D3B15607  12.616   4.385   6.167  0.1072  0.1725 -0.1225
 1093YOPC   C4B15608  12.721   4.160   6.583  0.0077 -0.1624  0.0261
 1094YOPC   NC315609   9.595   7.496   5.138  0.1589 -0.1413 -0.1058
 1094YOPC   PO415610   9.732   7.085   5.238  0.0068  0.1895  0.2949
 1094YOPC   GL115611   9.799   7.347   5.657  0.2329  0.4189 -0.1292
 1094YOPC   GL215612   9.760   7.271   5.938  0.2642  0.3363  0.1432
 1094YOPC   C1A15613  10.019   7.719   5.869 -0.3730  0.5243 -0.0079
 1094YOPC   D2A15614  10.400   7.868   5.783 -0.1302 -0.0669 -0.1028
 1094YOPC   C3A15615  10.500   8.249   5.949 -0.1204 -0.0550 -0.3011
 1094YOPC   C4A15616  10.479   8.382   6.331 -0.1875  0.0068  0.0597
 1094YOPC   C1B15617   9.774   7.160   6.272  0.1467  0.1916  0.1692
 1094YOPC   C2B15618   9.871   7.178   6.608  0.2799  0.2872 -0.0584
 1094YOPC   D3B15619   9.774   7.484   6.865 -0.0739  0.3059 -0.2636
 1094YOPC   C4B15620   9.667   7.419   7.278  0.1268  0.0596 -0.2518
 1095YOPC   NC315621  17.381  18.272   4.786 -0.1503  0.1451  0.0009
 1095YOPC   PO415622  17.677  18.072   5.224  0.0535  0.1282  0.0474
 1095YOPC   GL115623  17.519  18.097   5.658  0.0095  0.0224 -0.1476
 1095YOPC   GL215624  17.811  17.946   5.741 -0.0399  0.2303 -0.1489
 1095YOPC   C1A15625  17.312  18.033   6.065  0.2048 -0.1241  0.1502
 1095YOPC   D2A15626  17.266  17.681   6.496 -0.0828 -0.0815  0.1540
 1095YOPC   C3A15627  17.519  17.417   6.340  0.0514 -0.1009  0.3430
 1095YOPC   C4A15628  17.388  17.624   5.854  0.0454  0.2549 -0.0105
 1095YOPC   C1B15629  17.736  17.864   6.145  0.0264 -0.3132  0.5148
 1095YOPC   C2B15630  17.788  17.863   6.504  0.1136 -0.0618 -0.0149
 1095YOPC   D3B15631  17.917  18.121   6.856 -0.3526 -0.2672 -0.0155
 1095YOPC   C4B15632  17.726  18.439   7.026  0.1292  0.0197  0.3842
 1096YOPC   NC315633   0.477   2.389   6.184  0.3935  0.0088  0.1154
 1096YOPC   PO415634   0.236   2.674   6.130 -0.0941  0.2236 -0.3291
 1096YOPC   GL115635   0.678   2.821   6.296 -0.1607 -0.0638 -0.2717
 1096YOPC   GL215636   0.747   3.111   6.521  0.0641 -0.2615  0.1239
 1096YOPC   C1A15637   0.788   2.683   6.736 -0.1761  0.3535  0.0520
 1096YOPC   D2A15638   0.666   2.876   7.143  0.1009  0.0958  0.0389
 1096YOPC   C3A15639   0.596   2.725   7.541  0.1058 -0.0302 -0.4154
 1096YOPC   C4A15640   0.715   2.331   7.772 -0.1796  0.0021 -0.1030
 1096YOPC   C1B15641   0.970   3.270   6.899  0.1011 -0.4729  0.1693
 1096YOPC   C2B15642   0.981   3.370   7.238  0.3214  0.1084 -0.2096
 1096YOPC   D3B15643   0.622   3.213   7.492 -0.1930 -0.3407  0.1534
 1096YOPC   C4B15644   0.331   3.173   7.760  0.0440  0.1762  0.1812
 1097YOPC   NC315645  15.393  18.123   4.600  0.3171 -0.1667 -0.0233
 1097YOPC   PO415646  15.708  18.394   4.919 -0.0183  0.0591 -0.0269
 1097YOPC   GL115647  15.546  18.430   5.332 -0.1784  0.1103 -0.2050
 1097YOPC   GL215648  15.615  18.730   5.520 -0.2014 -0.0110 -0.1559
 1097YOPC   C1A15649  15.097  18.334   5.521  0.0012  0.0475 -0.0053
 1097YOPC   D2A15650  14.989  18.006   5.767  0.0770 -0.1676 -0.2205
 1097YOPC   C3A15651  14.815  17.697   5.822 -0.1409  0.2488  0.2118
 1097YOPC   C4A15652  14.573  17.579   6.194  0.1482  0.2629  0.1305
 1097YOPC   C1B15653  15.392  18.715   5.818  0.0856  0.1192 -0.2653
 1097YOPC   C2B15654  15.032  18.461   6.002 -0.2521  0.0269  0.2967
 1097YOPC   D3B15655  14.965  18.409   6.420 -0.1473 -0.1058  0.0068
 1097YOPC   C4B15656  15.135  18.384   6.775  0.0281 -0.3914  0.1194
 1098YOPC   NC315657   4.387   8.059   5.148 -0.3622 -0.1920 -0.1260
 1098YOPC   PO415658   4.515   8.361   5.393  0.1081  0.0146  0.4777
 1098YOPC   GL115659   4.525   8.155   5.799 -0.0365 -0.0369 -0.2661
 1098YOPC   GL215660   4.776   7.916   5.896  0.1768  0.3366  0.0124
 1098YOPC   C1A15661   4.418   8.225   6.214  0.2160 -0.1509 -0.0992
 1098YOPC   D2A15662   4.188   8.517   6.403 -0.3267 -0.0763  0.2026
 1098YOPC   C3A15663   4.136   8.520   6.817 -0.0241  0.0731  0.1783
 1098YOPC   C4A15664   4.302   8.799   7.210  0.3235  0.2719 -0.1015
 1098YOPC   C1B15665   4.855   7.428   6.032 -0.3151 -0.0666  0.1603
 1098YOPC   C2B15666   4.602   7.130   6.191  0.1829 -0.0334  0.0736
 1098YOPC   D3B15667   4.480   7.106   6.648  0.0833  0.2180 -0.1484
 1098YOPC   C4B15668   4.340   7.492   6.909 -0.3837  0.4108  0.0485
 1099YOPC   NC315669   6.127  18.498   5.491 -0.1772  0.0549  0.1011
 1099YOPC   PO415670   5.844  18.714   5.478  0.0515  0.0189  0.0684
 1099YOPC   GL115671   5.687  18.464   5.887 -0.4396 -0.1532  0.2764
 1099YOPC   GL215672   5.970  18.323   5.940  0.2788  0.0624 -0.3147
 1099YOPC   C1A15673   5.693  18.232   6.348 -0.3284 -0.0983  0.1521
 1099YOPC   D2A15674   5.790  17.844   6.485  0.5347 -0.4162  0.0968
 1099YOPC   C3A15675   5.643  17.739   6.809 -0.2941 -0.0005  0.1479
 1099YOPC   C4A15676   5.997  17.675   7.116 -0.3432  0.2493 -0.1258
 1099YOPC   C1B15677   5.984  17.826   6.021 -0.1599  0.1611 -0.1428
 1099YOPC   C2B15678   5.566  17.543   6.101  0.1819 -0.2672 -0.0864
 1099YOPC   D3B15679   5.577  17.149   6.104 -0.1915 -0.0122 -0.0675
 1099YOPC   C4B15680   5.524  16.757   5.873 -0.3244 -0.1614 -0.1710
 1100YOPC   NC315681   7.143  12.695   4.501  0.0038  0.2295 -0.0709
 1100YOPC   PO415682   7.511  12.720   4.894 -0.4454 -0.4379  0.5468
 1100YOPC   GL115683   7.433  12.483   5.242 -0.1176  0.0847 -0.3274
 1100YOPC   GL215684   7.729  12.262   5.395 -0.2399  0.2548 -0.2662
 1100YOPC   C1A15685   7.396  12.390   5.736  0.2893 -0.2391  0.2209
 1100YOPC   D2A15686   7.267  12.553   5.975 -0.2485 -0.1094 -0.3311
 1100YOPC   C3A15687   7.261  12.640   6.422 -0.0800  0.0276  0.2748
 1100YOPC   C4A15688   7.377  12.585   6.841 -0.0011  0.0069 -0.1678
 1100YOPC   C1B15689   7.920  12.236   5.755  0.1616 -0.1826 -0.1034
 1100YOPC   C2B15690   7.985  11.891   6.144  0.2565  0.2632 -0.1080
 1100YOPC   D3B15691   8.126  11.570   6.173  0.0006 -0.0490  0.2812
 1100YOPC   C4B15692   8.286  11.256   6.246  0.0478  0.1224 -0.1948
 1101YOPC   NC315693  15.407   9.370   5.109 -0.0761  0.1340  0.2836
 1101YOPC   PO415694  15.409   8.980   5.267 -0.0617 -0.0183  0.3565
 1101YOPC   GL115695  15.092   9.044   5.581 -0.1423  0.0041 -0.2301
 1101YOPC   GL215696  15.071   9.364   5.596  0.1994 -0.1883 -0.0435
 1101YOPC   C1A15697  14.871   8.699   5.768  0.3580 -0.0937  0.2078
 1101YOPC   D2A15698  14.408   8.495   6.100  0.0959 -0.3867  0.2054
 1101YOPC   C3A15699  14.318   8.821   6.376  0.0034  0.2630 -0.0920
 1101YOPC   C4A15700  14.379   9.340   6.227  0.1820  0.1557  0.2517
 1101YOPC   C1B15701  14.831   9.487   5.968 -0.0087  0.1014  0.0412
 1101YOPC   C2B15702  14.809   9.522   6.423  0.1430 -0.1078  0.0529
 1101YOPC   D3B15703  14.655   9.180   6.600  0.4961 -0.1012  0.0645
 1101YOPC   C4B15704  14.879   8.807   6.681  0.0221  0.4594  0.0837
 1102YOPC   NC315705  18.300   4.788   5.753 -0.0776 -0.1535 -0.0070
 1102YOPC   PO415706  18.690   5.064   5.699 -0.3037  0.1442 -0.4080
 1102YOPC   GL115707  18.611   4.931   6.206  0.1677  0.1453  0.1326
 1102YOPC   GL215708  18.850   4.938   6.399 -0.0046  0.0853  0.0443
 1102YOPC   C1A15709  18.331   5.025   6.496  0.1753 -0.4143 -0.1832
 1102YOPC   D2A15710  18.283   5.304   6.864  0.0664 -0.0271 -0.0662
 1102YOPC   C3A15711  18.580   5.277   7.170  0.2717 -0.2554 -0.0788
 1102YOPC   C4A15712  18.591   5.347   7.613 -0.2183 -0.1414  0.1782
 1102YOPC   C1B15713  18.786   5.099   6.743  0.0185 -0.0696 -0.0655
 1102YOPC   C2B15714  19.147   5.210   7.002  0.0175 -0.1153 -0.2102
 1102YOPC   D3B15715  18.979   5.568   7.342  0.3218 -0.2280  0.0919
 1102YOPC   C4B15716  18.702   5.875   7.612 -0.4178 -0.0544 -0.1303
 1103YOPC   NC315717  11.868  17.354   4.497  0.1657  0.0209  0.0255
 1103YOPC   PO415718  12.230  17.155   4.669  0.0666  0.2039 -0.0905
 1103YOPC   GL115719  12.337  17.211   5.078 -0.3225 -0.0239  0.4203
 1103YOPC   GL215720  12.222  16.883   5.150  0.1452 -0.1460 -0.4081
 1103YOPC   C1A15721  12.323  17.391   5.637 -0.2143  0.0115  0.2252
 1103YOPC   D2A15722  12.190  17.433   6.048  0.0399  0.2696  0.0218
 1103YOPC   C3A15723  12.357  17.280   6.468  0.3080  0.0830 -0.1872
 1103YOPC   C4A15724  12.310  17.363   6.924  0.3845  0.2010  0.0657
 1103YOPC   C1B15725  12.338  16.859   5.592  0.0452  0.5348 -0.1412
 1103YOPC   C2B15726  12.559  17.045   6.004 -0.1614 -0.1372 -0.0081
 1103YOPC   D3B15727  13.006  17.191   5.821 -0.1094 -0.0025  0.2327
 1103YOPC   C4B15728  13.390  17.150   5.964  0.0027  0.0207  0.1487
 1104YOPC   NC315729  10.386   8.413   4.459  0.2264  0.1456  0.3869
 1104YOPC   PO415730  10.535   8.427   4.896  0.0374  0.1235  0.0195
 1104YOPC   GL115731  10.452   8.443   5.344  0.1421 -0.0355 -0.0912
 1104YOPC   GL215732  10.717   8.451   5.453  0.0582  0.0937 -0.0940
 1104YOPC   C1A15733  10.228   8.700   5.730 -0.0745  0.2975 -0.2987
 1104YOPC   D2A15734  10.227   8.762   6.217  0.2604 -0.0410  0.1937
 1104YOPC   C3A15735  10.304   8.931   6.550  0.1094  0.0263  0.0311
 1104YOPC   C4A15736  10.209   9.218   6.931  0.1505  0.1174  0.0330
 1104YOPC   C1B15737  10.733   8.757   5.796  0.0554 -0.2359 -0.2111
 1104YOPC   C2B15738  10.674   9.109   6.134  0.0175 -0.1065  0.1102
 1104YOPC   D3B15739  10.742   9.291   6.528 -0.0720  0.1494 -0.1597
 1104YOPC   C4B15740  10.845   9.394   6.884  0.0110 -0.1070  0.1106
 1105YOPC   NC315741   0.397  11.560   5.260  0.1202  0.1065  0.2141
 1105YOPC   PO415742  -0.071  11.712   5.205  0.1141 -0.1590  0.0632
 1105YOPC   GL115743  -0.139  11.533   5.586  0.3162 -0.0015 -0.1954
 1105YOPC   GL215744   0.083  11.338   5.632  0.1824 -0.5196  0.0742
 1105YOPC   C1A15745  -0.483  11.443   5.934 -0.0697  0.3508 -0.0612
 1105YOPC   D2A15746  -0.679  11.331   6.247 -0.0715 -0.1993 -0.2563
 1105YOPC   C3A15747  -0.734  11.720   6.445  0.1266  0.1735  0.1385
 1105YOPC   C4A15748  -0.567  12.063   6.657 -0.0197 -0.2119  0.1549
 1105YOPC   C1B15749   0.252  11.232   5.996 -0.0688  0.1864 -0.4173
 1105YOPC   C2B15750   0.226  11.002   6.399  0.3582  0.1433 -0.1216
 1105YOPC   D3B15751  -0.041  11.118   6.670 -0.2023  0.2239 -0.0481
 1105YOPC   C4B15752  -0.493  10.896   6.698 -0.0209  0.2175 -0.0607
 1106YOPC   NC315753  12.949  15.852   4.898 -0.3037  0.2234  0.1693
 1106YOPC   PO415754  12.808  15.361   5.036 -0.2194  0.1008 -0.3705
 1106YOPC   GL115755  12.922  15.487   5.394 -0.0759 -0.2238 -0.1067
 1106YOPC   GL215756  13.243  15.751   5.347  0.2077 -0.0900 -0.4035
 1106YOPC   C1A15757  12.960  15.649   5.925 -0.0703 -0.3460  0.0321
 1106YOPC   D2A15758  12.761  15.691   6.260 -0.0025  0.1644 -0.0477
 1106YOPC   C3A15759  12.628  16.111   6.473  0.0852  0.2493  0.2572
 1106YOPC   C4A15760  12.242  16.267   6.656 -0.0497  0.0596 -0.0308
 1106YOPC   C1B15761  13.550  15.654   5.543  0.0888  0.0942 -0.1130
 1106YOPC   C2B15762  14.059  15.502   5.491 -0.1594 -0.0046 -0.0989
 1106YOPC   D3B15763  14.386  15.372   5.837  0.0836 -0.1492 -0.0098
 1106YOPC   C4B15764  14.370  15.085   6.252 -0.3683  0.4664 -0.0496
 1107YOPC   NC315765   3.141   4.031   5.731  0.0036  0.1335 -0.3143
 1107YOPC   PO415766   3.473   4.374   5.591  0.0408  0.1798  0.1834
 1107YOPC   GL115767   3.348   4.508   6.050  0.2207 -0.0809  0.2258
 1107YOPC   GL215768   3.544   4.869   6.142  0.2351  0.4561 -0.2069
 1107YOPC   C1A15769   3.526   4.435   6.515 -0.2103  0.1680 -0.1538
 1107YOPC   D2A15770   3.774   4.600   6.781  0.3992  0.1899  0.0954
 1107YOPC   C3A15771   3.785   4.354   7.132 -0.2964 -0.2192  0.2210
 1107YOPC   C4A15772   3.877   4.046   7.466 -0.1859 -0.2072  0.1187
 1107YOPC   C1B15773   3.324   4.862   6.584  0.2215  0.1712  0.3918
 1107YOPC   C2B15774   2.912   4.914   6.618  0.0791 -0.2954  0.2009
 1107YOPC   D3B15775   2.670   4.847   6.839  0.0190 -0.0106 -0.0256
 1107YOPC   C4B15776   2.277   4.876   6.662  0.2462 -0.3612  0.0384
 1108YOPC   NC315777  14.914  10.612   4.917  0.2192  0.0842  0.2118
 1108YOPC   PO415778  14.672  10.336   4.975  0.0208 -0.3620  0.1871
 1108YOPC   GL115779  14.682  10.286   5.440  0.1035 -0.2165 -0.2962
 1108YOPC   GL215780  14.691   9.885   5.605  0.0479  0.0283 -0.1434
 1108YOPC   C1A15781  14.755  10.399   5.759 -0.0542 -0.0428 -0.0026
 1108YOPC   D2A15782  14.700  10.681   6.094  0.1525 -0.2245 -0.0655
 1108YOPC   C3A15783  14.483  10.588   6.504  0.2738  0.0698  0.1177
 1108YOPC   C4A15784  14.196  10.845   6.715  0.0057 -0.2108 -0.1367
 1108YOPC   C1B15785  14.771   9.986   6.044 -0.2134 -0.1592  0.2392
 1108YOPC   C2B15786  14.812  10.258   6.354  0.1456  0.1059  0.2325
 1108YOPC   D3B15787  14.791   9.952   6.720  0.2124  0.3799  0.1069
 1108YOPC   C4B15788  14.659  10.001   7.115 -0.0367 -0.0299 -0.0259
 1109YOPC   NC315789   6.986   7.902   5.531  0.2524  0.0401 -0.0365
 1109YOPC   PO415790   6.736   7.519   5.552  0.3084  0.0224  0.0437
 1109YOPC   GL115791   6.844   7.551   5.907 -0.1141  0.0113  0.0303
 1109YOPC   GL215792   7.079   7.567   5.988 -0.1072  0.0341  0.0825
 1109YOPC   C1A15793   6.740   7.554   6.348  0.1382  0.2865 -0.4612
 1109YOPC   D2A15794   6.930   7.898   6.518  0.4712 -0.4345  0.1196
 1109YOPC   C3A15795   6.571   8.219   6.746  0.2259  0.2361  0.3029
 1109YOPC   C4A15796   6.178   8.269   6.670  0.1667  0.0286 -0.0378
 1109YOPC   C1B15797   7.224   7.565   6.373 -0.0383  0.0373 -0.1466
 1109YOPC   C2B15798   7.390   7.274   6.201  0.2656 -0.0109  0.0625
 1109YOPC   D3B15799   7.759   7.292   6.403 -0.1451 -0.0044  0.0671
 1109YOPC   C4B15800   7.976   7.021   6.619 -0.2468 -0.0791  0.1357
 1110YOPC   NC315801   9.248  14.490   4.971  0.0835  0.1414 -0.0123
 1110YOPC   PO415802   9.601  14.116   4.959 -0.1011  0.1018  0.2646
 1110YOPC   GL115803   9.681  13.979   5.391 -0.0093 -0.2987 -0.4645
 1110YOPC   GL215804   9.993  14.058   5.544 -0.0326 -0.5317  0.3001
 1110YOPC   C1A15805   9.882  13.627   5.649  0.0380 -0.1582 -0.1297
 1110YOPC   D2A15806   9.796  13.344   6.010  0.2401 -0.1598 -0.3761
 1110YOPC   C3A15807   9.736  13.421   6.461  0.0135 -0.1535  0.0086
 1110YOPC   C4A15808   9.454  13.505   6.881 -0.0420 -0.3227  0.0874
 1110YOPC   C1B15809  10.170  13.963   5.950 -0.0198  0.2663 -0.1008
 1110YOPC   C2B15810  10.028  13.811   6.391  0.1834  0.0360 -0.0200
 1110YOPC   D3B15811  10.338  13.988   6.697 -0.1370  0.1893 -0.2958
 1110YOPC   C4B15812  10.653  14.043   7.022  0.3470  0.3361 -0.0900
 1111YOPC   NC315813   4.684   4.595   5.676  0.2112  0.0195 -0.1149
 1111YOPC   PO415814   5.058   4.385   5.713 -0.0130  0.0338 -0.4219
 1111YOPC   GL115815   4.840   4.535   6.138 -0.2332  0.0547 -0.0882
 1111YOPC   GL215816   5.131   4.630   6.323  0.0448 -0.0721 -0.0310
 1111YOPC   C1A15817   4.703   4.717   6.622 -0.1509  0.1062  0.0366
 1111YOPC   D2A15818   4.383   4.796   6.831  0.0309  0.1409 -0.1351
 1111YOPC   C3A15819   4.332   4.689   7.304 -0.1518  0.1128 -0.0679
 1111YOPC   C4A15820   4.343   4.319   7.576 -0.1367 -0.0590 -0.0315
 1111YOPC   C1B15821   5.196   4.575   6.726 -0.1796  0.3323 -0.1008
 1111YOPC   C2B15822   5.700   4.500   6.982  0.1077  0.1559 -0.0127
 1111YOPC   D3B15823   5.696   4.485   7.440 -0.1184  0.1985 -0.0002
 1111YOPC   C4B15824   5.921   4.454   7.839 -0.2741 -0.0715 -0.0023
 1112YOPC   NC315825   9.162   3.752   5.077 -0.0217 -0.0316  0.1270
 1112YOPC   PO415826   8.745   3.975   5.133 -0.1088  0.1933 -0.3615
 1112YOPC   GL115827   8.643   4.203   5.564 -0.1702 -0.0069 -0.0397
 1112YOPC   GL215828   8.941   4.394   5.775  0.0380  0.0006 -0.0709
 1112YOPC   C1A15829   8.536   4.167   5.875  0.1251 -0.0353 -0.2990
 1112YOPC   D2A15830   8.601   4.126   6.350  0.0198 -0.2169 -0.3264
 1112YOPC   C3A15831   9.043   3.990   6.678 -0.0728  0.0126  0.1517
 1112YOPC   C4A15832   9.448   4.222   6.493  0.1581 -0.0618  0.0756
 1112YOPC   C1B15833   8.690   4.579   6.052 -0.0913 -0.0685  0.0948
 1112YOPC   C2B15834   8.477   4.626   6.374  0.0300  0.1129 -0.2598
 1112YOPC   D3B15835   8.225   4.401   6.638  0.2480 -0.0311  0.2442
 1112YOPC   C4B15836   8.277   4.246   7.006  0.1828  0.2088 -0.1208
 1113YOPC   NC315837   0.116   7.839   5.184 -0.0424  0.3000  0.4968
 1113YOPC   PO415838  -0.285   7.807   5.590  0.1731 -0.0086  0.3986
 1113YOPC   GL115839  -0.153   7.775   6.062 -0.2899 -0.1639 -0.3587
 1113YOPC   GL215840  -0.144   7.524   6.192  0.1983 -0.2256 -0.0107
 1113YOPC   C1A15841   0.102   8.075   6.180  0.3736  0.0416 -0.1074
 1113YOPC   D2A15842   0.488   8.278   6.253 -0.2643  0.0196 -0.0819
 1113YOPC   C3A15843   0.895   8.360   6.489  0.0103  0.0626 -0.2839
 1113YOPC   C4A15844   1.153   8.714   6.709  0.0816  0.1368 -0.2068
 1113YOPC   C1B15845  -0.292   7.390   6.625  0.0847  0.0470  0.2748
 1113YOPC   C2B15846  -0.225   7.103   6.982 -0.0615  0.2214  0.1638
 1113YOPC   D3B15847  -0.158   7.293   7.394 -0.0056 -0.3054  0.2291
 1113YOPC   C4B15848   0.147   7.608   7.393  0.0905  0.1487  0.3819
 1114YOPC   NC315849  10.011   1.033   5.145 -0.1748  0.2277  0.0843
 1114YOPC   PO415850  10.142   1.450   5.223 -0.3987 -0.2147  0.1064
 1114YOPC   GL115851  10.200   1.297   5.646 -0.0993  0.0221  0.1014
 1114YOPC   GL215852   9.900   1.281   5.940  0.0502  0.0191 -0.4341
 1114YOPC   C1A15853  10.433   1.186   5.963  0.0855 -0.2464  0.2958
 1114YOPC   D2A15854  10.269   1.033   6.415 -0.1507  0.0013 -0.4569
 1114YOPC   C3A15855  10.287   0.805   6.760 -0.2718 -0.0477  0.2226
 1114YOPC   C4A15856  10.120   0.723   7.176  0.0832  0.1324  0.1929
 1114YOPC   C1B15857  10.096   1.660   5.975 -0.1270  0.0609  0.1217
 1114YOPC   C2B15858  10.497   1.780   5.828 -0.2952 -0.0918  0.3428
 1114YOPC   D3B15859  10.481   2.251   5.880  0.1658 -0.1000  0.2279
 1114YOPC   C4B15860  10.455   2.736   5.894  0.0082  0.1984  0.1051
 1115YOPC   NC315861   7.679   3.276   5.211 -0.0077  0.1279 -0.4842
 1115YOPC   PO415862   7.366   3.115   5.313  0.2246 -0.2913 -0.4131
 1115YOPC   GL115863   7.343   3.006   5.709  0.0974  0.1094 -0.4233
 1115YOPC   GL215864   7.527   2.686   5.770 -0.0501 -0.0904 -0.1331
 1115YOPC   C1A15865   7.065   2.849   6.005 -0.1882 -0.0208 -0.1668
 1115YOPC   D2A15866   6.684   2.630   6.143 -0.2010  0.0403 -0.1060
 1115YOPC   C3A15867   6.582   2.327   6.456  0.0956  0.0023 -0.0761
 1115YOPC   C4A15868   6.591   2.309   6.834 -0.1853  0.1916  0.2280
 1115YOPC   C1B15869   7.578   2.801   6.141 -0.1390 -0.0257 -0.0710
 1115YOPC   C2B15870   7.568   2.867   6.613 -0.2335  0.2064 -0.0198
 1115YOPC   D3B15871   7.511   3.217   6.872 -0.0442 -0.0338  0.2059
 1115YOPC   C4B15872   7.811   3.539   6.897  0.0844  0.0791  0.1425
 1116YOPC   NC315873   7.675   4.488   5.374  0.1056 -0.0312  0.2578
 1116YOPC   PO415874   7.288   4.298   5.289  0.3277  0.3271 -0.1036
 1116YOPC   GL115875   7.056   4.063   5.583  0.2650  0.0411  0.1451
 1116YOPC   GL215876   7.012   4.151   5.789 -0.1934  0.0183  0.0383
 1116YOPC   C1A15877   6.762   3.734   5.843 -0.0254 -0.0658  0.2591
 1116YOPC   D2A15878   6.408   3.697   6.126  0.0609  0.1171  0.0075
 1116YOPC   C3A15879   6.266   4.072   6.180  0.0446 -0.0463 -0.3969
 1116YOPC   C4A15880   5.814   4.190   6.292  0.0776  0.1849  0.2085
 1116YOPC   C1B15881   6.764   4.169   6.190  0.1597 -0.3365 -0.1945
 1116YOPC   C2B15882   6.624   4.471   6.328  0.2128 -0.1043  0.0176
 1116YOPC   D3B15883   6.468   4.381   6.846 -0.0882  0.2585  0.1733
 1116YOPC   C4B15884   6.657   4.365   7.236 -0.2211  0.0707  0.3791
 1117YOPC   NC315885   1.725   9.611   5.330 -0.1426  0.2010  0.3477
 1117YOPC   PO415886   2.118   9.488   5.308 -0.2325  0.0640 -0.3404
 1117YOPC   GL115887   2.371   9.758   5.519 -0.0195 -0.0425 -0.0693
 1117YOPC   GL215888   2.351  10.128   5.365  0.1700  0.0468 -0.2915
 1117YOPC   C1A15889   2.409   9.667   5.912  0.0231 -0.1690 -0.0396
 1117YOPC   D2A15890   2.365   9.596   6.308  0.4937  0.1747 -0.0079
 1117YOPC   C3A15891   2.280   9.986   6.628 -0.2165 -0.1868 -0.2810
 1117YOPC   C4A15892   2.390  10.301   6.875  0.0148 -0.0622  0.0665
 1117YOPC   C1B15893   2.527  10.177   5.765  0.3802  0.0164  0.3603
 1117YOPC   C2B15894   2.416  10.146   6.104 -0.1153 -0.0032  0.1954
 1117YOPC   D3B15895   2.664  10.393   6.412  0.4502 -0.1335  0.1103
 1117YOPC   C4B15896   2.733  10.665   6.695 -0.0468 -0.2529  0.2498
 1118YOPC   NC315897   4.858   3.041   5.506  0.0988  0.0570 -0.1354
 1118YOPC   PO415898   5.284   3.071   5.680  0.1639  0.1761 -0.0202
 1118YOPC   GL115899   5.051   3.410   5.869  0.1246 -0.1324 -0.2257
 1118YOPC   GL215900   5.135   3.659   5.984  0.0517  0.1552  0.2652
 1118YOPC   C1A15901   4.676   3.528   6.068  0.0776  0.0219  0.0094
 1118YOPC   D2A15902   4.774   3.614   6.471 -0.0507  0.2032 -0.4215
 1118YOPC   C3A15903   5.169   3.601   6.700 -0.4122  0.0018  0.2238
 1118YOPC   C4A15904   5.602   3.501   6.654  0.4166 -0.1731  0.0509
 1118YOPC   C1B15905   5.438   3.797   6.270 -0.6008 -0.4531  0.1494
 1118YOPC   C2B15906   5.458   4.034   6.716 -0.1281 -0.2306 -0.0017
 1118YOPC   D3B15907   5.669   3.845   7.111 -0.1525  0.0905  0.0704
 1118YOPC   C4B15908   5.810   3.922   7.557  0.0262  0.1878 -0.0254
 1119YOPC   NC315909  15.694   3.211   5.371  0.1514 -0.1532  0.3489
 1119YOPC   PO415910  16.079   3.140   5.223 -0.2221  0.1253  0.1423
 1119YOPC   GL115911  16.074   3.112   5.752  0.1392  0.0674  0.1792
 1119YOPC   GL215912  15.762   3.143   5.995  0.0967  0.7042  0.0510
 1119YOPC   C1A15913  16.338   3.034   6.140 -0.1264  0.0654  0.2905
 1119YOPC   D2A15914  16.344   2.838   6.532 -0.0800  0.1135  0.1883
 1119YOPC   C3A15915  15.923   2.651   6.736 -0.0556 -0.1214 -0.3086
 1119YOPC   C4A15916  15.702   2.726   6.988  0.1913  0.0302  0.1756
 1119YOPC   C1B15917  15.880   2.783   6.270  0.0617 -0.0138 -0.1355
 1119YOPC   C2B15918  16.103   2.324   6.280 -0.0064  0.1760 -0.0845
 1119YOPC   D3B15919  15.849   2.021   6.107 -0.0689  0.1404 -0.1746
 1119YOPC   C4B15920  15.611   1.575   5.900 -0.1364 -0.0351 -0.0675
 1120YOPC   NC315921  12.384   1.444   4.812  0.0769  0.0173 -0.4453
 1120YOPC   PO415922  12.467   1.511   5.150  0.1102 -0.0305 -0.1194
 1120YOPC   GL115923  12.333   1.359   5.509 -0.3925  0.2296 -0.2360
 1120YOPC   GL215924  12.040   1.465   5.711 -0.0035 -0.1078  0.3045
 1120YOPC   C1A15925  12.408   1.243   5.927  0.3145 -0.1014 -0.2869
 1120YOPC   D2A15926  12.594   0.880   6.091  0.4448  0.1112  0.0862
 1120YOPC   C3A15927  12.835   0.946   6.369  0.2183  0.2782  0.0807
 1120YOPC   C4A15928  13.173   0.917   6.501 -0.1614  0.0829 -0.2407
 1120YOPC   C1B15929  11.870   1.635   6.140  0.3861  0.2710 -0.5300
 1120YOPC   C2B15930  11.658   1.842   6.386 -0.0493 -0.1453 -0.1597
 1120YOPC   D3B15931  11.550   1.757   6.813 -0.0697 -0.0846 -0.0398
 1120YOPC   C4B15932  11.698   1.508   7.224  0.0050  0.0877  0.3595
 1121YOPC   NC315933   5.944   0.278   5.731 -0.0561 -0.2521  0.0720
 1121YOPC   PO415934   6.305   0.230   5.403  0.3207  0.1048 -0.2481
 1121YOPC   GL115935   6.410   0.226   5.831  0.1256 -0.1721 -0.4772
 1121YOPC   GL215936   6.267   0.349   6.172  0.0446 -0.1662  0.2120
 1121YOPC   C1A15937   6.368  -0.206   5.993  0.4478  0.0210 -0.1450
 1121YOPC   D2A15938   6.359  -0.334   6.461  0.0284 -0.0841 -0.1266
 1121YOPC   C3A15939   6.233   0.033   6.596 -0.1327 -0.0719 -0.2140
 1121YOPC   C4A15940   6.470   0.366   6.695  0.0872 -0.2492  0.0807
 1121YOPC   C1B15941   5.961   0.477   6.483 -0.0601 -0.0237 -0.1018
 1121YOPC   C2B15942   6.002   0.387   6.900 -0.2198 -0.0918 -0.2188
 1121YOPC   D3B15943   5.860   0.069   7.144  0.0803  0.1337 -0.0203
 1121YOPC   C4B15944   5.681  -0.212   7.358 -0.2413  0.0322 -0.1798
 1122YOPC   NC315945  10.695  16.958   5.057  0.0301  0.1389 -0.1586
 1122YOPC   PO415946  10.797  17.307   5.075 -0.3054  0.0672 -0.0275
 1122YOPC   GL115947  10.914  17.142   5.505 -0.0812 -0.1394  0.3249
 1122YOPC   GL215948  11.071  16.799   5.491 -0.4861  0.2893  0.1004
 1122YOPC   C1A15949  11.218  17.197   5.793 -0.1290 -0.2285  0.0771
 1122YOPC   D2A15950  11.463  17.514   5.809 -0.3164  0.1569 -0.3172
 1122YOPC   C3A15951  11.719  17.586   6.192 -0.0936 -0.0519  0.0597
 1122YOPC   C4A15952  11.955  17.511   6.545  0.1996 -0.3387  0.0710
 1122YOPC   C1B15953  10.935  16.479   5.772  0.1488  0.0966  0.0513
 1122YOPC   C2B15954  10.738  16.296   6.157 -0.0088  0.1494  0.1906
 1122YOPC   D3B15955  11.044  16.206   6.496 -0.3990 -0.2043  0.0555
 1122YOPC   C4B15956  11.396  15.892   6.443 -0.2557 -0.1060  0.1751
 1123YOPC   NC315957   6.000   8.963   5.425 -0.0068  0.2959 -0.0028
 1123YOPC   PO415958   5.933   9.444   5.295 -0.0218  0.0172 -0.1452
 1123YOPC   GL115959   6.137   9.590   5.609 -0.0988  0.0995 -0.3441
 1123YOPC   GL215960   6.045   9.926   5.643 -0.1172 -0.3242  0.0663
 1123YOPC   C1A15961   6.548   9.620   5.834 -0.1421  0.1940  0.5639
 1123YOPC   D2A15962   6.503   9.522   6.266  0.0263  0.0844 -0.1236
 1123YOPC   C3A15963   6.725   9.701   6.613  0.1733 -0.1327 -0.0625
 1123YOPC   C4A15964   6.659   9.576   7.086  0.0408  0.0295 -0.2197
 1123YOPC   C1B15965   6.143   9.812   6.052 -0.3677 -0.1950  0.1842
 1123YOPC   C2B15966   6.052   9.639   6.349 -0.1956 -0.3028  0.0737
 1123YOPC   D3B15967   6.247   9.671   6.813  0.0151  0.2721 -0.0628
 1123YOPC   C4B15968   6.168   9.660   7.228 -0.2907  0.1844 -0.1217
 1124YOPC   NC315969  13.016   6.880   5.103  0.0468 -0.1459  0.1164
 1124YOPC   PO415970  12.758   6.506   5.315 -0.1465 -0.2590  0.2640
 1124YOPC   GL115971  12.979   6.337   5.584  0.3990  0.3700  0.2388
 1124YOPC   GL215972  12.903   6.245   5.967  0.2017  0.3776 -0.0132
 1124YOPC   C1A15973  13.459   6.302   5.755  0.0065 -0.1672  0.1805
 1124YOPC   D2A15974  13.686   5.944   5.982 -0.5391 -0.1394  0.0348
 1124YOPC   C3A15975  14.102   5.891   6.092  0.1975  0.1962 -0.3166
 1124YOPC   C4A15976  14.558   6.054   6.023 -0.2374 -0.1544  0.0984
 1124YOPC   C1B15977  13.285   6.361   6.221 -0.2032  0.3220  0.2654
 1124YOPC   C2B15978  13.417   5.989   6.546 -0.1124  0.3004  0.0541
 1124YOPC   D3B15979  13.230   5.987   6.921 -0.1131  0.1734  0.1486
 1124YOPC   C4B15980  12.796   5.848   7.082  0.1637  0.0614 -0.1107
 1125YOPC   NC315981   5.941   7.882   5.422 -0.2520 -0.2683  0.0666
 1125YOPC   PO415982   5.675   8.237   5.460 -0.2132 -0.0728  0.4824
 1125YOPC   GL115983   5.523   8.245   5.846 -0.2621  0.0958 -0.1475
 1125YOPC   GL215984   5.200   8.129   5.746  0.1397  0.0884 -0.1073
 1125YOPC   C1A15985   5.624   8.214   6.285 -0.4327  0.0220 -0.5756
 1125YOPC   D2A15986   5.659   8.233   6.800 -0.1494 -0.3280 -0.0600
 1125YOPC   C3A15987   5.980   8.458   7.064  0.0837  0.0883  0.2100
 1125YOPC   C4A15988   6.157   8.794   7.338 -0.0541  0.0217 -0.1189
 1125YOPC   C1B15989   5.135   8.104   6.192 -0.0270 -0.0027  0.0589
 1125YOPC   C2B15990   4.841   8.219   6.571 -0.0017  0.0368  0.0932
 1125YOPC   D3B15991   4.435   8.102   6.691 -0.0354 -0.0904  0.0704
 1125YOPC   C4B15992   4.090   7.847   6.658 -0.2769  0.2071  0.0100
 1126YOPC   NC315993   4.955   2.205   5.358 -0.1059 -0.2629 -0.1416
 1126YOPC   PO415994   5.082   2.605   5.496 -0.1821 -0.1609  0.2794
 1126YOPC   GL115995   5.228   2.648   5.881 -0.0539  0.2445 -0.0222
 1126YOPC   GL215996   5.025   2.484   6.047  0.4182 -0.0999  0.0190
 1126YOPC   C1A15997   5.259   2.780   6.353 -0.0072  0.0906  0.0131
 1126YOPC   D2A15998   5.109   2.574   6.745 -0.1336  0.1029  0.2986
 1126YOPC   C3A15999   5.221   2.686   6.994  0.0324 -0.4497 -0.0501
 1126YOPC   C4A16000   5.357   2.806   7.357  0.3685  0.1394 -0.0641
 1126YOPC   C1B16001   5.248   2.163   6.260 -0.0516  0.2860 -0.0896
 1126YOPC   C2B16002   5.355   2.048   6.644  0.4027 -0.0836  0.0757
 1126YOPC   D3B16003   5.072   2.193   7.019  0.2239  0.1253 -0.3850
 1126YOPC   C4B16004   4.638   2.194   6.948 -0.0469 -0.0905 -0.1492
 1127YOPC   NC316005  11.451  18.919   4.739 -0.1464  0.1080 -0.1422
 1127YOPC   PO416006  11.799  18.595   4.914 -0.1442  0.2609 -0.1556
 1127YOPC   GL116007  11.510  18.610   5.236  0.2234 -0.1558 -0.0533
 1127YOPC   GL216008  11.408  18.909   5.315  0.0331 -0.3093 -0.0965
 1127YOPC   C1A16009  11.435  18.610   5.708 -0.1325  0.2733 -0.1535
 1127YOPC   D2A16010  11.720  18.823   5.987  0.2051 -0.0969 -0.0803
 1127YOPC   C3A16011  11.768  18.783   6.470  0.0865  0.2665  0.3615
 1127YOPC   C4A16012  12.079  18.615   6.787 -0.2119 -0.2330 -0.2620
 1127YOPC   C1B16013  11.778  19.090   5.509  0.2793 -0.1689  0.0251
 1127YOPC   C2B16014  11.956  19.450   5.528 -0.0049  0.0615 -0.0917
 1127YOPC   D3B16015  12.109  19.374   5.931  0.0361 -0.1042  0.0993
 1127YOPC   C4B16016  12.493  19.466   6.060  0.3187  0.0672  0.3769
 1128ERGO   ROH16017   1.373  15.177   9.391  0.1823 -0.0874 -0.1176
 1128ERGO    R116018   1.270  15.155   9.129  0.2267 -0.2008 -0.1279
 1128ERGO    R216019   1.230  15.376   8.966 -0.1189 -0.2207 -0.0916
 1128ERGO    R316020   1.385  15.234   8.793  0.1246  0.0535 -0.1023
 1128ERGO    R416021   1.244  15.427   8.624 -0.1308 -0.1295 -0.0773
 1128ERGO    R516022   1.250  15.212   8.596  0.1999 -0.1081 -0.1281
 1128ERGO    C116023   1.398  15.325   8.263  0.0909  0.1810 -0.0791
 1128ERGO    C216024   1.384  15.280   7.930  0.0683 -0.0088 -0.0468
 1129ERGO   ROH16025   0.604  12.416   5.689  0.3965  0.0284  0.0832
 1129ERGO    R116026   0.637  12.271   5.929  0.1182  0.0447  0.1326
 1129ERGO    R216027   0.853  12.308   6.097  0.0398 -0.1088  0.2603
 1129ERGO    R316028   0.660  12.349   6.284 -0.0437  0.0873  0.1365
 1129ERGO    R416029   0.913  12.359   6.434 -0.1105 -0.0969  0.2867
 1129ERGO    R516030   0.740  12.233   6.478 -0.2499  0.0502  0.2082
 1129ERGO    C116031   0.766  12.427   6.805 -0.2764  0.0942  0.1859
 1129ERGO    C216032   0.816  12.592   7.090 -0.1114  0.0108  0.3195
 1130ERGO   ROH16033  11.475   0.231   5.495 -0.0583 -0.0900 -0.1018
 1130ERGO    R116034  11.392  -0.030   5.565 -0.1390 -0.0530 -0.0606
 1130ERGO    R216035  11.470  -0.154   5.800 -0.0770 -0.0866 -0.1007
 1130ERGO    R316036  11.202  -0.183   5.836 -0.0732  0.0298  0.0336
 1130ERGO    R416037  11.322  -0.381   6.015 -0.0678 -0.1575 -0.1684
 1130ERGO    R516038  11.171  -0.419   5.863 -0.1775  0.0243 -0.1095
 1130ERGO    C116039  10.985  -0.541   6.173 -0.0587 -0.0898 -0.0818
 1130ERGO    C216040  10.864  -0.757   6.438  0.0479 -0.1054  0.1204
 1131ERGO   ROH16041   0.033  15.268   5.948  0.0532 -0.0954 -0.0997
 1131ERGO    R116042  -0.106  15.319   6.190 -0.0562 -0.1948 -0.1405
 1131ERGO    R216043  -0.051  15.539   6.349  0.0453 -0.3913  0.1014
 1131ERGO    R316044  -0.317  15.584   6.321  0.1021 -0.1206 -0.0324
 1131ERGO    R416045  -0.268  15.611   6.609  0.0068 -0.0384 -0.0230
 1131ERGO    R516046  -0.416  15.482   6.514 -0.0901  0.0732 -0.0243
 1131ERGO    C116047  -0.644  15.696   6.734  0.0378  0.4212 -0.2210
 1131ERGO    C216048  -0.801  15.807   6.790 -0.0993 -0.0191  0.0426
 1132ERGO   ROH16049  10.416   3.514   6.011  0.0398 -0.1289 -0.1042
 1132ERGO    R116050  10.166   3.577   6.127  0.0044 -0.0813 -0.2067
 1132ERGO    R216051   9.927   3.484   6.024  0.0520 -0.3072 -0.1139
 1132ERGO    R316052   9.890   3.393   6.277  0.0633 -0.0026  0.0017
 1132ERGO    R416053   9.699   3.241   6.116  0.0999 -0.2460  0.1769
 1132ERGO    R516054   9.654   3.357   6.295  0.0686 -0.0316  0.0357
 1132ERGO    C116055   9.533   3.014   6.408  0.1384  0.0756  0.4548
 1132ERGO    C216056   9.400   2.770   6.672 -0.0517 -0.1813  0.4030
 1133ERGO   ROH16057  16.291  12.735   5.633  0.0188  0.0740 -0.0167
 1133ERGO    R116058  16.200  12.590   5.858  0.0139  0.0082 -0.0593
 1133ERGO    R216059  16.220  12.688   6.116  0.0781 -0.0985 -0.0189
 1133ERGO    R316060  15.953  12.638   6.121  0.0665 -0.0278 -0.0042
 1133ERGO    R416061  16.042  12.599   6.398  0.1424 -0.4463 -0.0850
 1133ERGO    R516062  15.929  12.457   6.276  0.0632 -0.2415 -0.2513
 1133ERGO    C116063  15.687  12.500   6.567  0.1691 -0.5825 -0.1097
 1133ERGO    C216064  15.692  12.569   6.848  0.0996  0.0223  0.0992
 1134ERGO   ROH16065  16.526   5.094   7.640 -0.0509  0.0870  0.0468
 1134ERGO    R116066  16.443   4.838   7.554  0.1878 -0.0725  0.2827
 1134ERGO    R216067  16.340   4.790   7.302 -0.3014 -0.2826  0.5133
 1134ERGO    R316068  16.537   4.603   7.293  0.0069  0.0403  0.1117
 1134ERGO    R416069  16.357   4.529   7.075 -0.3139 -0.2251  0.4444
 1134ERGO    R516070  16.425   4.400   7.236  0.2203 -0.1432  0.3097
 1134ERGO    C116071  16.551   4.202   6.935 -0.0320  0.1115  0.0272
 1134ERGO    C216072  16.748   3.919   6.743 -0.2979 -0.0487  0.5877
 1135ERGO   ROH16073   1.552  12.021   9.048  0.0121 -0.1341  0.1181
 1135ERGO    R116074   1.512  12.143   8.796 -0.2617 -0.1835  0.1352
 1135ERGO    R216075   1.685  12.107   8.583 -0.1836  0.2114  0.1258
 1135ERGO    R316076   1.458  12.032   8.453 -0.0391 -0.2619  0.1228
 1135ERGO    R416077   1.666  12.030   8.247 -0.0475  0.3505  0.0848
 1135ERGO    R516078   1.476  12.136   8.238 -0.3152 -0.0906  0.1757
 1135ERGO    C116079   1.442  11.916   7.929  0.1674 -0.0127  0.0583
 1135ERGO    C216080   1.200  11.938   7.726  0.0124 -0.1880 -0.2061
 1136ERGO   ROH16081  14.848   1.822   5.609  0.0776 -0.1743 -0.0012
 1136ERGO    R116082  14.817   1.971   5.848  0.1089 -0.1000 -0.0439
 1136ERGO    R216083  14.662   1.884   6.059  0.0344  0.0260 -0.0493
 1136ERGO    R316084  14.890   1.924   6.201  0.0287 -0.0446 -0.0186
 1136ERGO    R416085  14.677   1.913   6.403 -0.0078  0.0194 -0.0463
 1136ERGO    R516086  14.824   2.072   6.378  0.0468 -0.0232 -0.0266
 1136ERGO    C116087  14.900   1.968   6.737 -0.0377 -0.0507 -0.0157
 1136ERGO    C216088  14.867   2.175   7.138 -0.1690  0.0159 -0.0999
 1137ERGO   ROH16089  12.740  13.333   5.755 -0.0080  0.0858  0.0021
 1137ERGO    R116090  12.873  13.388   5.999 -0.0193 -0.1071  0.0537
 1137ERGO    R216091  12.986  13.633   6.054  0.2828 -0.2551  0.1140
 1137ERGO    R316092  12.830  13.620   6.276  0.1838 -0.0728  0.0575
 1137ERGO    R416093  13.089  13.718   6.373  0.2178 -0.2305  0.1283
 1137ERGO    R516094  12.979  13.546   6.449  0.0622 -0.1276  0.1396
 1137ERGO    C116095  13.002  13.754   6.767  0.0870 -0.0448  0.0836
 1137ERGO    C216096  13.112  13.960   6.840  0.0013  0.3819 -0.1342
 1138ERGO   ROH16097  11.215  16.953   8.836  0.1236 -0.1070 -0.0065
 1138ERGO    R116098  11.154  16.851   8.579 -0.0273 -0.0940  0.0240
 1138ERGO    R216099  10.946  16.949   8.426 -0.0446 -0.0108  0.1053
 1138ERGO    R316100  11.141  16.981   8.239 -0.1088 -0.1096  0.0204
 1138ERGO    R416101  10.898  17.083   8.111 -0.1061  0.0709  0.1485
 1138ERGO    R516102  11.033  16.932   8.031 -0.2402 -0.0071  0.0614
 1138ERGO    C116103  11.053  17.192   7.752 -0.2023  0.0257  0.0941
 1138ERGO    C216104  11.136  17.169   7.402  0.1560  0.2425  0.0125
 1139ERGO   ROH16105   2.193   2.108   6.434  0.0203 -0.1700 -0.0166
 1139ERGO    R116106   2.028   1.971   6.618  0.0104 -0.1187  0.0151
 1139ERGO    R216107   2.110   1.740   6.748 -0.0266 -0.1327  0.0255
 1139ERGO    R316108   2.044   1.881   6.971  0.0369 -0.0951  0.0185
 1139ERGO    R416109   2.093   1.610   7.068 -0.1007 -0.1087  0.0304
 1139ERGO    R516110   1.915   1.729   7.102 -0.0392 -0.0227  0.0212
 1139ERGO    C116111   2.022   1.667   7.463 -0.0842 -0.0593  0.0265
 1139ERGO    C216112   2.063   1.453   7.818  0.1183  0.1045 -0.1997
 1140ERGO   ROH16113  13.804   4.026   5.632  0.1958  0.0738  0.0778
 1140ERGO    R116114  13.679   3.869   5.831  0.0329  0.2418  0.1098
 1140ERGO    R216115  13.777   3.624   5.911 -0.2948  0.0921  0.0598
 1140ERGO    R316116  13.768   3.736   6.158 -0.0488  0.0909  0.0727
 1140ERGO    R416117  13.879   3.469   6.202 -0.1006  0.0473 -0.0292
 1140ERGO    R516118  13.707   3.556   6.303  0.0102  0.1054  0.1198
 1140ERGO    C116119  13.930   3.484   6.604  0.2434  0.0201 -0.0690
 1140ERGO    C216120  13.993   3.294   6.745 -0.0238 -0.2505  0.0256
 1141ERGO   ROH16121  14.912  15.720   5.313 -0.0227  0.2207 -0.2655
 1141ERGO    R116122  15.122  15.805   5.482 -0.1374  0.1756 -0.0989
 1141ERGO    R216123  15.367  15.890   5.386  0.0528 -0.1277  0.1019
 1141ERGO    R316124  15.313  16.111   5.534  0.0785  0.0513 -0.1478
 1141ERGO    R416125  15.603  16.073   5.559  0.0596 -0.0148 -0.0237
 1141ERGO    R516126  15.460  16.093   5.723  0.0174  0.2054 -0.0839
 1141ERGO    C116127  15.689  16.387   5.800  0.0875  0.2191 -0.3313
 1141ERGO    C216128  15.923  16.528   5.628  0.0376  0.3395  0.0060
 1142ERGO   ROH16129  17.272  16.804   9.039 -0.1594 -0.2467  0.0790
 1142ERGO    R116130  17.404  16.760   8.792 -0.1275 -0.4560  0.1309
 1142ERGO    R216131  17.352  16.540   8.633 -0.6065 -0.2568 -0.0110
 1142ERGO    R316132  17.307  16.729   8.443 -0.0237 -0.0269  0.0591
 1142ERGO    R416133  17.345  16.480   8.292 -0.4166 -0.0175 -0.0591
 1142ERGO    R516134  17.452  16.668   8.262  0.0196 -0.2193  0.1592
 1142ERGO    C116135  17.299  16.623   7.916  0.2413  0.3379 -0.0214
 1142ERGO    C216136  17.324  16.646   7.674 -0.0396  0.0964 -0.2922
 1143ERGO   ROH16137   0.629  17.637   9.799  0.0363 -0.1534 -0.0378
 1143ERGO    R116138   0.664  17.727   9.533  0.0391 -0.1511 -0.0371
 1143ERGO    R216139   0.556  17.595   9.315 -0.0906 -0.0644 -0.0293
 1143ERGO    R316140   0.450  17.839   9.261  0.0525  0.0095  0.0189
 1143ERGO    R416141   0.485  17.714   8.999 -0.0952  0.0148  0.0014
 1143ERGO    R516142   0.560  17.910   9.061  0.0447 -0.0408 -0.0002
 1143ERGO    C116143   0.344  18.013   8.764  0.0363  0.1301  0.0646
 1143ERGO    C216144   0.258  18.331   8.521  0.0538  0.3396  0.1640
 1144ERGO   ROH16145  11.430  13.507   5.543 -0.1784  0.3070 -0.2408
 1144ERGO    R116146  11.251  13.587   5.747 -0.1282  0.1062 -0.1161
 1144ERGO    R216147  10.989  13.499   5.758 -0.0639 -0.0789 -0.0108
 1144ERGO    R316148  11.059  13.422   6.009  0.1212 -0.1269 -0.0747
 1144ERGO    R416149  10.778  13.339   5.980 -0.0875  0.3850  0.3162
 1144ERGO    R516150  10.862  13.462   6.140  0.3562  0.2876  0.1745
 1144ERGO    C116151  10.721  13.173   6.345  0.0724  0.6102  0.4466
 1144ERGO    C216152  10.563  12.876   6.409  0.0150  0.0249  0.0146
 1145ERGO   ROH16153   6.970  18.977   5.787 -0.2440 -0.1011  0.0338
 1145ERGO    R116154   7.133  18.990   6.019 -0.0707  0.0377 -0.0918
 1145ERGO    R216155   7.247  19.225   6.108 -0.3392  0.1740 -0.0897
 1145ERGO    R316156   7.122  19.160   6.340 -0.0622 -0.1092 -0.0133
 1145ERGO    R416157   7.317  19.365   6.416 -0.1823  0.0166 -0.0525
 1145ERGO    R516158   7.295  19.168   6.505  0.0859 -0.0689 -0.1701
 1145ERGO    C116159   7.240  19.386   6.813  0.1691 -0.3408  0.0410
 1145ERGO    C216160   7.301  19.534   7.156  0.0432 -0.3200 -0.0003
 1146ERGO   ROH16161   2.846  14.354   7.584  0.0267  0.0758 -0.1738
 1146ERGO    R116162   2.700  14.276   7.354 -0.0411  0.1531 -0.1573
 1146ERGO    R216163   2.449  14.376   7.296 -0.0486  0.1873 -0.0601
 1146ERGO    R316164   2.564  14.439   7.059 -0.1107  0.2479 -0.0743
 1146ERGO    R416165   2.288  14.367   6.990 -0.0225 -0.1307 -0.0678
 1146ERGO    R516166   2.470  14.283   6.903  0.0947  0.0659 -0.0238
 1146ERGO    C116167   2.303  14.421   6.589 -0.0657 -0.2589 -0.0856
 1146ERGO    C216168   2.202  14.399   6.365  0.0638 -0.0235  0.1415
 1147ERGO   ROH16169   5.065  17.838   5.686 -0.2025 -0.0064  0.0723
 1147ERGO    R116170   5.008  17.871   5.962 -0.0866  0.0561  0.0886
 1147ERGO    R216171   5.170  17.767   6.160 -0.0809 -0.0207  0.0389
 1147ERGO    R316172   5.171  18.024   6.249  0.1053 -0.0123  0.0190
 1147ERGO    R416173   5.286  17.870   6.469 -0.0122 -0.0876  0.0366
 1147ERGO    R516174   5.118  18.007   6.481  0.0845  0.0403  0.0212
 1147ERGO    C116175   5.354  18.171   6.732  0.2026 -0.1186  0.0165
 1147ERGO    C216176   5.604  18.215   7.079 -0.1572 -0.1562  0.1464
 1148ERGO   ROH16177   2.125  12.571   5.595  0.2207  0.0493 -0.0540
 1148ERGO    R116178   1.989  12.342   5.693  0.0365  0.2095  0.0710
 1148ERGO    R216179   2.114  12.098   5.724 -0.1938  0.0948  0.0745
 1148ERGO    R316180   2.019  12.118   5.978 -0.0543  0.2526  0.1161
 1148ERGO    R416181   2.137  11.850   5.964 -0.1976  0.1785  0.1628
 1148ERGO    R516182   1.934  11.900   6.028 -0.1442  0.3124  0.2474
 1148ERGO    C116183   2.061  11.725   6.342 -0.0688  0.3754  0.2533
 1148ERGO    C216184   2.249  11.486   6.578 -0.2926 -0.0790 -0.0776
 1149ERGO   ROH16185  15.550   8.923   5.730  0.0694 -0.0548  0.1297
 1149ERGO    R116186  15.792   8.997   5.857  0.0697  0.2120 -0.0180
 1149ERGO    R216187  15.812   9.217   6.022 -0.1399  0.0935  0.1720
 1149ERGO    R316188  15.910   9.035   6.199  0.3100  0.0738 -0.0834
 1149ERGO    R416189  15.953   9.295   6.328 -0.0417  0.0248  0.1448
 1149ERGO    R516190  16.103   9.141   6.292  0.2025  0.3137 -0.1268
 1149ERGO    C116191  16.127   9.170   6.672  0.4376 -0.0337 -0.1108
 1149ERGO    C216192  16.183   9.348   6.917 -0.0496 -0.1657 -0.0617
 1150ERGO   ROH16193  17.755  18.344   6.087 -0.0355 -0.0404 -0.0729
 1150ERGO    R116194  17.649  18.347   6.349 -0.1190  0.1302 -0.1075
 1150ERGO    R216195  17.396  18.442   6.406 -0.2761 -0.1561 -0.3065
 1150ERGO    R316196  17.365  18.197   6.521  0.0370 -0.0676 -0.0163
 1150ERGO    R416197  17.199  18.375   6.682 -0.0346 -0.0512 -0.1043
 1150ERGO    R516198  17.354  18.242   6.756  0.1466  0.1786 -0.0539
 1150ERGO    C116199  17.055  18.107   6.950  0.4001  0.0930  0.2859
 1150ERGO    C216200  16.886  18.121   7.172 -0.2018 -0.1113 -0.1587
 1151ERGO   ROH16201   8.320   8.051   5.876 -0.1855  0.2189 -0.1307
 1151ERGO    R116202   8.200   8.087   6.129 -0.0932  0.0953 -0.0670
 1151ERGO    R216203   8.346   8.148   6.356  0.0012 -0.0978 -0.0682
 1151ERGO    R316204   8.172   8.357   6.373  0.0746 -0.0504  0.1149
 1151ERGO    R416205   8.338   8.379   6.614  0.1700 -0.2301  0.0569
 1151ERGO    R516206   8.120   8.372   6.606  0.1700 -0.1554  0.1399
 1151ERGO    C116207   8.170   8.709   6.779  0.3372 -0.2627  0.3016
 1151ERGO    C216208   8.377   8.937   6.782  0.0334  0.3908 -0.2947
 1152ERGO   ROH16209  13.211  18.061   8.646 -0.0458 -0.0856 -0.1418
 1152ERGO    R116210  13.084  18.087   8.395  0.0803  0.0122 -0.1972
 1152ERGO    R216211  13.161  18.276   8.207  0.2800 -0.0183 -0.1524
 1152ERGO    R316212  13.181  18.059   8.045  0.2195 -0.0208 -0.1556
 1152ERGO    R416213  13.054  18.264   7.879  0.0505 -0.0696 -0.0777
 1152ERGO    R516214  12.980  18.063   7.915  0.1289 -0.0830 -0.0143
 1152ERGO    C116215  13.011  18.053   7.535 -0.1400 -0.1018 -0.0372
 1152ERGO    C216216  13.111  17.964   7.205  0.0149  0.0233 -0.1260
 1153ERGO   ROH16217   2.514  14.589   6.059  0.2832  0.2491  0.1259
 1153ERGO    R116218   2.711  14.444   6.201  0.1103  0.0060  0.1219
 1153ERGO    R216219   2.785  14.506   6.460  0.2609 -0.0200  0.0837
 1153ERGO    R316220   2.725  14.245   6.506 -0.1033  0.0735  0.1782
 1153ERGO    R416221   2.873  14.331   6.745  0.2678 -0.1075  0.0286
 1153ERGO    R516222   2.918  14.159   6.618 -0.1186 -0.2068  0.0055
 1153ERGO    C116223   2.868  13.984   6.954 -0.0701 -0.0706  0.0852
 1153ERGO    C216224   2.991  13.809   7.232 -0.2532 -0.0572 -0.2759
 1154ERGO   ROH16225  17.127   0.533   5.861  0.2180 -0.0416 -0.1247
 1154ERGO    R116226  16.904   0.630   6.006  0.1679 -0.0877 -0.1707
 1154ERGO    R216227  16.869   0.581   6.275  0.1592 -0.0353 -0.1610
 1154ERGO    R316228  16.848   0.852   6.289  0.0600 -0.0385 -0.2306
 1154ERGO    R416229  16.804   0.760   6.564  0.1957  0.0261 -0.1904
 1154ERGO    R516230  16.673   0.890   6.448  0.1040 -0.0582 -0.1793
 1154ERGO    C116231  16.747   1.118   6.745  0.1237  0.0589 -0.2728
 1154ERGO    C216232  16.713   1.315   7.120 -0.1430  0.2759  0.2754
 1155ERGO   ROH16233   5.285   7.264   9.559  0.1749  0.1001 -0.1191
 1155ERGO    R116234   5.133   7.125   9.365  0.2681  0.0544 -0.1596
 1155ERGO    R216235   4.859   7.154   9.342  0.2170 -0.2811 -0.0111
 1155ERGO    R316236   4.919   7.213   9.084  0.0261  0.0030  0.0042
 1155ERGO    R416237   4.634   7.144   9.080  0.1281 -0.4660  0.0700
 1155ERGO    R516238   4.790   7.057   8.956  0.2319 -0.1242 -0.0540
 1155ERGO    C116239   4.560   7.193   8.685 -0.1029 -0.3069  0.1315
 1155ERGO    C216240   4.297   7.233   8.514  0.0942  0.2633 -0.0816
 1156ERGO   ROH16241   7.293  16.002   6.076 -0.0756  0.1387  0.0913
 1156ERGO    R116242   7.271  15.942   6.352 -0.0458  0.2324  0.1149
 1156ERGO    R216243   7.079  16.057   6.514 -0.1691  0.1249  0.0505
 1156ERGO    R316244   7.020  15.798   6.572  0.0641  0.0913  0.1494
 1156ERGO    R416245   6.884  15.954   6.780  0.0361  0.0395  0.1693
 1156ERGO    R516246   7.023  15.789   6.812  0.1833  0.1579  0.1507
 1156ERGO    C116247   6.715  15.651   6.990  0.3745 -0.0417  0.3313
 1156ERGO    C216248   6.346  15.439   6.978  0.2319 -0.0374  0.2189
 1157ERGO   ROH16249   6.845  14.674   9.072  0.0136  0.0651  0.0140
 1157ERGO    R116250   6.915  14.527   8.841  0.0755  0.1884 -0.0461
 1157ERGO    R216251   6.732  14.377   8.699  0.1594  0.0947 -0.0488
 1157ERGO    R316252   6.821  14.526   8.490  0.0014  0.2229 -0.0281
 1157ERGO    R416253   6.638  14.330   8.370  0.4866 -0.2219 -0.1039
 1157ERGO    R516254   6.845  14.368   8.311  0.4656  0.1989  0.0360
 1157ERGO    C116255   6.667  14.443   7.981  0.5289 -0.2857 -0.1167
 1157ERGO    C216256   6.536  14.647   7.713 -0.1468  0.0347 -0.0805
 1158ERGO   ROH16257  15.052  16.015   8.006 -0.0379  0.0695 -0.1272
 1158ERGO    R116258  15.206  15.858   7.828  0.3469  0.2026  0.0774
 1158ERGO    R216259  15.126  15.803   7.569  0.3595 -0.5032  0.2003
 1158ERGO    R316260  15.369  15.907   7.506  0.0361  0.1331 -0.0923
 1158ERGO    R416261  15.313  15.713   7.294  0.5269 -0.4633  0.3000
 1158ERGO    R516262  15.492  15.721   7.418  0.5744  0.3235  0.2213
 1158ERGO    C116263  15.651  15.758   7.073  0.3206  0.1574  0.0835
 1158ERGO    C216264  15.634  15.802   6.701 -0.2201 -0.2322 -0.1010
 1159ERGO   ROH16265  17.581  13.733   5.717  0.2739 -0.0446 -0.1076
 1159ERGO    R116266  17.668  13.678   5.980  0.0406  0.0480 -0.0094
 1159ERGO    R216267  17.925  13.732   6.067  0.0255 -0.1237  0.1319
 1159ERGO    R316268  17.796  13.869   6.262  0.0119  0.1168 -0.0405
 1159ERGO    R416269  18.058  13.806   6.377 -0.1369 -0.1328  0.2048
 1159ERGO    R516270  17.863  13.762   6.465 -0.2709  0.1256  0.0692
 1159ERGO    C116271  18.013  13.979   6.742 -0.2442  0.0878  0.0854
 1159ERGO    C216272  17.982  14.139   7.084 -0.0320  0.0030  0.0865
 1160ERGO   ROH16273   4.290   0.808   9.509 -0.1608 -0.0847 -0.0264
 1160ERGO    R116274   4.282   0.895   9.240 -0.1143  0.0242  0.0074
 1160ERGO    R216275   4.480   0.831   9.057 -0.1099  0.0559  0.0046
 1160ERGO    R316276   4.270   0.738   8.912 -0.1133  0.1583 -0.0582
 1160ERGO    R416277   4.493   0.744   8.723  0.0115 -0.1718  0.0661
 1160ERGO    R516278   4.298   0.837   8.696  0.1094 -0.0040 -0.1087
 1160ERGO    C116279   4.303   0.606   8.392  0.0791 -0.2083  0.0429
 1160ERGO    C216280   4.273   0.496   7.987 -0.3876 -0.0716 -0.0724
 1161ERGO   ROH16281   2.983  18.349   6.241 -0.0228 -0.2462 -0.0325
 1161ERGO    R116282   2.979  18.377   6.523  0.0345 -0.3003 -0.0257
 1161ERGO    R216283   3.168  18.260   6.687  0.3488  0.0532 -0.1202
 1161ERGO    R316284   3.199  18.514   6.778 -0.1319  0.1117 -0.0971
 1161ERGO    R416285   3.263  18.345   7.008  0.0655  0.2166 -0.0767
 1161ERGO    R516286   3.118  18.507   7.003 -0.2181 -0.0325 -0.1326
 1161ERGO    C116287   3.347  18.633   7.281 -0.5508  0.3669 -0.0296
 1161ERGO    C216288   3.514  18.781   7.581  0.4252  0.1238 -0.0807
 1162ERGO   ROH16289   5.093   6.660   6.889 -0.0514 -0.0982 -0.1453
 1162ERGO    R116290   5.250   6.499   7.060 -0.0135 -0.0638 -0.1477
 1162ERGO    R216291   5.496   6.579   7.155 -0.0927  0.0497 -0.0389
 1162ERGO    R316292   5.385   6.525   7.397 -0.1405 -0.0984 -0.0928
 1162ERGO    R416293   5.670   6.460   7.429 -0.1327 -0.0666 -0.0636
 1162ERGO    R516294   5.501   6.329   7.473 -0.1225 -0.1206 -0.1721
 1162ERGO    C116295   5.666   6.339   7.816 -0.2008 -0.2734 -0.1287
 1162ERGO    C216296   6.011   6.276   7.801 -0.2287 -0.0095  0.0991
 1163ERGO   ROH16297  18.273  16.282   5.623  0.0705  0.3257  0.0575
 1163ERGO    R116298  18.364  16.235   5.887  0.1073  0.2927  0.0381
 1163ERGO    R216299  18.314  16.410   6.095 -0.1360  0.1096  0.1276
 1163ERGO    R316300  18.213  16.189   6.215  0.1399 -0.0893  0.0066
 1163ERGO    R416301  18.356  16.332   6.429 -0.2007  0.1155  0.1373
 1163ERGO    R516302  18.384  16.123   6.370  0.1713  0.1551  0.0946
 1163ERGO    C116303  18.285  16.079   6.736  0.0202 -0.0677  0.0293
 1163ERGO    C216304  18.258  16.201   6.971 -0.0021  0.2737  0.3674
 1164ERGO   ROH16305   8.625   7.314   5.922 -0.1024 -0.2541 -0.0434
 1164ERGO    R116306   8.750   7.184   6.140  0.0779 -0.0628 -0.0296
 1164ERGO    R216307   8.895   7.321   6.332 -0.1245  0.1624 -0.0306
 1164ERGO    R316308   8.726   7.195   6.503  0.0442 -0.0737 -0.0323
 1164ERGO    R416309   8.972   7.233   6.657  0.0709  0.0317 -0.1099
 1164ERGO    R516310   8.866   7.045   6.626  0.2105 -0.0345 -0.1736
 1164ERGO    C116311   8.857   7.063   7.007  0.3429 -0.2661 -0.1577
 1164ERGO    C216312   8.975   6.871   7.234 -0.0911  0.2799  0.0957
 1165ERGO   ROH16313   1.531   6.717   6.229 -0.1022  0.1356 -0.1322
 1165ERGO    R116314   1.557   6.868   6.467 -0.3608  0.2901 -0.1975
 1165ERGO    R216315   1.347   7.013   6.576 -0.7193 -0.2788 -0.0860
 1165ERGO    R316316   1.406   6.868   6.798 -0.1235 -0.0605 -0.0844
 1165ERGO    R416317   1.291   7.117   6.900 -0.6494 -0.2984 -0.0679
 1165ERGO    R516318   1.483   7.031   6.956 -0.3613  0.1974 -0.2265
 1165ERGO    C116319   1.314   7.043   7.298 -0.0494 -0.1047 -0.0558
 1165ERGO    C216320   1.183   6.933   7.570 -0.2399  0.0828  0.3224
 1166ERGO   ROH16321  16.347   6.813   5.783  0.0785 -0.1277  0.0592
 1166ERGO    R116322  16.149   6.801   5.985 -0.1665  0.0791 -0.1617
 1166ERGO    R216323  16.209   6.820   6.254 -0.3949 -0.3614 -0.0720
 1166ERGO    R316324  16.025   7.020   6.248  0.0472  0.0644 -0.0464
 1166ERGO    R416325  16.037   6.938   6.529 -0.4024 -0.2749 -0.1132
 1166ERGO    R516326  15.858   6.952   6.406 -0.2649  0.2572 -0.2811
 1166ERGO    C116327  15.765   7.195   6.684  0.0084  0.1752 -0.1131
 1166ERGO    C216328  15.506   7.295   6.807  0.1933 -0.1132  0.4079
 1167ERGO   ROH16329  11.033  14.384   5.626 -0.2804 -0.0074  0.2257
 1167ERGO    R116330  11.177  14.430   5.865 -0.0477  0.0094  0.0856
 1167ERGO    R216331  11.451  14.468   5.869 -0.0583  0.1335 -0.1944
 1167ERGO    R316332  11.386  14.696   6.001 -0.0225  0.0764 -0.0789
 1167ERGO    R416333  11.656  14.629   6.096  0.0315  0.0545 -0.2204
 1167ERGO    R516334  11.480  14.666   6.220  0.0766 -0.0070 -0.1288
 1167ERGO    C116335  11.714  14.937   6.352  0.1176 -0.0450 -0.1270
 1167ERGO    C216336  11.909  15.204   6.246 -0.0124  0.1233 -0.1243
 1168ERGO   ROH16337  18.702  14.344   9.175  0.0245 -0.1274 -0.1439
 1168ERGO    R116338  18.881  14.193   9.017 -0.0077 -0.1545 -0.1534
 1168ERGO    R216339  18.817  14.104   8.762  0.0276  0.0025 -0.2151
 1168ERGO    R316340  19.047  14.232   8.695  0.1257 -0.0980 -0.0793
 1168ERGO    R416341  18.986  14.064   8.463 -0.1390  0.3643 -0.3640
 1168ERGO    R516342  19.173  14.069   8.574 -0.0833 -0.0156 -0.4244
 1168ERGO    C116343  19.300  14.161   8.226 -0.1441  0.4806 -0.3233
 1168ERGO    C216344  19.427  14.202   7.954  0.2587  0.1796  0.4153
 1169ERGO   ROH16345  17.567  15.679   8.788 -0.2438  0.1461  0.1088
 1169ERGO    R116346  17.524  15.531   8.551 -0.2803 -0.0727  0.2480
 1169ERGO    R216347  17.271  15.466   8.460 -0.3109  0.0842  0.1977
 1169ERGO    R316348  17.358  15.585   8.232 -0.0729 -0.2464  0.1102
 1169ERGO    R416349  17.087  15.492   8.169 -0.1704  0.0664  0.1074
 1169ERGO    R516350  17.269  15.449   8.056 -0.1936 -0.2854  0.2085
 1169ERGO    C116351  17.061  15.619   7.785  0.1351 -0.2543 -0.0273
 1169ERGO    C216352  16.918  15.752   7.528 -0.3070  0.0245 -0.0528
 1170ERGO   ROH16353  12.697  14.885   5.305  0.0114 -0.1239  0.1578
 1170ERGO    R116354  12.900  14.889   5.502  0.0659 -0.0823  0.1006
 1170ERGO    R216355  13.156  14.979   5.449 -0.0267  0.1777  0.0848
 1170ERGO    R316356  13.108  15.141   5.662 -0.1074 -0.0087  0.2122
 1170ERGO    R416357  13.400  15.133   5.639 -0.1057  0.2984  0.0899
 1170ERGO    R516358  13.283  15.089   5.817  0.0068  0.0624  0.1091
 1170ERGO    C116359  13.498  15.376   5.949 -0.2272  0.1938  0.2125
 1170ERGO    C216360  13.713  15.580   6.018 -0.4142  0.2417  0.0584
 1171ERGO   ROH16361  18.830   3.810   6.461  0.0320  0.2236  0.0236
 1171ERGO    R116362  18.880   3.855   6.736  0.1332  0.3471 -0.0142
 1171ERGO    R216363  18.780   4.075   6.871 -0.0466  0.2661 -0.0133
 1171ERGO    R316364  18.681   3.885   7.039  0.2643  0.1890  0.0891
 1171ERGO    R416365  18.606   4.139   7.163 -0.1609  0.1406 -0.0524
 1171ERGO    R516366  18.714   3.976   7.258  0.1129  0.3669  0.0406
 1171ERGO    C116367  18.413   3.999   7.490  0.0645 -0.0049  0.0210
 1171ERGO    C216368  18.307   3.832   7.782 -0.1157  0.1586 -0.0291
 1172ERGO   ROH16369   5.994  12.287   5.706 -0.2210 -0.1796 -0.0538
 1172ERGO    R116370   5.968  12.133   5.943 -0.1284 -0.1370 -0.0149
 1172ERGO    R216371   6.155  11.944   6.018 -0.0433 -0.0508  0.0029
 1172ERGO    R316372   6.159  12.086   6.249 -0.0653  0.0055 -0.0321
 1172ERGO    R416373   6.304  11.838   6.311  0.0290  0.0736  0.0106
 1172ERGO    R516374   6.134  11.920   6.421  0.0146  0.0393  0.0105
 1172ERGO    C116375   6.394  11.911   6.700  0.0505  0.1990 -0.0177
 1172ERGO    C216376   6.610  11.733   6.887 -0.3699  0.0432 -0.0702
 1173ERGO   ROH16377   1.849  14.387   9.156  0.0565 -0.0502 -0.0701
 1173ERGO    R116378   1.825  14.296   8.890  0.0123  0.0203 -0.0907
 1173ERGO    R216379   1.580  14.256   8.768 -0.0085  0.0667 -0.0662
 1173ERGO    R316380   1.683  14.422   8.579 -0.0253  0.1102 -0.0375
 1173ERGO    R416381   1.441  14.311   8.456 -0.0701  0.1916 -0.0172
 1173ERGO    R516382   1.641  14.309   8.371 -0.0915  0.1852 -0.0643
 1173ERGO    C116383   1.456  14.499   8.098 -0.1216  0.3050  0.0386
 1173ERGO    C216384   1.441  14.622   7.728 -0.0902  0.2796 -0.0731
 1174ERGO   ROH16385  17.858   7.914   9.703  0.1316 -0.2128  0.0288
 1174ERGO    R116386  17.958   7.854   9.445 -0.0860 -0.3257 -0.0314
 1174ERGO    R216387  17.793   7.789   9.234 -0.3085  0.1081 -0.0019
 1174ERGO    R316388  17.925   7.992   9.110  0.0855 -0.1158  0.0358
 1174ERGO    R416389  17.935   7.769   8.919 -0.3551 -0.1042 -0.0114
 1174ERGO    R516390  18.104   7.884   8.994 -0.1229 -0.4457  0.0066
 1174ERGO    C116391  18.142   7.949   8.620 -0.0123 -0.4380  0.0187
 1174ERGO    C216392  18.199   8.049   8.259 -0.0028  0.0860  0.3470
 1175ERGO   ROH16393   5.708  14.708   5.680  0.1139 -0.4405 -0.1509
 1175ERGO    R116394   5.847  14.663   5.923  0.0835 -0.2239 -0.0908
 1175ERGO    R216395   6.123  14.667   5.939  0.0803 -0.1899 -0.0554
 1175ERGO    R316396   6.076  14.849   6.135  0.0399 -0.0246 -0.2155
 1175ERGO    R416397   6.318  14.707   6.221 -0.1486 -0.1665  0.1031
 1175ERGO    R516398   6.136  14.735   6.337 -0.2388  0.0553 -0.0827
 1175ERGO    C116399   6.389  14.901   6.569 -0.3198  0.0022  0.0451
 1175ERGO    C216400   6.603  14.942   6.788 -0.1164  0.0209 -0.2378
 1176ERGO   ROH16401  18.495   0.236   5.988 -0.1339  0.2774  0.0207
 1176ERGO    R116402  18.371   0.161   6.231 -0.0547  0.1275  0.0172
 1176ERGO    R216403  18.513   0.066   6.448  0.0361  0.1279 -0.0317
 1176ERGO    R316404  18.385   0.266   6.579 -0.0504  0.0210  0.0467
 1176ERGO    R416405  18.408   0.051   6.777 -0.0001 -0.0396 -0.0507
 1176ERGO    R516406  18.225   0.154   6.717 -0.0226 -0.0846 -0.0194
 1176ERGO    C116407  18.226   0.230   7.091 -0.1023 -0.2375  0.0118
 1176ERGO    C216408  18.149   0.221   7.513  0.1367  0.2412 -0.1167
 1177ERGO   ROH16409   4.339  11.415   5.813  0.1800 -0.2019 -0.0702
 1177ERGO    R116410   4.383  11.175   5.956  0.0034 -0.1541  0.0680
 1177ERGO    R216411   4.543  11.163   6.180  0.0681 -0.1597  0.0228
 1177ERGO    R316412   4.321  11.053   6.293  0.0005  0.1181  0.1679
 1177ERGO    R416413   4.538  10.994   6.482  0.1080 -0.3750 -0.0950
 1177ERGO    R516414   4.400  10.850   6.393 -0.2218 -0.0891 -0.0636
 1177ERGO    C116415   4.327  10.793   6.764  0.0679 -0.2394 -0.0274
 1177ERGO    C216416   4.117  10.682   6.941 -0.0002 -0.1408  0.2635
 1178ERGO   ROH16417   6.660  16.798   5.432 -0.1227  0.2168  0.0424
 1178ERGO    R116418   6.655  16.884   5.702  0.0004  0.0536  0.0988
 1178ERGO    R216419   6.875  16.869   5.868  0.1034  0.0402 -0.0393
 1178ERGO    R316420   6.826  17.134   5.903  0.0193  0.0011  0.1488
 1178ERGO    R416421   6.962  17.051   6.148  0.2769 -0.0786 -0.0147
 1178ERGO    R516422   6.771  17.154   6.135  0.2171 -0.1512  0.2126
 1178ERGO    C116423   6.967  17.405   6.345  0.2991 -0.1843  0.1762
 1178ERGO    C216424   6.937  17.755   6.395 -0.1127  0.0769  0.1797
 1179ERGO   ROH16425   7.359  14.599   5.631 -0.1447  0.2236  0.0382
 1179ERGO    R116426   7.477  14.485   5.862 -0.0201  0.1923 -0.0402
 1179ERGO    R216427   7.689  14.603   5.994 -0.0118  0.2247 -0.0820
 1179ERGO    R316428   7.524  14.581   6.210  0.0744  0.1008 -0.0275
 1179ERGO    R416429   7.793  14.612   6.323  0.0976  0.2248 -0.1163
 1179ERGO    R516430   7.651  14.453   6.368  0.1979  0.1413 -0.0926
 1179ERGO    C116431   7.700  14.598   6.718  0.2422  0.1087 -0.0850
 1179ERGO    C216432   7.595  14.563   7.029  0.0432 -0.1908  0.1355
 1180ERGO   ROH16433   9.328   4.169   9.285 -0.1130  0.2473 -0.0605
 1180ERGO    R116434   9.419   4.238   9.025 -0.1153  0.2734 -0.0549
 1180ERGO    R216435   9.506   4.050   8.843  0.1445  0.3142  0.0209
 1180ERGO    R316436   9.320   4.166   8.683  0.0586  0.0651 -0.0629
 1180ERGO    R416437   9.545   4.108   8.504  0.1849  0.2937  0.0224
 1180ERGO    R516438   9.447   4.301   8.531 -0.0504  0.1851 -0.0472
 1180ERGO    C116439   9.392   4.251   8.157  0.1279  0.0478 -0.0554
 1180ERGO    C216440   9.505   4.010   7.862  0.0559 -0.0726  0.3495
 1181ERGO   ROH16441  18.424   2.020   5.975 -0.0063  0.2861  0.0386
 1181ERGO    R116442  18.465   1.916   6.235  0.1357  0.0606 -0.0702
 1181ERGO    R216443  18.281   1.948   6.439  0.4281  0.2595  0.1735
 1181ERGO    R316444  18.300   1.677   6.454 -0.0132  0.2094 -0.0177
 1181ERGO    R416445  18.302   1.767   6.733  0.4712  0.0459  0.0414
 1181ERGO    R516446  18.449   1.638   6.637  0.1442 -0.1544 -0.2128
 1181ERGO    C116447  18.332   1.408   6.918  0.0819 -0.1257 -0.2151
 1181ERGO    C216448  18.498   1.292   7.290  0.0779  0.0520 -0.4305
 1182ERGO   ROH16449  13.464   5.113   6.106  0.2879 -0.1001 -0.0056
 1182ERGO    R116450  13.442   5.085   6.387  0.2477 -0.1211 -0.0113
 1182ERGO    R216451  13.204   5.017   6.511  0.1832  0.0553 -0.0367
 1182ERGO    R316452  13.355   4.819   6.620  0.0159 -0.0849 -0.0541
 1182ERGO    R416453  13.145   4.870   6.818  0.0858  0.1042 -0.0309
 1182ERGO    R516454  13.360   4.870   6.854  0.0900 -0.0921 -0.0547
 1182ERGO    C116455  13.252   4.598   7.099 -0.1282  0.0009 -0.0439
 1182ERGO    C216456  13.091   4.263   7.287  0.1410 -0.0115  0.1076
 1183ERGO   ROH16457   3.296   5.637   6.484 -0.0767  0.1005 -0.0386
 1183ERGO    R116458   3.274   5.414   6.658 -0.1012  0.0448 -0.1132
 1183ERGO    R216459   3.253   5.441   6.932 -0.0250 -0.0470 -0.1000
 1183ERGO    R316460   3.030   5.289   6.898 -0.0798  0.0313 -0.0973
 1183ERGO    R416461   3.114   5.237   7.174  0.0729 -0.2130 -0.1814
 1183ERGO    R516462   3.076   5.088   7.020 -0.0501 -0.0809 -0.2857
 1183ERGO    C116463   2.824   4.976   7.283  0.0784 -0.2360 -0.2263
 1183ERGO    C216464   2.845   4.873   7.529 -0.1399 -0.1880 -0.0607
 1184ERGO   ROH16465  19.390  17.066   5.964  0.1112 -0.0126  0.1147
 1184ERGO    R116466  19.196  17.048   6.169  0.0068 -0.0558  0.0124
 1184ERGO    R216467  18.971  16.888   6.148  0.1045 -0.1808 -0.0658
 1184ERGO    R316468  19.061  16.788   6.384  0.0263 -0.0645  0.0150
 1184ERGO    R416469  18.773  16.739   6.388  0.0597 -0.3153 -0.1843
 1184ERGO    R516470  18.889  16.841   6.541 -0.1356 -0.1869 -0.1154
 1184ERGO    C116471  18.741  16.558   6.750 -0.0400 -0.2842 -0.1774
 1184ERGO    C216472  18.710  16.296   6.992  0.0759  0.2541 -0.3554
 1185ERGO   ROH16473  12.566   6.626   5.892  0.2112 -0.0016  0.0163
 1185ERGO    R116474  12.438   6.466   6.087  0.2257  0.0968  0.1082
 1185ERGO    R216475  12.395   6.196   6.053 -0.0928  0.1438  0.0952
 1185ERGO    R316476  12.525   6.177   6.291  0.1180 -0.0342 -0.0299
 1185ERGO    R416477  12.370   5.929   6.271 -0.0868  0.0872  0.0263
 1185ERGO    R516478  12.366   6.071   6.436  0.1733  0.0339  0.0808
 1185ERGO    C116479  12.476   5.756   6.621  0.1146 -0.1127 -0.1313
 1185ERGO    C216480  12.419   5.428   6.869  0.0180  0.1734 -0.0109
 1186ERGO   ROH16481  18.065   0.667   9.653  0.2082  0.2540  0.1856
 1186ERGO    R116482  18.031   0.659   9.373  0.1455  0.0552  0.1968
 1186ERGO    R216483  17.992   0.887   9.221 -0.1302 -0.0694  0.0709
 1186ERGO    R316484  18.205   0.791   9.081 -0.0630  0.0700  0.0772
 1186ERGO    R416485  18.057   0.955   8.888 -0.1052  0.0657  0.1037
 1186ERGO    R516486  18.118   0.748   8.863 -0.0070  0.0999  0.0485
 1186ERGO    C116487  18.295   0.905   8.564 -0.0276  0.2751  0.1287
 1186ERGO    C216488  18.323   1.003   8.193  0.2649 -0.0306  0.0037
 1187ERGO   ROH16489   2.503  12.800   5.677  0.0824 -0.0669 -0.1093
 1187ERGO    R116490   2.610  12.908   5.916  0.0122 -0.0314 -0.0926
 1187ERGO    R216491   2.475  12.896   6.157 -0.0913  0.0645 -0.1387
 1187ERGO    R316492   2.706  12.781   6.243 -0.1546  0.0260 -0.0218
 1187ERGO    R416493   2.554  12.834   6.488 -0.1468  0.2933 -0.0817
 1187ERGO    R516494   2.759  12.897   6.446 -0.1179  0.1621 -0.1124
 1187ERGO    C116495   2.817  12.690   6.761 -0.2386  0.3904  0.0613
 1187ERGO    C216496   2.773  12.514   7.094  0.1314  0.0842 -0.1006
 1188ERGO   ROH16497   4.924   2.967   6.053  0.1431 -0.1699  0.0562
 1188ERGO    R116498   4.856   3.099   6.294  0.0937 -0.2077  0.0614
 1188ERGO    R216499   4.656   3.008   6.462  0.0531 -0.2237 -0.0060
 1188ERGO    R316500   4.854   3.018   6.649  0.0042 -0.2639  0.0502
 1188ERGO    R416501   4.612   3.105   6.791  0.0264  0.0831 -0.0957
 1188ERGO    R516502   4.802   3.212   6.780  0.1390 -0.1022 -0.1220
 1188ERGO    C116503   4.771   3.170   7.158 -0.0350  0.2241 -0.0951
 1188ERGO    C216504   4.610   3.416   7.483 -0.0635 -0.0263  0.1575
 1189ERGO   ROH16505   7.697  17.721   7.656  0.0514 -0.0143  0.0416
 1189ERGO    R116506   7.594  17.476   7.559 -0.0502 -0.0609  0.2607
 1189ERGO    R216507   7.713  17.336   7.353 -0.3993 -0.0296  0.0301
 1189ERGO    R316508   7.711  17.132   7.533  0.0334 -0.0183  0.0575
 1189ERGO    R416509   7.672  17.002   7.273 -0.5027 -0.0434  0.1389
 1189ERGO    R516510   7.545  16.981   7.449 -0.1229 -0.0594  0.4220
 1189ERGO    C116511   7.646  16.617   7.395 -0.1568 -0.0410  0.2278
 1189ERGO    C216512   7.604  16.461   7.186  0.0953 -0.1547 -0.0570
 1190ERGO   ROH16513  12.496  18.410   5.376  0.1577 -0.0389  0.1694
 1190ERGO    R116514  12.643  18.405   5.618  0.2230  0.1864  0.1366
 1190ERGO    R216515  12.647  18.619   5.793 -0.0883  0.1883  0.1516
 1190ERGO    R316516  12.568  18.430   5.973  0.2572  0.0404  0.1538
 1190ERGO    R416517  12.635  18.665   6.136 -0.2425  0.1925  0.1458
 1190ERGO    R516518  12.713  18.464   6.161  0.1613  0.3481  0.1759
 1190ERGO    C116519  12.554  18.516   6.504 -0.0078  0.0560  0.1443
 1190ERGO    C216520  12.650  18.628   6.804  0.0656 -0.2863  0.0515
 1191ERGO   ROH16521  17.084   5.493   9.718  0.1101 -0.1650 -0.0057
 1191ERGO    R116522  17.179   5.581   9.466  0.0885 -0.1141  0.0019
 1191ERGO    R216523  17.409   5.479   9.350  0.0924 -0.0833 -0.0366
 1191ERGO    R316524  17.242   5.430   9.141  0.0726 -0.0567 -0.0250
 1191ERGO    R416525  17.508   5.455   9.020  0.0837 -0.3075 -0.0228
 1191ERGO    R516526  17.329   5.565   8.963  0.1745 -0.2069 -0.0821
 1191ERGO    C116527  17.411   5.394   8.631  0.0603 -0.4130 -0.0040
 1191ERGO    C216528  17.481   5.338   8.310 -0.4147  0.0975  0.1095
 1192ERGO   ROH16529   8.794  17.367   5.380  0.0669 -0.1075  0.1110
 1192ERGO    R116530   8.840  17.298   5.651 -0.0060 -0.0517  0.1384
 1192ERGO    R216531   8.995  17.453   5.820 -0.0429 -0.0215  0.1464
 1192ERGO    R316532   8.773  17.445   5.977 -0.0849  0.0214  0.0890
 1192ERGO    R416533   8.982  17.557   6.149 -0.0849 -0.1089  0.1727
 1192ERGO    R516534   8.855  17.385   6.194 -0.1630 -0.0717  0.0930
 1192ERGO    C116535   8.766  17.611   6.488 -0.1487 -0.1199  0.1342
 1192ERGO    C216536   8.792  17.590   6.798 -0.0379  0.1969  0.1428
 1193ERGO   ROH16537   8.947   9.559   5.715  0.3064 -0.0697 -0.1392
 1193ERGO    R116538   9.141   9.476   5.903  0.2988 -0.0082 -0.1042
 1193ERGO    R216539   9.398   9.576   5.905  0.2311  0.1618  0.0177
 1193ERGO    R316540   9.340   9.632   6.165  0.1091  0.0301  0.0209
 1193ERGO    R416541   9.626   9.558   6.164  0.1326  0.0919  0.1002
 1193ERGO    R516542   9.468   9.471   6.289  0.0961 -0.0026 -0.0026
 1193ERGO    C116543   9.705   9.601   6.559 -0.0393 -0.0725  0.1513
 1193ERGO    C216544   9.913   9.625   6.883  0.1419  0.0431 -0.2245
 1194ERGO   ROH16545   0.450  17.986   6.026 -0.0026 -0.0239 -0.0955
 1194ERGO    R116546   0.326  17.874   6.254 -0.1897  0.2006 -0.0832
 1194ERGO    R216547   0.469  17.750   6.455 -0.4008 -0.1951 -0.1697
 1194ERGO    R316548   0.338  17.927   6.614  0.0648  0.0798 -0.0708
 1194ERGO    R416549   0.456  17.731   6.800 -0.4198 -0.3425 -0.1777
 1194ERGO    R516550   0.246  17.791   6.789 -0.2820  0.2170 -0.1359
 1194ERGO    C116551   0.324  17.886   7.150  0.0062 -0.1706 -0.0896
 1194ERGO    C216552   0.387  18.078   7.396  0.0622  0.2414  0.0889
 1195ERGO   ROH16553  14.282   7.279   5.256 -0.0558  0.0990  0.0777
 1195ERGO    R116554  14.465   7.366   5.454  0.0465  0.0260  0.0168
 1195ERGO    R216555  14.505   7.633   5.513  0.1158  0.0071  0.0587
 1195ERGO    R316556  14.447   7.553   5.766  0.2148 -0.0393  0.0666
 1195ERGO    R416557  14.620   7.787   5.800  0.2014 -0.0243  0.0408
 1195ERGO    R516558  14.650   7.589   5.888  0.2550 -0.0353 -0.0004
 1195ERGO    C116559  14.634   7.801   6.205  0.3444 -0.0861  0.0379
 1195ERGO    C216560  14.706   7.933   6.409 -0.4057 -0.2137  0.2030
 1196ERGO   ROH16561   8.995  12.083   5.384 -0.0551 -0.1363 -0.0427
 1196ERGO    R116562   9.027  12.170   5.652 -0.1159  0.0413 -0.0917
 1196ERGO    R216563   8.815  12.256   5.806 -0.1955 -0.1188 -0.1085
 1196ERGO    R316564   8.906  12.067   5.979  0.0464  0.0725 -0.0215
 1196ERGO    R416565   8.776  12.268   6.150 -0.3755 -0.1027 -0.1283
 1196ERGO    R516566   8.980  12.192   6.170 -0.2520  0.2452 -0.0143
 1196ERGO    C116567   8.840  12.097   6.512 -0.2532  0.0863 -0.0582
 1196ERGO    C216568   8.723  12.244   6.812 -0.2636 -0.1859 -0.0072
 1197ERGO   ROH16569  17.468   6.717   5.861 -0.1363 -0.3778 -0.0708
 1197ERGO    R116570  17.562   6.568   6.083 -0.0526 -0.2251 -0.0020
 1197ERGO    R216571  17.525   6.650   6.344 -0.0211 -0.0834 -0.0412
 1197ERGO    R316572  17.416   6.403   6.372  0.0493 -0.0968  0.1251
 1197ERGO    R416573  17.517   6.469   6.639  0.2713  0.0018  0.0214
 1197ERGO    R516574  17.562   6.290   6.524  0.2061 -0.0237  0.0323
 1197ERGO    C116575  17.410   6.132   6.836  0.5077  0.0387  0.2140
 1197ERGO    C216576  17.268   6.042   7.244  0.1474 -0.3720 -0.2465
 1198ERGO   ROH16577  11.293  10.746   5.489 -0.1256 -0.2744  0.1216
 1198ERGO    R116578  11.300  10.799   5.767  0.1399  0.0117  0.0649
 1198ERGO    R216579  11.187  10.629   5.954 -0.0273  0.3932  0.3176
 1198ERGO    R316580  11.436  10.637   6.064  0.0625  0.0980  0.1491
 1198ERGO    R416581  11.279  10.471   6.248  0.0349  0.1310  0.1617
 1198ERGO    R516582  11.397  10.647   6.300  0.2366 -0.0045  0.1866
 1198ERGO    C116583  11.566  10.387   6.521  0.1553 -0.2988 -0.0872
 1198ERGO    C216584  11.687  10.345   6.925  0.1516  0.0675 -0.1412
 1199ERGO   ROH16585   1.644   5.177   6.279 -0.1307  0.1857 -0.0735
 1199ERGO    R116586   1.527   4.987   6.453 -0.0324  0.0202 -0.1862
 1199ERGO    R216587   1.671   4.854   6.647 -0.0115  0.1576 -0.1102
 1199ERGO    R316588   1.478   4.951   6.812 -0.2420 -0.0945 -0.2236
 1199ERGO    R416589   1.608   4.738   6.966  0.1223  0.2278 -0.0574
 1199ERGO    R516590   1.395   4.757   6.926  0.0860 -0.1911 -0.1313
 1199ERGO    C116591   1.391   4.761   7.307 -0.0162  0.0321 -0.1331
 1199ERGO    C216592   1.434   4.497   7.553  0.0171 -0.0906  0.3128
 1200ERGO   ROH16593  14.227  18.866   5.434 -0.4617 -0.0084  0.0718
 1200ERGO    R116594  14.413  18.820   5.642 -0.2934 -0.0581 -0.0862
 1200ERGO    R216595  14.502  19.021   5.809 -0.0808 -0.0770 -0.1713
 1200ERGO    R316596  14.417  18.852   6.005  0.0328 -0.0394 -0.0892
 1200ERGO    R416597  14.653  18.987   6.118 -0.1432  0.2792 -0.0980
 1200ERGO    R516598  14.620  18.772   6.104  0.0861  0.2349  0.0305
 1200ERGO    C116599  14.662  18.810   6.482 -0.0730  0.5222  0.0217
 1200ERGO    C216600  14.860  18.846   6.731 -0.3683  0.0821  0.1108
 1201ERGO   ROH16601  12.161  18.065   8.890 -0.1979 -0.0090  0.0901
 1201ERGO    R116602  12.215  17.981   8.625 -0.0674 -0.1293  0.1527
 1201ERGO    R216603  12.015  17.938   8.439  0.0232 -0.1662  0.0552
 1201ERGO    R316604  12.162  18.113   8.290  0.1423 -0.2535  0.0707
 1201ERGO    R416605  12.037  17.933   8.094 -0.1146 -0.0357  0.0440
 1201ERGO    R516606  12.250  17.979   8.112 -0.0645 -0.2626 -0.0214
 1201ERGO    C116607  12.187  18.094   7.753 -0.0828 -0.0419  0.0519
 1201ERGO    C216608  12.182  18.089   7.450 -0.4137  0.0894 -0.2445
 1202ERGO   ROH16609  11.429   7.132   5.893 -0.1135  0.2582 -0.1263
 1202ERGO    R116610  11.215   7.229   6.051 -0.1346  0.1162 -0.0641
 1202ERGO    R216611  10.952   7.156   6.007 -0.1184  0.0552 -0.0822
 1202ERGO    R316612  10.962   7.087   6.270 -0.0757 -0.0706 -0.1172
 1202ERGO    R416613  10.686   7.031   6.189 -0.0995  0.0174 -0.0817
 1202ERGO    R516614  10.749   7.154   6.357 -0.0427 -0.0753 -0.0388
 1202ERGO    C116615  10.540   6.893   6.541 -0.0483 -0.1228 -0.1142
 1202ERGO    C216616  10.534   6.748   6.841  0.1839 -0.3859  0.3150
 1203ERGO   ROH16617  17.671  17.540   5.389 -0.0432  0.2684  0.0295
 1203ERGO    R116618  17.780  17.372   5.589  0.0310  0.1608 -0.0997
 1203ERGO    R216619  18.004  17.441   5.736  0.0153  0.1365 -0.0620
 1203ERGO    R316620  17.840  17.391   5.948  0.0442 -0.0789 -0.0874
 1203ERGO    R416621  18.109  17.407   6.064 -0.0155  0.5268 -0.0075
 1203ERGO    R516622  17.967  17.244   6.088  0.3025  0.2474  0.0344
 1203ERGO    C116623  18.017  17.342   6.453 -0.0065  0.5518  0.0005
 1203ERGO    C216624  17.841  17.485   6.764 -0.0649  0.0750 -0.1846
 1204ERGO   ROH16625   0.970  14.496   5.799 -0.1419 -0.0107  0.0272
 1204ERGO    R116626   1.139  14.508   6.026 -0.0744 -0.1517 -0.0140
 1204ERGO    R216627   1.094  14.681   6.236  0.1312 -0.0986 -0.0084
 1204ERGO    R316628   1.106  14.453   6.384 -0.0385 -0.1055 -0.0038
 1204ERGO    R416629   1.100  14.669   6.582  0.2675 -0.0885 -0.0104
 1204ERGO    R516630   1.248  14.509   6.569  0.0994 -0.2409 -0.0670
 1204ERGO    C116631   1.115  14.449   6.921  0.1876 -0.0889 -0.0074
 1204ERGO    C216632   0.794  14.262   7.063  0.3244 -0.1006 -0.0104
 1205ERGO   ROH16633   2.315  17.878   6.516 -0.1459 -0.3825  0.2121
 1205ERGO    R116634   2.273  17.731   6.754  0.0060 -0.2598  0.3169
 1205ERGO    R216635   2.451  17.538   6.842  0.0917 -0.1737  0.3353
 1205ERGO    R316636   2.447  17.686   7.070  0.1772 -0.0474  0.2556
 1205ERGO    R416637   2.559  17.427   7.151  0.0659 -0.0584  0.3860
 1205ERGO    R516638   2.389  17.529   7.242  0.1186  0.0699  0.3453
 1205ERGO    C116639   2.619  17.501   7.545  0.1311  0.1275  0.3405
 1205ERGO    C216640   2.823  17.373   7.860 -0.1242  0.0423 -0.2712
 1206ERGO   ROH16641  15.242   1.969   5.909  0.0458 -0.0598 -0.0603
 1206ERGO    R116642  15.369   2.015   6.158 -0.1428 -0.0175  0.0294
 1206ERGO    R216643  15.277   1.905   6.395 -0.1296 -0.2495 -0.0734
 1206ERGO    R316644  15.533   1.814   6.413 -0.0180  0.0656  0.0170
 1206ERGO    R416645  15.416   1.764   6.678 -0.0538 -0.0666 -0.0172
 1206ERGO    R516646  15.601   1.872   6.635 -0.1674  0.1629  0.0414
 1206ERGO    C116647  15.737   1.595   6.859  0.0951  0.3357  0.1004
 1206ERGO    C216648  15.786   1.258   6.847 -0.1943 -0.3891 -0.2591
 1207ERGO   ROH16649   1.023   1.516   6.394  0.4261 -0.0973  0.0260
 1207ERGO    R116650   0.988   1.319   6.595  0.2285 -0.0919  0.0005
 1207ERGO    R216651   1.197   1.227   6.751  0.0881 -0.1201  0.1837
 1207ERGO    R316652   1.034   1.299   6.956 -0.0794 -0.0924  0.0413
 1207ERGO    R416653   1.255   1.157   7.084 -0.0234  0.2093  0.2749
 1207ERGO    R516654   1.043   1.115   7.107  0.0046  0.0434  0.1997
 1207ERGO    C116655   1.135   1.184   7.471 -0.2455  0.4271  0.1943
 1207ERGO    C216656   0.995   1.130   7.766 -0.0138  0.1910  0.0235
 1208ERGO   ROH16657   6.717   4.966   6.388  0.3026  0.0589  0.0899
 1208ERGO    R116658   6.576   4.911   6.627  0.2164 -0.0666  0.0116
 1208ERGO    R216659   6.704   4.851   6.865  0.1366  0.0014  0.0709
 1208ERGO    R316660   6.554   5.057   6.960 -0.0620 -0.1157  0.0178
 1208ERGO    R416661   6.601   4.885   7.193  0.3756  0.1409  0.1339
 1208ERGO    R516662   6.408   4.955   7.120  0.2114 -0.1832  0.2342
 1208ERGO    C116663   6.401   5.097   7.474  0.3282  0.1121  0.1207
 1208ERGO    C216664   6.439   5.463   7.749  0.1797  0.1950 -0.1078
 1209ERGO   ROH16665   9.914  10.391   5.847 -0.0011  0.0829  0.1129
 1209ERGO    R116666  10.130  10.462   6.016 -0.0393  0.0812  0.1611
 1209ERGO    R216667  10.294  10.678   5.965  0.0006  0.0483  0.1717
 1209ERGO    R316668  10.225  10.749   6.218 -0.0558  0.1003  0.1432
 1209ERGO    R416669  10.440  10.934   6.145  0.0850 -0.0279  0.2145
 1209ERGO    R516670  10.432  10.808   6.322 -0.0577 -0.0178  0.2198
 1209ERGO    C116671  10.460  11.150   6.487  0.0812 -0.0234  0.2126
 1209ERGO    C216672  10.507  11.478   6.628  0.1508 -0.2760  0.3809
 1210ERGO   ROH16673   3.269  15.498   6.364  0.0625 -0.3175  0.0356
 1210ERGO    R116674   3.220  15.377   6.614 -0.0888 -0.2017  0.0650
 1210ERGO    R216675   3.324  15.475   6.850  0.0531 -0.2848  0.0449
 1210ERGO    R316676   3.064  15.473   6.929  0.0474  0.0762  0.0487
 1210ERGO    R416677   3.217  15.493   7.178  0.0910 -0.4719  0.0678
 1210ERGO    R516678   3.064  15.345   7.131 -0.1689 -0.1561 -0.0973
 1210ERGO    C116679   2.910  15.501   7.443  0.1076 -0.2419  0.0846
 1210ERGO    C216680   2.692  15.556   7.684 -0.0016 -0.2470  0.0104
 1211ERGO   ROH16681   9.410  15.193   5.619 -0.2161  0.0878  0.0293
 1211ERGO    R116682   9.663  15.316   5.654 -0.2101  0.1111 -0.0869
 1211ERGO    R216683   9.698  15.590   5.643 -0.2679  0.1269  0.0573
 1211ERGO    R316684   9.812  15.552   5.887 -0.0762 -0.0080 -0.0513
 1211ERGO    R416685   9.874  15.831   5.819 -0.1798  0.0463  0.0793
 1211ERGO    R516686  10.017  15.676   5.877 -0.1070  0.0348 -0.1262
 1211ERGO    C116687  10.084  15.935   6.149  0.0514 -0.1273 -0.0098
 1211ERGO    C216688  10.132  16.088   6.451 -0.2227 -0.3597  0.2154
 1212ERGO   ROH16689  10.413  13.514   8.949 -0.1826 -0.2835  0.3581
 1212ERGO    R116690  10.483  13.261   8.844 -0.3041 -0.3626  0.4627
 1212ERGO    R216691  10.305  13.050   8.833 -0.5669 -0.1375  0.1005
 1212ERGO    R316692  10.372  13.049   8.570 -0.0610 -0.1810  0.2193
 1212ERGO    R416693  10.256  12.784   8.618 -0.6424  0.0070 -0.0636
 1212ERGO    R516694  10.451  12.826   8.529 -0.3836 -0.3174  0.3172
 1212ERGO    C116695  10.291  12.628   8.246 -0.2115  0.0501 -0.0475
 1212ERGO    C216696  10.170  12.498   7.962  0.2258  0.2278 -0.2164
 1213ERGO   ROH16697   5.502  11.088   5.674 -0.1602 -0.0513 -0.2724
 1213ERGO    R116698   5.371  11.198   5.900 -0.3226 -0.0761 -0.3531
 1213ERGO    R216699   5.113  11.129   5.971 -0.2028 -0.4591 -0.2670
 1213ERGO    R316700   5.229  11.072   6.210 -0.0713 -0.0565 -0.2272
 1213ERGO    R416701   4.953  11.145   6.276 -0.1479 -0.3212 -0.2446
 1213ERGO    R516702   5.134  11.232   6.361 -0.2297 -0.0034 -0.3793
 1213ERGO    C116703   4.968  11.101   6.679  0.0075  0.1369 -0.1942
 1213ERGO    C216704   4.784  11.141   7.032 -0.2483 -0.0185  0.4971
 1214ERGO   ROH16705   2.918  16.368   6.312 -0.0452  0.0542  0.0221
 1214ERGO    R116706   3.099  16.395   6.527 -0.0617  0.1215  0.0270
 1214ERGO    R216707   3.181  16.641   6.623 -0.1117  0.1501 -0.0099
 1214ERGO    R316708   3.094  16.541   6.861 -0.1041  0.1744  0.0039
 1214ERGO    R416709   3.324  16.707   6.931 -0.1866  0.2990 -0.0056
 1214ERGO    R516710   3.294  16.498   6.985 -0.1016  0.2975  0.0461
 1214ERGO    C116711   3.326  16.652   7.332 -0.2231  0.4084  0.0098
 1214ERGO    C216712   3.642  16.803   7.537  0.3446 -0.1585 -0.1813
 1215ERGO   ROH16713  11.436   6.483   9.484 -0.1306  0.0183  0.0224
 1215ERGO    R116714  11.442   6.502   9.201 -0.0788  0.0447  0.0247
 1215ERGO    R216715  11.674   6.472   9.055 -0.0695 -0.0497  0.0560
 1215ERGO    R316716  11.528   6.284   8.923 -0.1388  0.0321  0.0162
 1215ERGO    R416717  11.722   6.380   8.725 -0.1648  0.0681  0.0089
 1215ERGO    R516718  11.506   6.372   8.701 -0.1718  0.1227  0.0554
 1215ERGO    C116719  11.614   6.151   8.409 -0.2853  0.2134 -0.0558
 1215ERGO    C216720  11.618   5.934   8.119 -0.2845  0.1760  0.1304
 1216ERGO   ROH16721   0.211   9.645   5.990 -0.0077  0.0872  0.1085
 1216ERGO    R116722   0.041   9.681   6.213  0.0118  0.2190  0.1042
 1216ERGO    R216723  -0.056   9.470   6.363 -0.2803  0.2786  0.0128
 1216ERGO    R316724   0.053   9.608   6.570 -0.1191  0.0593  0.0765
 1216ERGO    R416725  -0.141   9.426   6.695 -0.3838  0.2727 -0.0155
 1216ERGO    R516726  -0.131   9.643   6.720 -0.0944  0.2522  0.0630
 1216ERGO    C116727  -0.089   9.531   7.083 -0.2928  0.0634  0.0278
 1216ERGO    C216728  -0.056   9.323   7.457 -0.0636 -0.1933 -0.0190
 1217ERGO   ROH16729  11.808  10.790   5.494 -0.4730  0.2727  0.1356
 1217ERGO    R116730  11.793  10.627   5.725 -0.2947  0.1491  0.0620
 1217ERGO    R216731  12.011  10.487   5.824 -0.1616  0.2706 -0.0534
 1217ERGO    R316732  11.951  10.619   6.053 -0.2151  0.1154  0.0227
 1217ERGO    R416733  12.074  10.369   6.142 -0.0242  0.1618 -0.1199
 1217ERGO    R516734  11.881  10.447   6.204 -0.0676 -0.0059 -0.0475
 1217ERGO    C116735  12.054  10.423   6.543  0.0056 -0.0473 -0.0871
 1217ERGO    C216736  12.175  10.297   6.823  0.0957 -0.0957  0.1009
 1218ERGO   ROH16737   0.940  16.485   5.948 -0.1123  0.0818 -0.0389
 1218ERGO    R116738   0.946  16.438   6.227 -0.1987  0.0038 -0.0497
 1218ERGO    R216739   0.719  16.378   6.373 -0.2444 -0.0371 -0.1362
 1218ERGO    R316740   0.865  16.162   6.450 -0.2684 -0.0587 -0.1514
 1218ERGO    R416741   0.692  16.219   6.679 -0.2460 -0.0422 -0.1391
 1218ERGO    R516742   0.909  16.199   6.682 -0.2487 -0.0713 -0.1533
 1218ERGO    C116743   0.813  15.925   6.929 -0.2694 -0.0656 -0.1551
 1218ERGO    C216744   0.714  15.590   6.980  0.1579 -0.0306  0.0712
 1219ERGO   ROH16745   0.207   2.607   6.607 -0.1595 -0.0220  0.1199
 1219ERGO    R116746   0.273   2.789   6.813 -0.1674 -0.0235  0.1235
 1219ERGO    R216747   0.318   3.057   6.766 -0.0595 -0.0454  0.1114
 1219ERGO    R316748   0.127   3.090   6.956 -0.1125  0.0419  0.0441
 1219ERGO    R416749   0.323   3.303   7.008 -0.0509 -0.0181  0.0839
 1219ERGO    R516750   0.250   3.156   7.152 -0.1512  0.0211  0.0777
 1219ERGO    C116751   0.146   3.478   7.329 -0.0956  0.0797  0.0046
 1219ERGO    C216752   0.247   3.828   7.437  0.2439  0.2787  0.4959
 1220ERGO   ROH16753  13.726  10.445   5.447  0.1811  0.0042 -0.1300
 1220ERGO    R116754  13.669  10.599   5.678  0.1793 -0.0431 -0.1000
 1220ERGO    R216755  13.424  10.591   5.806  0.1612 -0.0218 -0.1435
 1220ERGO    R316756  13.577  10.533   6.024  0.1104 -0.1084 -0.1293
 1220ERGO    R416757  13.350  10.686   6.130 -0.0194 -0.3044 -0.0972
 1220ERGO    R516758  13.562  10.729   6.160 -0.0478 -0.2138  0.0153
 1220ERGO    C116759  13.450  10.687   6.523 -0.1721 -0.5503 -0.0568
 1220ERGO    C216760  13.316  10.769   6.738  0.1785  0.1616  0.0626
 1221ERGO   ROH16761   0.994  18.538   6.315  0.1004  0.0597  0.1021
 1221ERGO    R116762   1.132  18.428   6.536  0.0424  0.0170  0.1182
 1221ERGO    R216763   1.186  18.574   6.765  0.0305 -0.0100  0.1410
 1221ERGO    R316764   1.061  18.367   6.888 -0.0308  0.0038  0.1007
 1221ERGO    R416765   1.269  18.449   7.076  0.1338 -0.2357  0.0242
 1221ERGO    R516766   1.236  18.248   6.999 -0.0419 -0.1720 -0.0672
 1221ERGO    C116767   1.200  18.181   7.373  0.1363 -0.3542 -0.0817
 1221ERGO    C216768   1.160  18.141   7.727  0.0567 -0.1069  0.0477
 1222ERGO   ROH16769  14.704  12.335   5.173 -0.1910 -0.1033 -0.0587
 1222ERGO    R116770  14.800  12.349   5.439 -0.1084 -0.0582 -0.0907
 1222ERGO    R216771  14.674  12.497   5.636 -0.0443 -0.0205 -0.0775
 1222ERGO    R316772  14.677  12.260   5.769 -0.0083  0.0031 -0.0364
 1222ERGO    R416773  14.619  12.460   5.975 -0.1613  0.0172 -0.0918
 1222ERGO    R516774  14.778  12.312   5.980 -0.1080  0.0762 -0.0057
 1222ERGO    C116775  14.591  12.217   6.298 -0.1957  0.0610 -0.0615
 1222ERGO    C216776  14.717  12.233   6.650 -0.1430  0.3894 -0.1890
 1223ERGO   ROH16777  16.179  14.686   5.312 -0.0977 -0.2175 -0.1843
 1223ERGO    R116778  16.120  14.661   5.588 -0.1260 -0.1667 -0.1861
 1223ERGO    R216779  16.163  14.426   5.729  0.0854 -0.0683 -0.0853
 1223ERGO    R316780  16.307  14.589   5.893 -0.1108  0.1440 -0.1187
 1223ERGO    R416781  16.340  14.321   6.006  0.1895  0.2085 -0.0427
 1223ERGO    R516782  16.271  14.499   6.112 -0.0235  0.1616 -0.0960
 1223ERGO    C116783  16.577  14.413   6.322  0.0661  0.5690 -0.0493
 1223ERGO    C216784  16.844  14.592   6.490 -0.3435  0.1562  0.3492
 1224ERGO   ROH16785  10.280  12.400   5.426 -0.1635 -0.0807 -0.0320
 1224ERGO    R116786  10.271  12.178   5.601 -0.1424 -0.0962 -0.0506
 1224ERGO    R216787  10.267  12.205   5.876 -0.1209 -0.1203 -0.0478
 1224ERGO    R316788  10.043  12.051   5.856 -0.1179 -0.1254 -0.0433
 1224ERGO    R416789  10.096  12.067   6.144 -0.0661 -0.1912 -0.0489
 1224ERGO    R516790  10.069  11.885   6.027 -0.0792 -0.1648 -0.0870
 1224ERGO    C116791   9.787  11.843   6.280 -0.0313 -0.2374 -0.0452
 1224ERGO    C216792   9.647  11.750   6.568 -0.0489 -0.1292 -0.0769
 1225ERGO   ROH16793   7.514   7.688   8.587 -0.3459  0.1788  0.0512
 1225ERGO    R116794   7.364   7.605   8.362 -0.1802  0.0555 -0.0154
 1225ERGO    R216795   7.482   7.519   8.128 -0.0062  0.1330  0.0434
 1225ERGO    R316796   7.326   7.300   8.167  0.1382  0.0165 -0.0212
 1225ERGO    R416797   7.387   7.297   7.880  0.1751  0.1183 -0.0149
 1225ERGO    R516798   7.189   7.289   7.971  0.1687 -0.0365 -0.0401
 1225ERGO    C116799   7.185   6.963   7.772  0.4161  0.0003 -0.1094
 1225ERGO    C216800   7.047   6.753   7.556 -0.4055 -0.1382 -0.0915
 1226ERGO   ROH16801  11.511  18.068   5.405  0.0070  0.0631  0.1357
 1226ERGO    R116802  11.387  17.990   5.647  0.0957 -0.0031  0.1621
 1226ERGO    R216803  11.524  17.978   5.887  0.1664  0.0103  0.1295
 1226ERGO    R316804  11.324  18.142   5.972  0.1400 -0.0580  0.1948
 1226ERGO    R416805  11.382  17.972   6.203  0.1999 -0.1003  0.1411
 1226ERGO    R516806  11.188  18.003   6.111  0.1867 -0.1202  0.1729
 1226ERGO    C116807  11.113  18.122   6.465  0.1948 -0.2288  0.2092
 1226ERGO    C216808  11.051  18.002   6.771  0.1912  0.2616 -0.2382
 1227ERGO   ROH16809   3.303   2.877   6.166  0.2661  0.0143  0.0602
 1227ERGO    R116810   3.352   3.093   6.342  0.1065 -0.0428  0.1771
 1227ERGO    R216811   3.173   3.301   6.374  0.1284  0.0083 -0.0089
 1227ERGO    R316812   3.192   3.235   6.637 -0.2387 -0.0627  0.0049
 1227ERGO    R416813   3.257   3.521   6.627  0.2459 -0.1621  0.1019
 1227ERGO    R516814   3.378   3.363   6.717 -0.0992 -0.3783  0.2041
 1227ERGO    C116815   3.323   3.586   7.022 -0.0302 -0.3279  0.1795
 1227ERGO    C216816   3.335   3.883   7.243  0.2417 -0.1014 -0.0087
 1228ERGO   ROH16817  14.377   5.170   5.788  0.0173  0.0765 -0.0331
 1228ERGO    R116818  14.344   5.406   5.942 -0.0196 -0.0482  0.1539
 1228ERGO    R216819  14.254   5.402   6.203  0.0808 -0.2766  0.1877
 1228ERGO    R316820  14.482   5.543   6.250  0.0428 -0.2200  0.2033
 1228ERGO    R416821  14.345   5.534   6.509 -0.0629 -0.0925  0.1527
 1228ERGO    R516822  14.416   5.712   6.405 -0.0443 -0.1408  0.0817
 1228ERGO    C116823  14.611   5.742   6.732 -0.1824  0.0679  0.1471
 1228ERGO    C216824  14.533   5.974   6.954  0.0662  0.1633 -0.0092
 1229ERGO   ROH16825  14.890   2.912   5.774  0.1012  0.1416  0.0893
 1229ERGO    R116826  14.900   2.970   6.050 -0.1683  0.4040  0.0492
 1229ERGO    R216827  14.689   3.088   6.185 -0.6115 -0.1509 -0.1142
 1229ERGO    R316828  14.715   2.872   6.348  0.0401  0.0388  0.0640
 1229ERGO    R416829  14.536   3.054   6.493 -0.3875 -0.3003 -0.0174
 1229ERGO    R516830  14.720   2.965   6.569 -0.1019  0.2464 -0.0169
 1229ERGO    C116831  14.471   2.831   6.826  0.3547 -0.2092  0.2062
 1229ERGO    C216832  14.111   2.811   6.986 -0.0243  0.0577 -0.0642
 1230ERGO   ROH16833  17.324   2.755   5.971 -0.0659  0.1088 -0.0821
 1230ERGO    R116834  17.403   2.828   6.233 -0.0479  0.1874 -0.1101
 1230ERGO    R216835  17.261   3.011   6.385 -0.1375  0.0956 -0.0903
 1230ERGO    R316836  17.259   2.810   6.567  0.0583  0.1120 -0.0670
 1230ERGO    R416837  17.220   3.054   6.725 -0.4635  0.0862 -0.1246
 1230ERGO    R516838  17.373   2.901   6.757 -0.2275  0.3338  0.0081
 1230ERGO    C116839  17.195   2.890   7.095 -0.4693  0.0960 -0.1227
 1230ERGO    C216840  17.365   2.811   7.455  0.2643  0.0727 -0.1134
 1231ERGO   ROH16841   7.460   2.704   9.595  0.2380  0.0082 -0.0697
 1231ERGO    R116842   7.523   2.559   9.360  0.1114 -0.0718 -0.0569
 1231ERGO    R216843   7.374   2.342   9.274  0.0311 -0.0741  0.0645
 1231ERGO    R316844   7.359   2.484   9.044 -0.0402 -0.1303  0.0364
 1231ERGO    R416845   7.249   2.222   8.975 -0.2286 -0.0801  0.1749
 1231ERGO    R516846   7.409   2.326   8.872 -0.2421 -0.1992  0.0443
 1231ERGO    C116847   7.161   2.287   8.585 -0.4467 -0.1363  0.2128
 1231ERGO    C216848   7.163   2.243   8.152  0.3102 -0.0821  0.1845
 1232ERGO   ROH16849   7.067   2.360   5.926  0.1014  0.2196 -0.0263
 1232ERGO    R116850   7.107   2.363   6.206  0.0848  0.1354 -0.0227
 1232ERGO    R216851   7.347   2.436   6.321  0.1193 -0.0279  0.0096
 1232ERGO    R316852   7.191   2.612   6.458  0.2114  0.0323  0.0380
 1232ERGO    R416853   7.309   2.439   6.665  0.2222  0.0167  0.0212
 1232ERGO    R516854   7.097   2.481   6.635  0.2248  0.0767  0.0791
 1232ERGO    C116855   7.140   2.606   6.993  0.3686  0.0992  0.0545
 1232ERGO    C216856   7.294   2.617   7.298  0.1031 -0.0085  0.0942
 1233ERGO   ROH16857  16.816  16.736   8.897 -0.0226 -0.4159  0.2166
 1233ERGO    R116858  16.935  16.603   8.678  0.1156 -0.0669  0.0736
 1233ERGO    R216859  16.805  16.406   8.535  0.4129 -0.2400  0.0467
 1233ERGO    R316860  16.867  16.564   8.322 -0.0089 -0.0026  0.0876
 1233ERGO    R416861  16.759  16.317   8.204  0.4829 -0.2194  0.0306
 1233ERGO    R516862  16.951  16.411   8.158  0.2770  0.2337 -0.0043
 1233ERGO    C116863  16.791  16.414   7.812  0.1279  0.0154  0.0596
 1233ERGO    C216864  16.739  16.243   7.630  0.0560 -0.0195  0.3899
 1234ERGO   ROH16865   3.127  12.750   9.191  0.0061  0.0076  0.0451
 1234ERGO    R116866   3.136  12.890   8.945 -0.1546 -0.0486  0.0057
 1234ERGO    R216867   3.363  12.901   8.788 -0.1638  0.1660 -0.0002
 1234ERGO    R316868   3.195  12.807   8.596 -0.0626 -0.0804  0.0297
 1234ERGO    R416869   3.452  12.840   8.459 -0.1008  0.1439  0.0212
 1234ERGO    R516870   3.261  12.923   8.397 -0.1870 -0.0823 -0.0098
 1234ERGO    C116871   3.346  12.716   8.088  0.0309 -0.1004  0.0619
 1234ERGO    C216872   3.231  12.460   7.777  0.0161  0.1760  0.0825
 1235ERGO   ROH16873  11.090   5.134   6.196 -0.0207 -0.0111 -0.0999
 1235ERGO    R116874  11.278   5.202   6.396 -0.0478 -0.0422 -0.0634
 1235ERGO    R216875  11.312   5.051   6.625 -0.0809 -0.0772 -0.0787
 1235ERGO    R316876  11.572   5.048   6.545 -0.0711 -0.0682 -0.0461
 1235ERGO    R416877  11.580   5.145   6.822 -0.1225  0.1207 -0.1150
 1235ERGO    R516878  11.668   5.242   6.647 -0.1275  0.0226 -0.1688
 1235ERGO    C116879  11.980   5.197   6.862 -0.1377  0.2445 -0.1055
 1235ERGO    C216880  12.280   4.968   7.059  0.1979  0.0261  0.0643
 1236ERGO   ROH16881  16.235   5.920   6.367 -0.2161  0.3122 -0.2337
 1236ERGO    R116882  16.244   5.909   6.650 -0.0714  0.1143 -0.2437
 1236ERGO    R216883  16.226   6.135   6.808  0.1149  0.0160 -0.0774
 1236ERGO    R316884  16.023   5.997   6.925  0.1135  0.0286 -0.0649
 1236ERGO    R416885  16.024   6.257   7.061  0.1043  0.0494 -0.1021
 1236ERGO    R516886  16.033   6.061   7.156  0.1048  0.0626 -0.0734
 1236ERGO    C116887  15.717   6.200   7.318  0.0967  0.0809 -0.1048
 1236ERGO    C216888  15.421   6.197   7.374  0.5457  0.2931  0.0969
 1237ERGO   ROH16889  13.356  14.303   8.432 -0.0667 -0.0147  0.0487
 1237ERGO    R116890  13.157  14.412   8.262 -0.0766 -0.0758  0.0215
 1237ERGO    R216891  13.175  14.666   8.157 -0.0956 -0.1066 -0.0490
 1237ERGO    R316892  13.140  14.536   7.921 -0.0928 -0.1721 -0.0139
 1237ERGO    R416893  13.035  14.806   7.873 -0.1842 -0.2080 -0.0564
 1237ERGO    R516894  12.930  14.618   7.838 -0.1340 -0.2518  0.0027
 1237ERGO    C116895  12.921  14.765   7.486 -0.2332 -0.3286 -0.0276
 1237ERGO    C216896  12.783  14.888   7.210  0.0087  0.1963 -0.0222
 1238ERGO   ROH16897   7.883  16.682   5.730  0.2379 -0.3234  0.0812
 1238ERGO    R116898   7.713  16.693   5.955  0.1141 -0.1165 -0.0196
 1238ERGO    R216899   7.536  16.490   6.018  0.0959 -0.0702  0.0823
 1238ERGO    R316900   7.662  16.499   6.259 -0.0345  0.1727  0.1454
 1238ERGO    R416901   7.391  16.404   6.320  0.0262 -0.0793  0.0461
 1238ERGO    R516902   7.494  16.574   6.412 -0.1943  0.0716  0.0232
 1238ERGO    C116903   7.426  16.362   6.722 -0.1370  0.1434  0.0843
 1238ERGO    C216904   7.517  16.067   6.919  0.0514 -0.0364  0.2381
 1239ERGO   ROH16905   5.458   8.651   6.106 -0.2367  0.0322  0.1251
 1239ERGO    R116906   5.272   8.640   6.318 -0.1380  0.0303  0.2102
 1239ERGO    R216907   5.292   8.457   6.524 -0.0742 -0.0035  0.1637
 1239ERGO    R316908   5.281   8.680   6.680  0.0334 -0.0327  0.2164
 1239ERGO    R416909   5.221   8.458   6.862 -0.4181 -0.0394  0.0954
 1239ERGO    R516910   5.100   8.637   6.831 -0.1819  0.1234  0.0214
 1239ERGO    C116911   5.168   8.667   7.206 -0.5174 -0.0877  0.1051
 1239ERGO    C216912   5.290   8.591   7.609  0.0076 -0.0689  0.1126
 1240ERGO   ROH16913   0.520  10.972   5.518 -0.1729  0.2253 -0.0086
 1240ERGO    R116914   0.554  10.889   5.787 -0.3829  0.3640  0.0623
 1240ERGO    R216915   0.802  10.830   5.894 -0.5225 -0.1968  0.0944
 1240ERGO    R316916   0.729  11.013   6.081 -0.0421  0.1718 -0.0530
 1240ERGO    R416917   0.934  10.849   6.212 -0.6646 -0.4780  0.1747
 1240ERGO    R516918   0.733  10.891   6.287 -0.5994  0.2475  0.0210
 1240ERGO    C116919   0.942  11.031   6.574 -0.2964 -0.2958  0.0831
 1240ERGO    C216920   0.959  11.102   7.001  0.3924  0.2094  0.2606
 1241ERGO   ROH16921   7.344  13.827   5.329 -0.0776 -0.2169  0.2125
 1241ERGO    R116922   7.518  13.836   5.552 -0.0345 -0.3254  0.1843
 1241ERGO    R216923   7.552  14.063   5.705  0.3491 -0.2525  0.0078
 1241ERGO    R316924   7.487  13.895   5.910  0.0979  0.0022  0.1439
 1241ERGO    R416925   7.695  14.071   6.020  0.2621 -0.1326  0.0450
 1241ERGO    R516926   7.696  13.853   6.019  0.0167 -0.1362  0.2442
 1241ERGO    C116927   7.718  13.918   6.394 -0.0245  0.1763  0.1945
 1241ERGO    C216928   7.882  13.861   6.684 -0.1569  0.0850  0.0991
 1242ERGO   ROH16929  19.273   4.676   6.331  0.0720  0.0708 -0.1898
 1242ERGO    R116930  19.320   4.891   6.509  0.0424  0.0083 -0.1031
 1242ERGO    R216931  19.440   4.857   6.755 -0.1466 -0.1062 -0.0130
 1242ERGO    R316932  19.610   5.048   6.663  0.0070 -0.1685  0.1414
 1242ERGO    R416933  19.641   5.055   6.955 -0.2358 -0.1794  0.1490
 1242ERGO    R516934  19.594   5.224   6.825 -0.0557 -0.1668  0.1201
 1242ERGO    C116935  19.917   5.350   6.985 -0.1437 -0.2805  0.3882
 1242ERGO    C216936  20.204   5.416   7.165  0.1127  0.0657 -0.1227
 1243ERGO   ROH16937  12.083  11.593   5.288  0.0847 -0.2483 -0.2575
 1243ERGO    R116938  12.049  11.474   5.542  0.1606  0.1155 -0.0702
 1243ERGO    R216939  12.018  11.201   5.576 -0.3135  0.2022  0.2862
 1243ERGO    R316940  12.228  11.230   5.746 -0.0467  0.0190 -0.0006
 1243ERGO    R416941  12.122  10.963   5.803 -0.2458  0.1335  0.1843
 1243ERGO    R516942  12.156  11.122   5.947  0.1145  0.1262  0.1169
 1243ERGO    C116943  12.380  10.851   6.095  0.0439 -0.0786 -0.1442
 1243ERGO    C216944  12.498  10.639   6.302 -0.0439 -0.0641  0.3429
 1244ERGO   ROH16945  15.861  19.244   5.551 -0.0568  0.0346 -0.0542
 1244ERGO    R116946  15.670  19.197   5.755 -0.1286  0.0357 -0.1212
 1244ERGO    R216947  15.739  19.101   6.005 -0.2313 -0.0788 -0.1372
 1244ERGO    R316948  15.605  19.322   6.090 -0.1700 -0.0579 -0.0935
 1244ERGO    R416949  15.705  19.196   6.335 -0.0799 -0.0577 -0.1267
 1244ERGO    R516950  15.499  19.252   6.293 -0.0931 -0.0359 -0.0437
 1244ERGO    C116951  15.559  19.458   6.608  0.0657 -0.0262 -0.0795
 1244ERGO    C216952  15.585  19.598   6.860 -0.3817  0.3708  0.2437
 1245ERGO   ROH16953  13.596   7.046   5.883  0.0431 -0.1215  0.0798
 1245ERGO    R116954  13.597   6.803   6.028  0.0952 -0.1873 -0.0286
 1245ERGO    R216955  13.780   6.602   5.980  0.2132 -0.0807 -0.0409
 1245ERGO    R316956  13.829   6.626   6.246  0.0860 -0.1745 -0.0085
 1245ERGO    R416957  13.903   6.350   6.182 -0.0268 -0.1987 -0.0393
 1245ERGO    R516958  13.765   6.415   6.338 -0.0753 -0.1652 -0.0957
 1245ERGO    C116959  14.021   6.227   6.550 -0.2860 -0.3555 -0.0080
 1245ERGO    C216960  13.976   6.159   6.872 -0.2634  0.1592 -0.3771
 1246ERGO   ROH16961  12.891  16.194   5.298  0.0265 -0.1703 -0.1022
 1246ERGO    R116962  12.935  16.106   5.563 -0.0020 -0.0625 -0.0616
 1246ERGO    R216963  13.176  16.143   5.694  0.0331 -0.1441 -0.1062
 1246ERGO    R316964  13.019  16.260   5.882  0.1243  0.0491 -0.1468
 1246ERGO    R416965  13.246  16.153   6.032  0.0168 -0.1288 -0.1031
 1246ERGO    R516966  13.035  16.116   6.072 -0.0248  0.0762 -0.1105
 1246ERGO    C116967  13.138  16.269   6.406  0.0930  0.0615 -0.1392
 1246ERGO    C216968  12.874  16.471   6.699 -0.0670  0.1393  0.0389
 1247ERGO   ROH16969   2.480   7.859   5.758  0.1383  0.3368  0.0550
 1247ERGO    R116970   2.476   8.027   5.986  0.2964  0.4369 -0.0151
 1247ERGO    R216971   2.421   7.933   6.240 -0.1882  0.6537 -0.0298
 1247ERGO    R316972   2.659   8.050   6.300  0.0395  0.1263  0.1639
 1247ERGO    R416973   2.527   8.015   6.559 -0.2795  0.4438  0.0566
 1247ERGO    R516974   2.608   8.200   6.479  0.2162  0.2645  0.1027
 1247ERGO    C116975   2.812   8.173   6.800 -0.1189 -0.1735  0.2887
 1247ERGO    C216976   3.119   8.060   6.975  0.1804 -0.2754 -0.1568
 1248ERGO   ROH16977  18.503   5.499   6.110 -0.0735 -0.2013  0.2392
 1248ERGO    R116978  18.568   5.453   6.382  0.0256 -0.0763  0.2383
 1248ERGO    R216979  18.802   5.546   6.496  0.0809 -0.0397  0.1083
 1248ERGO    R316980  18.631   5.657   6.676  0.1549  0.0626  0.1141
 1248ERGO    R416981  18.898   5.739   6.766  0.2140 -0.2724  0.2291
 1248ERGO    R516982  18.746   5.639   6.886  0.0738 -0.1610  0.1369
 1248ERGO    C116983  18.795   5.956   7.093  0.3611 -0.3120  0.3048
 1248ERGO    C216984  18.984   6.195   7.283  0.0197 -0.1058  0.1292
 1249ERGO   ROH16985   5.809   2.464   5.973  0.0718  0.0573 -0.1271
 1249ERGO    R116986   5.681   2.585   6.194  0.0873  0.0115 -0.0940
 1249ERGO    R216987   5.623   2.447   6.426  0.0972 -0.0364 -0.1258
 1249ERGO    R316988   5.762   2.650   6.543  0.1048 -0.0654 -0.0819
 1249ERGO    R416989   5.627   2.515   6.765 -0.1395  0.0571 -0.1391
 1249ERGO    R516990   5.618   2.727   6.718 -0.0031  0.0538 -0.2142
 1249ERGO    C116991   5.760   2.744   7.072 -0.2702  0.0843 -0.1056
 1249ERGO    C216992   5.829   2.912   7.399 -0.0955  0.0665  0.0295
 1250ERGO   ROH16993   4.184  14.438   6.173  0.1340  0.0519  0.0957
 1250ERGO    R116994   4.041  14.220   6.284  0.1091  0.0419  0.0438
 1250ERGO    R216995   4.164  14.020   6.428  0.0829  0.0054  0.0130
 1250ERGO    R316996   3.980  14.086   6.617  0.0747 -0.0184  0.0138
 1250ERGO    R416997   4.089  13.828   6.706  0.1432  0.0160  0.0373
 1250ERGO    R516998   3.878  13.877   6.676  0.1285 -0.0383  0.0408
 1250ERGO    C116999   3.872  13.779   7.044  0.1708  0.0000  0.0522
 1250ERGO    C217000   3.870  13.525   7.319 -0.3873  0.0372  0.1606
 1251ERGO   ROH17001  16.110  10.723   7.354  0.1568  0.2266  0.2398
 1251ERGO    R117002  15.896  10.620   7.508  0.0744  0.1652  0.0886
 1251ERGO    R217003  15.936  10.466   7.734 -0.0448  0.0640  0.0513
 1251ERGO    R317004  15.777  10.652   7.850 -0.0937  0.0250  0.0421
 1251ERGO    R417005  15.842  10.468   8.067 -0.0826  0.0456  0.0392
 1251ERGO    R517006  15.643  10.529   8.005 -0.0820  0.0031  0.0252
 1251ERGO    C117007  15.637  10.644   8.369 -0.1505 -0.0019  0.0236
 1251ERGO    C217008  15.678  10.796   8.593  0.4720 -0.0589 -0.0878
 1252ERGO   ROH17009  18.415  17.685   5.899  0.1257 -0.0239  0.0329
 1252ERGO    R117010  18.448  17.759   6.170 -0.0913  0.0072  0.0532
 1252ERGO    R217011  18.239  17.765   6.349 -0.1821 -0.2821 -0.0370
 1252ERGO    R317012  18.401  17.603   6.495 -0.0260 -0.0771  0.0223
 1252ERGO    R417013  18.249  17.754   6.695 -0.0135  0.0051 -0.0302
 1252ERGO    R517014  18.466  17.736   6.683 -0.0086  0.1125 -0.1160
 1252ERGO    C117015  18.407  17.595   7.032  0.2314  0.3648  0.0294
 1252ERGO    C217016  18.471  17.538   7.390  0.0874  0.0156 -0.0920
 1253ERGO   ROH17017   7.835   3.155   5.867 -0.1504 -0.1960 -0.0735
 1253ERGO    R117018   7.900   3.233   6.131  0.0103 -0.1711 -0.1211
 1253ERGO    R217019   8.161   3.266   6.216  0.0546 -0.0046 -0.3313
 1253ERGO    R317020   8.072   3.512   6.289 -0.0474 -0.0669 -0.2376
 1253ERGO    R417021   8.316   3.472   6.446  0.0251  0.0050 -0.3181
 1253ERGO    R517022   8.119   3.525   6.524  0.0160 -0.1124 -0.2439
 1253ERGO    C117023   8.322   3.823   6.649 -0.0877 -0.0479 -0.2225
 1253ERGO    C217024   8.594   3.896   6.801  0.3315 -0.1049 -0.1379
 1254ERGO   ROH17025   6.270   0.745   5.821 -0.0630  0.1723 -0.0667
 1254ERGO    R117026   6.352   0.871   6.061 -0.1713  0.2557 -0.0735
 1254ERGO    R217027   6.178   0.917   6.271 -0.1848  0.0081 -0.0311
 1254ERGO    R317028   6.367   0.783   6.414  0.0255  0.2394 -0.0840
 1254ERGO    R417029   6.194   0.907   6.616 -0.2994 -0.2567 -0.0306
 1254ERGO    R517030   6.411   0.925   6.602 -0.3167  0.1726  0.0579
 1254ERGO    C117031   6.380   0.776   6.952 -0.1688 -0.1939 -0.0800
 1254ERGO    C217032   6.380   0.628   7.218 -0.3543  0.2749 -0.2432
 1255ERGO   ROH17033   1.855   3.388   6.070  0.0605  0.3690  0.0458
 1255ERGO    R117034   1.944   3.464   6.328 -0.0588  0.1507  0.1523
 1255ERGO    R217035   1.884   3.317   6.554  0.0012 -0.1507 -0.0261
 1255ERGO    R317036   2.154   3.319   6.588 -0.0062  0.0231  0.0419
 1255ERGO    R417037   2.046   3.410   6.845 -0.1407 -0.1783  0.0641
 1255ERGO    R517038   2.195   3.512   6.724 -0.1788 -0.0103  0.1499
 1255ERGO    C117039   2.394   3.465   7.046 -0.2302 -0.0312  0.1805
 1255ERGO    C217040   2.484   3.418   7.483  0.0106 -0.0579  0.0225
 1256ERGO   ROH17041  14.023   9.859   9.136  0.1714 -0.1042  0.1011
 1256ERGO    R117042  14.025   9.779   8.864  0.1332 -0.1523  0.1133
 1256ERGO    R217043  13.823   9.846   8.688  0.1187 -0.1551  0.1161
 1256ERGO    R317044  14.029   9.944   8.540  0.1205 -0.2052  0.0887
 1256ERGO    R417045  13.836   9.848   8.342  0.0229 -0.0244  0.1137
 1256ERGO    R517046  14.046   9.794   8.355 -0.0086 -0.1346  0.0266
 1256ERGO    C117047  14.037   9.940   8.003 -0.0311  0.0045  0.0866
 1256ERGO    C217048  13.973   9.934   7.615  0.0860  0.2404  0.2409
 1257ERGO   ROH17049   9.871   5.897   5.586 -0.1786 -0.1173  0.0319
 1257ERGO    R117050   9.802   6.093   5.778 -0.2817 -0.1463  0.0249
 1257ERGO    R217051   9.652   6.035   6.003 -0.2281 -0.2235  0.0385
 1257ERGO    R317052   9.863   6.148   6.133 -0.2863 -0.0863  0.0174
 1257ERGO    R417053   9.683   6.060   6.347 -0.1244 -0.3844  0.0417
 1257ERGO    R517054   9.764   6.260   6.320 -0.3297 -0.2844  0.1182
 1257ERGO    C117055   9.899   6.180   6.668 -0.1185 -0.3493  0.0238
 1257ERGO    C217056   9.891   6.181   6.981 -0.0180 -0.0306 -0.4445
 1258ERGO   ROH17057   4.842   9.630   6.013  0.2492  0.0020 -0.0799
 1258ERGO    R117058   5.098   9.682   6.122  0.1411  0.1805  0.0985
 1258ERGO    R217059   5.134   9.811   6.363 -0.1210 -0.0049  0.2471
 1258ERGO    R317060   5.281   9.591   6.422  0.0844  0.0933  0.1054
 1258ERGO    R417061   5.378   9.797   6.607  0.0074  0.1028  0.1252
 1258ERGO    R517062   5.499   9.677   6.472  0.0386  0.2466  0.0312
 1258ERGO    C117063   5.659   9.581   6.805  0.2751  0.2577 -0.0787
 1258ERGO    C217064   5.688   9.719   7.095 -0.3911  0.0555  0.3584
 1259ERGO   ROH17065  16.268  11.702   5.755  0.0959  0.2117  0.1337
 1259ERGO    R117066  16.025  11.601   5.860  0.1143  0.1257  0.0933
 1259ERGO    R217067  16.017  11.423   6.071  0.1419  0.1339  0.0991
 1259ERGO    R317068  15.851  11.610   6.180  0.0499  0.0757  0.0607
 1259ERGO    R417069  15.808  11.369   6.341  0.1440  0.0723  0.0887
 1259ERGO    R517070  15.655  11.487   6.240  0.0983 -0.0068  0.0592
 1259ERGO    C117071  15.531  11.513   6.600  0.0588 -0.0182  0.0466
 1259ERGO    C217072  15.330  11.412   6.795 -0.1484 -0.0655 -0.0001
 1260ERGO   ROH17073   7.327   1.202   5.579 -0.2482  0.2015 -0.0074
 1260ERGO    R117074   7.424   1.113   5.830 -0.1647  0.1400 -0.0606
 1260ERGO    R217075   7.257   1.019   6.029 -0.1106  0.2003  0.0142
 1260ERGO    R317076   7.422   0.802   6.020 -0.2108  0.1268 -0.0827
 1260ERGO    R417077   7.298   0.791   6.286  0.0347  0.2543  0.0398
 1260ERGO    R517078   7.512   0.787   6.241 -0.0069  0.1505 -0.1620
 1260ERGO    C117079   7.477   0.456   6.427  0.0252  0.2168 -0.0364
 1260ERGO    C217080   7.598   0.244   6.778 -0.2679 -0.3840  0.1210
 1261ERGO   ROH17081  10.290   7.414   5.547  0.0746 -0.1707 -0.1111
 1261ERGO    R117082  10.334   7.295   5.800 -0.0998 -0.1197 -0.0566
 1261ERGO    R217083  10.496   7.410   5.993 -0.0284 -0.2148 -0.0657
 1261ERGO    R317084  10.275   7.384   6.148 -0.0826  0.0664 -0.1017
 1261ERGO    R417085  10.470   7.520   6.319  0.0842 -0.2307 -0.0497
 1261ERGO    R517086  10.361   7.338   6.367 -0.1739 -0.0879 -0.0976
 1261ERGO    C117087  10.247   7.561   6.655  0.0989  0.0240 -0.0742
 1261ERGO    C217088  10.105   7.870   6.797  0.0730 -0.0653 -0.3032
 1262ERGO   ROH17089   0.367  11.998   5.543  0.2977 -0.0245  0.0876
 1262ERGO    R117090   0.290  12.029   5.814  0.3507  0.2671  0.0718
 1262ERGO    R217091   0.276  11.817   5.990 -0.2048  0.3484  0.1439
 1262ERGO    R317092   0.441  11.974   6.140  0.1910 -0.0093  0.1019
 1262ERGO    R417093   0.287  11.819   6.336 -0.2441  0.4489  0.1451
 1262ERGO    R517094   0.308  12.036   6.329  0.3175  0.4083  0.0650
 1262ERGO    C117095   0.448  11.966   6.678  0.1045  0.1718  0.1065
 1262ERGO    C217096   0.351  12.156   7.047 -0.0175  0.1960 -0.3235
 1263ERGO   ROH17097   5.952  18.538   9.100  0.0603 -0.2872  0.0798
 1263ERGO    R117098   5.880  18.373   8.881 -0.1975 -0.1411  0.0492
 1263ERGO    R217099   5.667  18.431   8.715 -0.0288  0.3024 -0.0352
 1263ERGO    R317100   5.855  18.409   8.520  0.0126 -0.0749  0.0414
 1263ERGO    R417101   5.599  18.374   8.381  0.0335  0.0153 -0.0009
 1263ERGO    R517102   5.770  18.238   8.374 -0.0913 -0.1476  0.1918
 1263ERGO    C117103   5.736  18.320   8.003  0.1086 -0.5060  0.0910
 1263ERGO    C217104   5.813  18.334   7.709  0.1966 -0.0305 -0.2314
 1264ERGO   ROH17105   7.795   5.913   5.829  0.2105  0.0099 -0.1389
 1264ERGO    R117106   7.877   6.022   6.077 -0.0600 -0.0749 -0.0075
 1264ERGO    R217107   7.888   5.872   6.309  0.1120 -0.2754 -0.1393
 1264ERGO    R317108   8.144   5.962   6.317 -0.0372  0.1564  0.0255
 1264ERGO    R417109   8.108   5.817   6.570  0.2651 -0.5874 -0.3296
 1264ERGO    R517110   8.179   6.022   6.546 -0.0968 -0.3848  0.1882
 1264ERGO    C117111   8.477   5.868   6.729  0.2141 -0.3638 -0.2856
 1264ERGO    C217112   8.615   5.721   7.029  0.0424  0.2763  0.0685
 1265ERGO   ROH17113  13.709   7.342   6.222  0.1139 -0.1644  0.1926
 1265ERGO    R117114  13.646   7.365   6.497  0.1010 -0.0936  0.1842
 1265ERGO    R217115  13.791   7.523   6.671 -0.0335  0.1184  0.1088
 1265ERGO    R317116  13.547   7.632   6.724 -0.1306 -0.0731  0.0622
 1265ERGO    R417117  13.724   7.739   6.932 -0.2599  0.0536  0.1062
 1265ERGO    R517118  13.535   7.635   6.963 -0.1861 -0.0950  0.0591
 1265ERGO    C117119  13.457   7.967   7.135 -0.4829 -0.1640  0.0610
 1265ERGO    C217120  13.270   8.225   7.266 -0.0914 -0.0550  0.2674
 1266ERGO   ROH17121   3.296  17.691   6.649 -0.0407  0.3689 -0.3086
 1266ERGO    R117122   3.289  17.815   6.903 -0.0188  0.2047 -0.2265
 1266ERGO    R217123   3.403  17.702   7.128 -0.0999  0.0047 -0.2865
 1266ERGO    R317124   3.532  17.941   7.143  0.0049 -0.0603 -0.1077
 1266ERGO    R417125   3.475  17.871   7.421  0.1225 -0.3258 -0.1444
 1266ERGO    R517126   3.423  18.057   7.321  0.1440 -0.1981  0.0724
 1266ERGO    C117127   3.639  18.193   7.605  0.3504 -0.5792  0.1062
 1266ERGO    C217128   3.767  18.390   7.882  0.0745  0.1687  0.0806
 1267ERGO   ROH17129   7.114  10.124   5.482 -0.1738 -0.1683  0.0275
 1267ERGO    R117130   7.215  10.296   5.683 -0.0600 -0.0519 -0.1271
 1267ERGO    R217131   7.053  10.407   5.877  0.0561  0.0344 -0.0864
 1267ERGO    R317132   7.234  10.294   6.047  0.1745  0.1462 -0.1344
 1267ERGO    R417133   7.112  10.513   6.201 -0.1589 -0.1141  0.0038
 1267ERGO    R517134   7.326  10.479   6.168 -0.0978  0.1924  0.0192
 1267ERGO    C117135   7.316  10.467   6.549 -0.1729 -0.0957  0.0112
 1267ERGO    C217136   7.321  10.505   6.910 -0.3170 -0.1182 -0.3648
 1268ERGO   ROH17137  11.825   8.621   5.550 -0.0879  0.1157  0.0543
 1268ERGO    R117138  11.997   8.524   5.752 -0.1175 -0.0537  0.0006
 1268ERGO    R217139  12.095   8.685   5.954  0.2664 -0.0962 -0.1410
 1268ERGO    R317140  11.988   8.494   6.115  0.0495  0.1567  0.0240
 1268ERGO    R417141  12.225   8.587   6.259  0.3179 -0.1774 -0.1888
 1268ERGO    R517142  12.177   8.381   6.208 -0.0725 -0.1260 -0.0615
 1268ERGO    C117143  12.200   8.351   6.588  0.1445  0.0127 -0.0618
 1268ERGO    C217144  12.146   8.435   6.948 -0.3149 -0.3032  0.3608
 1269ERGO   ROH17145   1.488   8.572   6.000 -0.0579 -0.1585 -0.0407
 1269ERGO    R117146   1.453   8.536   6.279 -0.0990 -0.1919 -0.0503
 1269ERGO    R217147   1.540   8.311   6.412  0.1490 -0.0784 -0.0153
 1269ERGO    R317148   1.668   8.492   6.569 -0.1288  0.0941  0.0184
 1269ERGO    R417149   1.644   8.253   6.737  0.1669  0.0514  0.0029
 1269ERGO    R517150   1.579   8.454   6.788 -0.1212 -0.0369 -0.0008
 1269ERGO    C117151   1.824   8.389   7.073 -0.0834  0.2889  0.0452
 1269ERGO    C217152   2.062   8.435   7.227  0.4262  0.2456 -0.2249
 1270ERGO   ROH17153   5.789  19.421   6.165  0.0968 -0.1731  0.1008
 1270ERGO    R117154   5.775  19.343   6.436  0.2010 -0.1339  0.1186
 1270ERGO    R217155   5.660  19.106   6.518  0.0049 -0.0129  0.2185
 1270ERGO    R317156   5.900  19.069   6.640  0.0556 -0.2485  0.0526
 1270ERGO    R417157   5.704  18.954   6.825  0.0381  0.2321  0.3367
 1270ERGO    R517158   5.855  19.104   6.872  0.3054  0.0563  0.0581
 1270ERGO    C117159   5.955  18.830   7.118  0.1049  0.1534  0.2498
 1270ERGO    C217160   5.866  18.721   7.311  0.2248  0.1700  0.0866
 1271ERGO   ROH17161  18.553  11.680   5.737 -0.1251 -0.2555 -0.0983
 1271ERGO    R117162  18.423  11.754   5.978 -0.1024 -0.0383 -0.1506
 1271ERGO    R217163  18.173  11.657   6.047 -0.0609 -0.0394 -0.0030
 1271ERGO    R317164  18.301  11.583   6.276  0.0020  0.2402  0.0562
 1271ERGO    R417165  18.029  11.652   6.362 -0.1184 -0.0997 -0.0302
 1271ERGO    R517166  18.215  11.732   6.443 -0.2411  0.1992 -0.0273
 1271ERGO    C117167  18.065  11.580   6.759 -0.0932  0.1278  0.0095
 1271ERGO    C217168  17.979  11.372   6.971  0.0539 -0.3198 -0.2593
 1272ERGO   ROH17169  13.315   0.006   5.607  0.0180  0.2322 -0.0388
 1272ERGO    R117170  13.202   0.217   5.756 -0.0030  0.1045  0.1313
 1272ERGO    R217171  12.929   0.266   5.763  0.0039  0.1899  0.0140
 1272ERGO    R317172  12.966   0.250   6.031 -0.1652 -0.1319  0.0213
 1272ERGO    R417173  12.739   0.430   6.000  0.1544  0.2814  0.0720
 1272ERGO    R517174  12.920   0.470   6.112  0.1628 -0.1307  0.2102
 1272ERGO    C117175  12.662   0.510   6.390  0.0833  0.0325  0.1127
 1272ERGO    C217176  12.720   0.564   6.718 -0.0538  0.0159 -0.1379
 1273ERGO   ROH17177  11.898   1.002   5.496 -0.2364  0.1698 -0.2857
 1273ERGO    R117178  11.827   0.954   5.765 -0.2167  0.1100 -0.2913
 1273ERGO    R217179  12.014   0.929   5.967 -0.1971 -0.0589 -0.3318
 1273ERGO    R317180  11.867   1.126   6.084 -0.0767 -0.0250 -0.2345
 1273ERGO    R417181  12.073   1.059   6.282 -0.1124 -0.2530 -0.2660
 1273ERGO    R517182  11.857   1.063   6.315 -0.1129 -0.1368 -0.2638
 1273ERGO    C117183  11.969   1.318   6.575  0.0500 -0.3342 -0.1363
 1273ERGO    C217184  12.134   1.549   6.836  0.0754 -0.0481  0.1831
 1274ERGO   ROH17185   8.793  19.265   6.004  0.0417 -0.0287  0.0995
 1274ERGO    R117186   8.754  19.343   6.273  0.0675  0.1421  0.0554
 1274ERGO    R217187   8.679  19.599   6.344 -0.0824  0.1469 -0.1088
 1274ERGO    R317188   8.479  19.469   6.475  0.0409  0.1067  0.0410
 1274ERGO    R417189   8.499  19.729   6.610 -0.0861  0.2164 -0.1459
 1274ERGO    R517190   8.507  19.532   6.705  0.0697  0.2853 -0.0108
 1274ERGO    C117191   8.207  19.682   6.887  0.0275  0.2191 -0.0269
 1274ERGO    C217192   7.948  19.917   7.012 -0.3513  0.1092 -0.0799
 1275ERGO   ROH17193   3.483  10.465   5.796  0.0567  0.0911 -0.0940
 1275ERGO    R117194   3.332  10.554   6.019  0.0495  0.1486 -0.1223
 1275ERGO    R217195   3.245  10.383   6.218 -0.0344  0.1839 -0.1335
 1275ERGO    R317196   3.372  10.560   6.380 -0.0062  0.1523 -0.1134
 1275ERGO    R417197   3.201  10.405   6.560  0.0204  0.0937 -0.1196
 1275ERGO    R517198   3.207  10.622   6.542  0.0117  0.1079 -0.0694
 1275ERGO    C117199   3.295  10.584   6.911  0.0787  0.0116 -0.0927
 1275ERGO    C217200   3.138  10.623   7.196 -0.1786 -0.3286 -0.1367
 1276ERGO   ROH17201  11.769   6.453   5.591  0.1988 -0.0843 -0.0140
 1276ERGO    R117202  11.787   6.420   5.871  0.2142 -0.1815 -0.0246
 1276ERGO    R217203  12.028   6.416   6.006  0.2179 -0.0244 -0.0112
 1276ERGO    R317204  11.912   6.613   6.153  0.0339 -0.1808  0.0542
 1276ERGO    R417205  12.057   6.451   6.349  0.1134 -0.1471  0.0096
 1276ERGO    R517206  11.846   6.506   6.356  0.0745 -0.3159 -0.0086
 1276ERGO    C117207  11.964   6.657   6.686 -0.1201 -0.3653  0.0831
 1276ERGO    C217208  11.927   6.991   6.848 -0.0845 -0.1345 -0.1036
 1277ERGO   ROH17209  17.445  12.299   5.830 -0.1903 -0.2118 -0.1106
 1277ERGO    R117210  17.237  12.298   6.023 -0.1233 -0.3248 -0.0385
 1277ERGO    R217211  17.226  12.115   6.229  0.1599 -0.2090  0.0840
 1277ERGO    R317212  17.211  12.338   6.383 -0.0386 -0.1219 -0.0532
 1277ERGO    R417213  17.030  12.146   6.512  0.2595 -0.2629  0.1618
 1277ERGO    R517214  16.981  12.349   6.449 -0.0231 -0.3608  0.0517
 1277ERGO    C117215  16.902  12.374   6.821  0.1314 -0.2125  0.0782
 1277ERGO    C217216  16.952  12.464   7.033 -0.0130  0.2381 -0.3717
 1278ERGO   ROH17217   4.031  15.399   9.303  0.0470  0.1889 -0.0595
 1278ERGO    R117218   4.202  15.397   9.078 -0.0808 -0.0103 -0.1571
 1278ERGO    R217219   4.116  15.321   8.827 -0.3459  0.2037 -0.1334
 1278ERGO    R317220   4.216  15.564   8.754 -0.0015  0.0743 -0.1116
 1278ERGO    R417221   4.240  15.397   8.513 -0.4101  0.1011 -0.1842
 1278ERGO    R517222   4.400  15.511   8.610 -0.1652 -0.1786 -0.2387
 1278ERGO    C117223   4.406  15.669   8.262 -0.1241 -0.0799 -0.1934
 1278ERGO    C217224   4.580  15.832   7.963 -0.1944 -0.2138 -0.1815
 1279ERGO   ROH17225   0.323  14.389   5.545 -0.0658 -0.0530  0.1603
 1279ERGO    R117226   0.249  14.246   5.778  0.0320 -0.0001  0.2253
 1279ERGO    R217227   0.139  13.992   5.768 -0.2542  0.1132  0.3112
 1279ERGO    R317228   0.344  13.933   5.937 -0.1277 -0.1223  0.0813
 1279ERGO    R417229   0.121  13.767   6.029 -0.1443 -0.0238  0.2014
 1279ERGO    R517230   0.239  13.904   6.150  0.0642 -0.1743  0.1678
 1279ERGO    C117231   0.303  13.579   6.340  0.0386 -0.3249 -0.0783
 1279ERGO    C217232   0.352  13.312   6.430  0.0080 -0.1503  0.2343
 1280ERGO   ROH17233   2.979  15.737   6.158  0.0986 -0.1224  0.0508
 1280ERGO    R117234   2.769  15.677   6.338  0.0307 -0.3710 -0.1080
 1280ERGO    R217235   2.745  15.430   6.461  0.3767 -0.3231  0.0579
 1280ERGO    R317236   2.741  15.580   6.688 -0.1282 -0.1451 -0.0546
 1280ERGO    R417237   2.591  15.338   6.756  0.4643 -0.5152  0.0455
 1280ERGO    R517238   2.523  15.543   6.779 -0.0968 -0.6555 -0.1442
 1280ERGO    C117239   2.497  15.424   7.140  0.0413 -0.4599 -0.0673
 1280ERGO    C217240   2.317  15.271   7.381  0.3090 -0.0918  0.0635
 1281ERGO   ROH17241  15.780  17.964   5.427  0.1931 -0.0424  0.0942
 1281ERGO    R117242  15.746  18.050   5.694  0.0972 -0.0161  0.0750
 1281ERGO    R217243  15.498  18.100   5.804  0.0459 -0.1365  0.0248
 1281ERGO    R317244  15.582  17.924   5.994  0.1136 -0.0603  0.0644
 1281ERGO    R417245  15.463  18.145   6.145  0.1576 -0.0123  0.0197
 1281ERGO    R517246  15.663  18.063   6.172  0.1661  0.0066 -0.0144
 1281ERGO    C117247  15.522  18.007   6.522  0.2864  0.1316  0.0539
 1281ERGO    C217248  15.491  18.020   6.917 -0.1447 -0.0065 -0.0412
 1282ERGO   ROH17249  13.176   9.438   5.584 -0.1789 -0.1436  0.0539
 1282ERGO    R117250  12.997   9.544   5.776 -0.1768 -0.0772  0.0201
 1282ERGO    R217251  12.924   9.406   6.004 -0.2234 -0.0250  0.0395
 1282ERGO    R317252  13.010   9.632   6.129 -0.1913 -0.0195  0.0061
 1282ERGO    R417253  12.822   9.509   6.318 -0.1197 -0.0250  0.0727
 1282ERGO    R517254  12.817   9.714   6.244 -0.1550 -0.0273  0.0717
 1282ERGO    C117255  12.844   9.780   6.619 -0.0292 -0.0198  0.0606
 1282ERGO    C217256  12.797   9.983   6.876 -0.0429 -0.1201 -0.3366
 1283ERGO   ROH17257   4.060   5.870   7.160 -0.0167 -0.2105 -0.0557
 1283ERGO    R117258   4.285   5.727   7.255 -0.0586 -0.1685  0.1064
 1283ERGO    R217259   4.529   5.847   7.300 -0.0447 -0.1767  0.0232
 1283ERGO    R317260   4.501   5.738   7.548 -0.0914  0.0577  0.1253
 1283ERGO    R417261   4.788   5.717   7.490 -0.1259 -0.3307  0.0322
 1283ERGO    R517262   4.656   5.555   7.550 -0.3046 -0.1303  0.2139
 1283ERGO    C117263   4.912   5.539   7.832 -0.2170 -0.2002  0.1332
 1283ERGO    C217264   5.225   5.601   7.941  0.3210 -0.0698  0.0446
 1284ERGO   ROH17265   7.672  11.722   5.424  0.1192 -0.1079  0.0754
 1284ERGO    R117266   7.703  11.776   5.700  0.0806 -0.1640  0.0908
 1284ERGO    R217267   7.529  11.939   5.840  0.1599 -0.0543  0.0590
 1284ERGO    R317268   7.510  11.723   6.004 -0.0454 -0.0593  0.0310
 1284ERGO    R417269   7.371  11.937   6.147  0.3587  0.1284  0.1657
 1284ERGO    R517270   7.532  11.813   6.224  0.2358 -0.1247  0.0348
 1284ERGO    C117271   7.260  11.733   6.479  0.2820  0.2301  0.2015
 1284ERGO    C217272   7.020  11.924   6.654  0.1257  0.1615 -0.0682
 1285ERGO   ROH17273  15.546  17.810   8.750 -0.0857  0.1506 -0.0453
 1285ERGO    R117274  15.530  17.920   8.489 -0.5035  0.2044 -0.0049
 1285ERGO    R217275  15.696  17.838   8.283 -0.2218  0.8486 -0.0589
 1285ERGO    R317276  15.461  17.796   8.154 -0.1194  0.0646 -0.0364
 1285ERGO    R417277  15.656  17.838   7.940 -0.2743  0.7373 -0.0537
 1285ERGO    R517278  15.468  17.944   7.966 -0.6438  0.1143 -0.0271
 1285ERGO    C117279  15.412  17.797   7.619 -0.2087 -0.0635 -0.0297
 1285ERGO    C217280  15.325  17.712   7.243 -0.0639 -0.2417  0.2397
 1286ERGO   ROH17281   1.077   7.007   9.751  0.0076  0.3489 -0.1135
 1286ERGO    R117282   1.168   6.887   9.511 -0.0304  0.0968 -0.0051
 1286ERGO    R217283   1.082   6.638   9.428 -0.3782  0.1868  0.0535
 1286ERGO    R317284   1.018   6.771   9.200 -0.0261  0.1983 -0.0438
 1286ERGO    R417285   1.071   6.495   9.114 -0.5750  0.0355  0.1269
 1286ERGO    R517286   1.163   6.676   9.034 -0.1669 -0.1979  0.0526
 1286ERGO    C117287   1.005   6.537   8.716 -0.3590 -0.0418  0.0784
 1286ERGO    C217288   0.889   6.488   8.335  0.6875  0.0026  0.0870
 1287ERGO   ROH17289  10.063   2.291   8.874 -0.3878  0.0426  0.2433
 1287ERGO    R117290  10.143   2.497   8.698 -0.3473 -0.0589  0.1413
 1287ERGO    R217291  10.161   2.762   8.776 -0.1415 -0.0439  0.0562
 1287ERGO    R317292  10.414   2.740   8.681 -0.2021 -0.2322 -0.0670
 1287ERGO    R417293  10.305   2.978   8.549 -0.0728 -0.1263  0.0209
 1287ERGO    R517294  10.397   2.806   8.451 -0.2560 -0.1852 -0.0483
 1287ERGO    C117295  10.627   3.084   8.327 -0.0896 -0.3511 -0.1154
 1287ERGO    C217296  10.816   3.220   8.052 -0.0180  0.4798 -0.0018
 1288ERGO   ROH17297  12.666   1.667   5.710  0.0190  0.1401 -0.0666
 1288ERGO    R117298  12.848   1.527   5.875  0.0940  0.1797 -0.1150
 1288ERGO    R217299  13.003   1.653   6.066  0.0188  0.1953 -0.0643
 1288ERGO    R317300  12.890   1.469   6.232  0.1180  0.0693 -0.1352
 1288ERGO    R417301  13.101   1.595   6.392  0.0318  0.1459 -0.0771
 1288ERGO    R517302  13.075   1.381   6.357  0.1645  0.1397 -0.1522
 1288ERGO    C117303  13.053   1.388   6.737  0.1325 -0.0010 -0.1512
 1288ERGO    C217304  12.985   1.509   7.121  0.2143 -0.3008  0.2652
 1289ERGO   ROH17305   6.967   8.842   5.531  0.0582 -0.0118 -0.1858
 1289ERGO    R117306   7.008   8.803   5.808  0.0571  0.0412 -0.1774
 1289ERGO    R217307   6.889   8.961   6.001  0.0432  0.0696 -0.2056
 1289ERGO    R317308   6.802   8.722   6.097  0.0572  0.0808 -0.1671
 1289ERGO    R417309   6.737   8.915   6.308  0.2333  0.0745 -0.1099
 1289ERGO    R517310   6.851   8.731   6.331  0.2105  0.0513 -0.1988
 1289ERGO    C117311   6.568   8.664   6.577  0.3571  0.0878 -0.0182
 1289ERGO    C217312   6.270   8.745   6.797  0.0845 -0.0221 -0.0718
 1290ERGO   ROH17313  11.203  12.519   5.602 -0.2479 -0.1517  0.3266
 1290ERGO    R117314  11.300  12.479   5.865 -0.0723  0.0468  0.2966
 1290ERGO    R217315  11.568  12.488   5.928 -0.0130 -0.0133  0.0922
 1290ERGO    R317316  11.486  12.672   6.111  0.1965  0.1954 -0.0198
 1290ERGO    R417317  11.696  12.518   6.248 -0.1125 -0.0741  0.1371
 1290ERGO    R517318  11.493  12.554   6.320 -0.0844  0.2779  0.0330
 1290ERGO    C117319  11.694  12.708   6.606  0.0265  0.0865  0.0582
 1290ERGO    C217320  11.835  12.728   6.928  0.0184  0.0588  0.1331
 1291ERGO   ROH17321  13.810   4.210   6.104  0.1893  0.0905 -0.0129
 1291ERGO    R117322  13.757   4.189   6.381  0.1192  0.0385 -0.0290
 1291ERGO    R217323  13.550   4.035   6.482  0.0625  0.0510 -0.1095
 1291ERGO    R317324  13.749   3.922   6.628  0.0114 -0.0167 -0.0940
 1291ERGO    R417325  13.505   3.805   6.736 -0.0015 -0.1936 -0.3393
 1291ERGO    R517326  13.660   3.906   6.849 -0.1043 -0.2479 -0.1609
 1291ERGO    C117327  13.665   3.565   7.021 -0.0868 -0.3995 -0.4586
 1291ERGO    C217328  13.846   3.208   7.205  0.4755  0.2836  0.4033
 1292ERGO   ROH17329  17.504   3.629   6.092 -0.0374  0.0791 -0.0040
 1292ERGO    R117330  17.433   3.874   6.214 -0.2123  0.0460 -0.0354
 1292ERGO    R217331  17.173   3.966   6.225 -0.2980 -0.2016  0.0709
 1292ERGO    R317332  17.223   3.982   6.491 -0.1765 -0.0821  0.0423
 1292ERGO    R417333  17.030   4.196   6.439 -0.1970 -0.1017  0.0324
 1292ERGO    R517334  17.223   4.216   6.538 -0.1507 -0.0598 -0.0639
 1292ERGO    C117335  16.994   4.344   6.815 -0.0242  0.0688 -0.0167
 1292ERGO    C217336  16.955   4.409   7.098 -0.1327 -0.0641  0.0539
 1293ERGO   ROH17337   6.185  13.207   6.014 -0.0400 -0.0188 -0.1498
 1293ERGO    R117338   5.954  13.257   6.172 -0.0388 -0.0626 -0.1333
 1293ERGO    R217339   5.877  13.091   6.379 -0.0116 -0.0961 -0.1467
 1293ERGO    R317340   5.883  13.321   6.523 -0.0284 -0.1112 -0.1229
 1293ERGO    R417341   5.670  13.162   6.646 -0.2461  0.0033 -0.3524
 1293ERGO    R517342   5.653  13.366   6.572 -0.0536  0.0173 -0.3548
 1293ERGO    C117343   5.554  13.420   6.936 -0.3984  0.0471 -0.4498
 1293ERGO    C217344   5.345  13.440   7.201 -0.1907  0.1620 -0.0503
 1294ERGO   ROH17345  15.017   6.304   5.762  0.0123  0.2705 -0.1022
 1294ERGO    R117346  15.035   6.478   5.985 -0.1289  0.2714 -0.0899
 1294ERGO    R217347  14.845   6.671   6.039 -0.3322  0.0595 -0.0284
 1294ERGO    R317348  14.838   6.549   6.282 -0.1432  0.0252 -0.0386
 1294ERGO    R417349  14.723   6.815   6.329 -0.4123 -0.0985  0.0172
 1294ERGO    R517350  14.888   6.724   6.438 -0.2878  0.0633 -0.0336
 1294ERGO    C117351  14.645   6.784   6.726 -0.2816 -0.2227  0.0341
 1294ERGO    C217352  14.328   6.806   6.765  0.2358  0.0523 -0.1707
 1295ERGO   ROH17353   2.811   6.800   6.583 -0.2458 -0.2302  0.1151
 1295ERGO    R117354   2.865   6.917   6.834 -0.4116 -0.0768  0.0819
 1295ERGO    R217355   2.708   6.870   7.057 -0.1651 -0.5071  0.1795
 1295ERGO    R317356   2.946   6.800   7.169  0.1114  0.1300  0.0363
 1295ERGO    R417357   2.779   6.884   7.395 -0.0595 -0.4894  0.1561
 1295ERGO    R517358   2.978   6.959   7.345 -0.2864  0.1368  0.1096
 1295ERGO    C117359   3.044   6.826   7.697  0.2616  0.1190  0.0081
 1295ERGO    C217360   3.146   6.895   7.951 -0.1699 -0.0381  0.1524
 1296ERGO   ROH17361  13.591   8.282   5.762  0.2021 -0.3555  0.1902
 1296ERGO    R117362  13.641   8.328   6.037  0.2398 -0.1394  0.1482
 1296ERGO    R217363  13.849   8.488   6.125  0.2042 -0.0081 -0.0071
 1296ERGO    R317364  13.650   8.616   6.259  0.1900  0.0262 -0.0602
 1296ERGO    R417365  13.889   8.660   6.422  0.1226 -0.1797  0.1058
 1296ERGO    R517366  13.699   8.578   6.490  0.0367 -0.1186 -0.0475
 1296ERGO    C117367  13.726   8.881   6.720  0.0618 -0.2473  0.1216
 1296ERGO    C217368  13.737   8.949   7.088 -0.1610  0.1355  0.0590
 1297ERGO   ROH17369  10.989   9.723   8.641  0.1195 -0.4253 -0.0327
 1297ERGO    R117370  10.821   9.585   8.461 -0.0520 -0.2010 -0.0480
 1297ERGO    R217371  10.647   9.715   8.290  0.1719  0.0358 -0.0965
 1297ERGO    R317372  10.776   9.569   8.100 -0.0063 -0.1801 -0.0555
 1297ERGO    R417373  10.534   9.669   7.967  0.3000  0.4236 -0.2021
 1297ERGO    R517374  10.599   9.461   7.979 -0.1709  0.2596 -0.2315
 1297ERGO    C117375  10.589   9.505   7.600  0.2073  0.4467 -0.2253
 1297ERGO    C217376  10.510   9.560   7.236  0.0803  0.2635  0.3058
 1298ERGO   ROH17377  16.601   4.225   9.316 -0.0561 -0.3005 -0.1776
 1298ERGO    R117378  16.659   4.298   9.049  0.0038 -0.1882 -0.1351
 1298ERGO    R217379  16.808   4.522   8.985 -0.0784 -0.0937 -0.0131
 1298ERGO    R317380  16.958   4.343   8.846  0.0560  0.0193 -0.0147
 1298ERGO    R417381  16.940   4.577   8.670 -0.1781 -0.0209 -0.0419
 1298ERGO    R517382  16.889   4.371   8.619 -0.0062 -0.0719 -0.0059
 1298ERGO    C117383  17.157   4.441   8.356 -0.1098  0.1274 -0.0599
 1298ERGO    C217384  17.346   4.403   8.006  0.2780  0.0639  0.3837
 1299ERGO   ROH17385  16.724   1.230   9.355  0.0795  0.1645 -0.0467
 1299ERGO    R117386  16.820   1.155   9.100  0.0670  0.2974 -0.0902
 1299ERGO    R217387  16.652   1.102   8.888  0.0466  0.1558 -0.0344
 1299ERGO    R317388  16.804   1.288   8.762 -0.1860  0.3283 -0.0686
 1299ERGO    R417389  16.704   1.115   8.546  0.3979 -0.1324  0.0006
 1299ERGO    R517390  16.912   1.167   8.585  0.2623  0.3356  0.1847
 1299ERGO    C117391  16.876   1.298   8.229  0.3838 -0.1383 -0.0112
 1299ERGO    C217392  16.705   1.306   8.013  0.1643  0.2703  0.1715
 1300ERGO   ROH17393   8.384   5.094   5.821 -0.1182 -0.2028 -0.0477
 1300ERGO    R117394   8.580   5.161   6.014  0.0285 -0.1154 -0.2257
 1300ERGO    R217395   8.547   5.112   6.284  0.1710  0.1355 -0.1622
 1300ERGO    R317396   8.785   4.983   6.256  0.1021  0.0111 -0.1925
 1300ERGO    R417397   8.774   5.058   6.539  0.1016 -0.1273 -0.1519
 1300ERGO    R517398   8.935   5.103   6.399  0.1507 -0.1467 -0.1057
 1300ERGO    C117399   9.129   4.905   6.661 -0.0036 -0.3970 -0.1742
 1300ERGO    C217400   9.401   4.687   6.694  0.1570  0.0159  0.0829
 1301ERGO   ROH17401   9.099  16.709   9.052 -0.1589  0.1295  0.1951
 1301ERGO    R117402   8.944  16.791   8.830 -0.1425  0.0550  0.1563
 1301ERGO    R217403   8.975  17.037   8.709 -0.0706 -0.0208  0.0182
 1301ERGO    R317404   9.007  16.887   8.485 -0.1265 -0.1552  0.0988
 1301ERGO    R417405   8.989  17.164   8.388  0.2126 -0.1752 -0.0327
 1301ERGO    R517406   8.869  16.995   8.321  0.0615 -0.0773 -0.0124
 1301ERGO    C117407   9.028  17.096   7.990  0.3249 -0.3913  0.0133
 1301ERGO    C217408   9.154  17.142   7.575  0.2676  0.0003 -0.1189
 1302ERGO   ROH17409   8.449   1.230   5.661  0.0307  0.1076  0.1690
 1302ERGO    R117410   8.494   1.329   5.922  0.1802  0.2146  0.1035
 1302ERGO    R217411   8.506   1.164   6.144  0.0707  0.3296  0.1908
 1302ERGO    R317412   8.746   1.285   6.182  0.1964  0.1257  0.0753
 1302ERGO    R417413   8.693   1.147   6.434  0.2017  0.1482  0.0982
 1302ERGO    R517414   8.741   1.358   6.410  0.3692  0.1158  0.0871
 1302ERGO    C117415   9.028   1.251   6.638  0.3959 -0.1488 -0.0643
 1302ERGO    C217416   9.185   1.342   6.850  0.0931 -0.1562 -0.1697
 1303ERGO   ROH17417  16.864   8.401   5.953  0.0239  0.0902 -0.0541
 1303ERGO    R117418  16.725   8.456   6.193  0.0277 -0.0508 -0.0193
 1303ERGO    R217419  16.700   8.271   6.396  0.1560 -0.1204 -0.0677
 1303ERGO    R317420  16.805   8.470   6.548  0.0691 -0.1054 -0.0260
 1303ERGO    R417421  16.717   8.268   6.741  0.0415 -0.1298 -0.0617
 1303ERGO    R517422  16.663   8.480   6.740  0.0024 -0.1386 -0.0724
 1303ERGO    C117423  16.825   8.455   7.085 -0.1063 -0.1212 -0.0190
 1303ERGO    C217424  17.039   8.373   7.317  0.1548 -0.0267  0.2437
 1304ERGO   ROH17425  14.851  13.877   5.507  0.0534  0.2411 -0.1289
 1304ERGO    R117426  15.061  13.865   5.696  0.0011  0.0860 -0.0788
 1304ERGO    R217427  15.065  14.020   5.924  0.0238  0.0261 -0.0386
 1304ERGO    R317428  15.096  13.780   6.048 -0.1286 -0.0214 -0.0906
 1304ERGO    R417429  15.139  13.981   6.259  0.1044 -0.0841 -0.0692
 1304ERGO    R517430  15.274  13.818   6.205 -0.0432 -0.1876 -0.1430
 1304ERGO    C117431  15.211  13.732   6.571  0.0082 -0.1928 -0.1358
 1304ERGO    C217432  15.061  13.907   6.877  0.1004  0.5978  0.0907
 1305ERGO   ROH17433  13.707   1.984   5.877  0.0983  0.2121 -0.0594
 1305ERGO    R117434  13.546   2.061   6.097 -0.0930 -0.1112 -0.0801
 1305ERGO    R217435  13.475   1.884   6.298  0.3088 -0.2450 -0.0422
 1305ERGO    R317436  13.582   2.075   6.459 -0.1300  0.0509 -0.0826
 1305ERGO    R417437  13.466   1.880   6.643  0.3004 -0.1755 -0.0418
 1305ERGO    R517438  13.428   2.094   6.641 -0.1897 -0.2536 -0.0982
 1305ERGO    C117439  13.562   2.056   6.996 -0.1164  0.1428 -0.0797
 1305ERGO    C217440  13.876   1.997   7.207 -0.0964 -0.2409 -0.0923
 1306ERGO   ROH17441  13.912  16.623   5.138 -0.0881 -0.0253 -0.0029
 1306ERGO    R117442  13.993  16.738   5.384 -0.1191 -0.0038 -0.0029
 1306ERGO    R217443  13.868  16.960   5.493 -0.1970 -0.0549  0.0113
 1306ERGO    R317444  13.843  16.798   5.710 -0.1252 -0.0723  0.0070
 1306ERGO    R417445  13.851  17.069   5.820  0.0035 -0.0858  0.0338
 1306ERGO    R517446  13.978  16.902   5.878 -0.0092 -0.1257 -0.0516
 1306ERGO    C117447  13.817  16.981   6.215  0.1876 -0.1202  0.0428
 1306ERGO    C217448  13.621  17.222   6.428 -0.1113  0.2146  0.3759
 1307ERGO   ROH17449   1.630   3.308   7.691 -0.0741  0.0421  0.1412
 1307ERGO    R117450   1.398   3.428   7.583 -0.0141  0.0350  0.0001
 1307ERGO    R217451   1.146   3.384   7.687 -0.0895 -0.0392 -0.2031
 1307ERGO    R317452   1.139   3.655   7.701 -0.1419 -0.0448 -0.1258
 1307ERGO    R417453   0.858   3.572   7.727 -0.1324 -0.1016 -0.2222
 1307ERGO    R517454   0.939   3.715   7.583 -0.1215 -0.0460 -0.1588
 1307ERGO    C117455   0.684   3.936   7.762 -0.2066 -0.1431 -0.1607
 1307ERGO    C217456   0.391   4.023   7.967 -0.0457  0.1673 -0.1113
 1308ERGO   ROH17457   5.560   5.944   6.148  0.0712  0.0650  0.0180
 1308ERGO    R117458   5.705   6.020   6.379  0.0492 -0.0491  0.0703
 1308ERGO    R217459   5.741   5.851   6.595  0.1015 -0.1878 -0.0449
 1308ERGO    R317460   6.004   5.907   6.552  0.0847 -0.0785 -0.0099
 1308ERGO    R417461   5.998   5.780   6.815  0.1041 -0.0808 -0.0125
 1308ERGO    R517462   6.088   5.972   6.766  0.0305 -0.0441  0.0002
 1308ERGO    C117463   6.394   5.790   6.903  0.0898  0.0841  0.0393
 1308ERGO    C217464   6.622   5.639   7.055 -0.4115  0.3629  0.2313
 1309ERGO   ROH17465   7.431   7.897   9.413 -0.0129  0.0604 -0.1553
 1309ERGO    R117466   7.312   7.700   9.248 -0.0292  0.0812 -0.1684
 1309ERGO    R217467   7.052   7.719   9.157 -0.0781  0.0330 -0.0382
 1309ERGO    R317468   7.169   7.685   8.914 -0.1834  0.1536 -0.1073
 1309ERGO    R417469   6.945   7.496   8.916 -0.2018  0.1692 -0.1112
 1309ERGO    R517470   7.154   7.450   8.873 -0.2208  0.1740 -0.2250
 1309ERGO    C117471   6.993   7.334   8.547 -0.3727  0.3617 -0.2186
 1309ERGO    C217472   6.927   7.014   8.329  0.0510 -0.0035  0.2597
 1310ERGO   ROH17473  18.027   2.563   6.192 -0.0073 -0.1519 -0.0132
 1310ERGO    R117474  18.133   2.395   6.394  0.0669 -0.0669  0.0190
 1310ERGO    R217475  18.230   2.494   6.634  0.0376  0.0232 -0.0053
 1310ERGO    R317476  18.053   2.317   6.741  0.1111 -0.0236  0.0390
 1310ERGO    R417477  18.204   2.419   6.970  0.0357  0.1328  0.0194
 1310ERGO    R517478  18.175   2.210   6.916  0.1431  0.0992  0.0923
 1310ERGO    C117479  18.024   2.208   7.266  0.1036  0.1527  0.0754
 1310ERGO    C217480  17.976   2.086   7.642  0.0616  0.1200  0.0279
 1311ERGO   ROH17481   0.031   6.337   9.629 -0.1139 -0.4008  0.0010
 1311ERGO    R117482   0.080   6.453   9.375 -0.0144 -0.3596  0.0378
 1311ERGO    R217483   0.055   6.311   9.140 -0.2049 -0.2460 -0.0148
 1311ERGO    R317484  -0.111   6.516   9.071  0.0150 -0.0303  0.0840
 1311ERGO    R417485  -0.026   6.399   8.815 -0.1171 -0.0031  0.0274
 1311ERGO    R517486  -0.011   6.609   8.874  0.1132 -0.0448  0.1271
 1311ERGO    C117487  -0.228   6.642   8.562  0.1404  0.3408  0.1448
 1311ERGO    C217488  -0.290   6.619   8.216  0.0050  0.5690  0.0910
 1312ERGO   ROH17489   1.646   0.892   6.222  0.0409 -0.0152 -0.0567
 1312ERGO    R117490   1.641   0.789   6.486 -0.0637  0.0048 -0.0513
 1312ERGO    R217491   1.769   0.913   6.696  0.0293 -0.0929 -0.0556
 1312ERGO    R317492   1.523   0.901   6.812  0.0117  0.1243 -0.0626
 1312ERGO    R417493   1.712   0.902   7.037  0.0091  0.1485 -0.0485
 1312ERGO    R517494   1.554   0.756   7.000 -0.0808  0.2156  0.0295
 1312ERGO    C117495   1.447   0.883   7.343 -0.0191  0.4929 -0.0509
 1312ERGO    C217496   1.437   0.836   7.652 -0.1110 -0.2130 -0.6627
 1313ERGO   ROH17497   1.474   5.709   6.155  0.1597  0.1905  0.2542
 1313ERGO    R117498   1.344   5.668   6.403  0.1688  0.1289  0.2479
 1313ERGO    R217499   1.253   5.420   6.484 -0.1094  0.1654  0.0483
 1313ERGO    R317500   1.405   5.472   6.704  0.0053 -0.2109  0.0668
 1313ERGO    R417501   1.168   5.334   6.808 -0.1911  0.0539 -0.0014
 1313ERGO    R517502   1.245   5.527   6.874  0.1032 -0.0980  0.1278
 1313ERGO    C117503   1.260   5.333   7.202 -0.1310 -0.3641 -0.0129
 1313ERGO    C217504   1.086   5.185   7.436 -0.2339  0.1918 -0.3786
 1314ERGO   ROH17505   2.156   6.182   6.694  0.0784 -0.1776 -0.0560
 1314ERGO    R117506   2.052   6.272   6.940 -0.0234 -0.0658 -0.1393
 1314ERGO    R217507   1.874   6.123   7.090  0.0280 -0.0623 -0.0749
 1314ERGO    R317508   2.057   6.161   7.287 -0.0335  0.1744 -0.0603
 1314ERGO    R417509   1.839   6.016   7.417  0.0533  0.0705 -0.0279
 1314ERGO    R517510   1.927   6.204   7.483 -0.1007  0.1717 -0.1038
 1314ERGO    C117511   1.991   5.989   7.792  0.0102  0.3700  0.0132
 1314ERGO    C217512   2.077   5.861   8.096  0.0174 -0.3180 -0.0977
 1315ERGO   ROH17513  16.245   3.877   5.912  0.0479 -0.2505 -0.1393
 1315ERGO    R117514  16.071   3.779   6.112  0.0628 -0.0121 -0.0058
 1315ERGO    R217515  16.040   3.509   6.164 -0.2561  0.0261  0.0258
 1315ERGO    R317516  16.102   3.583   6.417  0.0321 -0.0420 -0.0218
 1315ERGO    R417517  16.032   3.300   6.439 -0.1740  0.0119  0.0178
 1315ERGO    R517518  15.947   3.464   6.555  0.0592  0.0712  0.1087
 1315ERGO    C117519  16.085   3.248   6.837  0.1442 -0.0601 -0.0315
 1315ERGO    C217520  16.241   2.905   7.021  0.0058 -0.4308  0.3355
 1316ERGO   ROH17521   4.205   7.815   6.026  0.0887  0.0887 -0.1948
 1316ERGO    R117522   4.431   7.693   6.144  0.0461  0.0971 -0.1011
 1316ERGO    R217523   4.578   7.813   6.345 -0.0424  0.1011 -0.0343
 1316ERGO    R317524   4.528   7.580   6.476 -0.0899  0.0969 -0.0618
 1316ERGO    R417525   4.763   7.692   6.610 -0.1109  0.0662 -0.0032
 1316ERGO    R517526   4.745   7.492   6.526 -0.1095  0.0752 -0.0205
 1316ERGO    C117527   4.825   7.403   6.888 -0.1954  0.0419 -0.0109
 1316ERGO    C217528   5.070   7.155   7.006 -0.0905 -0.2602  0.3444
 1317ERGO   ROH17529   8.565  14.018   5.762  0.0715  0.1431 -0.2253
 1317ERGO    R117530   8.689  13.920   5.997  0.1284  0.3341 -0.1742
 1317ERGO    R217531   8.680  13.653   6.070 -0.1946  0.4512  0.2482
 1317ERGO    R317532   8.950  13.680   6.077 -0.1423  0.0822 -0.0271
 1317ERGO    R417533   8.899  13.411   6.182 -0.4200  0.2151  0.1908
 1317ERGO    R517534   9.016  13.568   6.278 -0.1071  0.1204 -0.0170
 1317ERGO    C117535   9.281  13.295   6.254 -0.5023 -0.2687 -0.1012
 1317ERGO    C217536   9.429  13.019   6.136 -0.0045 -0.3862 -0.2618
 1318ERGO   ROH17537  11.059  15.557   9.293  0.5022 -0.4232 -0.1533
 1318ERGO    R117538  11.061  15.458   9.027  0.0281 -0.3587 -0.1904
 1318ERGO    R217539  10.830  15.435   8.875 -0.2032  0.0621  0.0617
 1318ERGO    R317540  10.972  15.584   8.698 -0.1544 -0.1167 -0.0490
 1318ERGO    R417541  10.802  15.414   8.532 -0.2120 -0.1577  0.0756
 1318ERGO    R517542  11.018  15.435   8.517 -0.2141 -0.2499  0.0531
 1318ERGO    C117543  10.919  15.542   8.165 -0.1712 -0.4536 -0.0203
 1318ERGO    C217544  10.990  15.533   7.788  0.1583  0.2788 -0.2549
 1319ERGO   ROH17545   3.793   3.563   7.240  0.2421  0.3376  0.2321
 1319ERGO    R117546   3.888   3.521   7.503  0.2211  0.0279  0.1928
 1319ERGO    R217547   3.868   3.277   7.632  0.0965 -0.0900 -0.0498
 1319ERGO    R317548   4.136   3.307   7.663  0.1139 -0.2588 -0.0134
 1319ERGO    R417549   4.060   3.110   7.866 -0.0925  0.0170  0.1863
 1319ERGO    R517550   4.170   3.295   7.900  0.0390 -0.0256  0.0130
 1319ERGO    C117551   4.423   3.043   8.033 -0.1861 -0.0792  0.3580
 1319ERGO    C217552   4.852   3.048   8.128  0.3882  0.1760 -0.0098
 1320ERGO   ROH17553  17.863   6.491   5.728 -0.2147  0.1449  0.1336
 1320ERGO    R117554  18.014   6.406   5.952 -0.0338  0.1460  0.0157
 1320ERGO    R217555  18.001   6.534   6.197  0.0815  0.0864  0.0617
 1320ERGO    R317556  17.943   6.285   6.288  0.2279  0.0425  0.0333
 1320ERGO    R417557  17.963   6.449   6.530 -0.2637  0.1005  0.0288
 1320ERGO    R517558  18.071   6.263   6.489 -0.0153  0.2108  0.2033
 1320ERGO    C117559  17.887   6.164   6.808 -0.3275  0.0674 -0.0169
 1320ERGO    C217560  17.819   6.156   7.181 -0.4069 -0.1680 -0.1319
 1321ERGO   ROH17561  17.700   5.067   5.742  0.1186 -0.2738  0.0845
 1321ERGO    R117562  17.669   5.094   6.022  0.2211 -0.1156  0.0819
 1321ERGO    R217563  17.846   5.237   6.179  0.1372  0.1954 -0.0992
 1321ERGO    R317564  17.621   5.367   6.258  0.0246 -0.0020 -0.0856
 1321ERGO    R417565  17.712   5.224   6.497  0.2841  0.2361 -0.0348
 1321ERGO    R517566  17.514   5.215   6.408  0.2531 -0.0347  0.0512
 1321ERGO    C117567  17.423   5.340   6.757  0.2642  0.0744  0.0155
 1321ERGO    C217568  17.179   5.592   6.991  0.0265 -0.3578 -0.2334
 1322ERGO   ROH17569  11.581   1.605   8.869 -0.3775 -0.2027 -0.0042
 1322ERGO    R117570  11.431   1.671   8.639 -0.2374 -0.1900 -0.0925
 1322ERGO    R217571  11.500   1.878   8.470 -0.1824 -0.1270  0.0093
 1322ERGO    R317572  11.490   1.684   8.280  0.0077 -0.0811 -0.0504
 1322ERGO    R417573  11.567   1.928   8.135 -0.1599  0.0263  0.0356
 1322ERGO    R517574  11.400   1.796   8.087 -0.0471 -0.0950 -0.0341
 1322ERGO    C117575  11.597   1.776   7.761  0.0316  0.1586 -0.0051
 1322ERGO    C217576  11.724   1.907   7.517  0.3205 -0.0825 -0.1897
 1323ERGO   ROH17577   2.047  19.412   6.785 -0.1317  0.0896  0.0019
 1323ERGO    R117578   1.863  19.495   6.983 -0.2437 -0.0033 -0.0618
 1323ERGO    R217579   1.719  19.316   7.136 -0.1029 -0.0795 -0.0140
 1323ERGO    R317580   1.826  19.456   7.343 -0.2657  0.1051 -0.0523
 1323ERGO    R417581   1.628  19.280   7.468 -0.1473 -0.0041 -0.0184
 1323ERGO    R517582   1.641  19.497   7.490 -0.3327  0.0183 -0.1131
 1323ERGO    C117583   1.675  19.391   7.855 -0.3260  0.2131 -0.0570
 1323ERGO    C217584   1.793  19.293   8.139  0.0133  0.2828 -0.5338
 1324W        W17585  11.269   9.755   2.480  0.3454 -0.2358 -0.1044
 1325W        W17586   0.224   4.278   2.696 -0.1077  0.0678  0.0823
 1326W        W17587  13.102   5.588  12.021  0.0442  0.0590 -0.1102
 1327W        W17588   4.328  13.715  14.289  0.0767 -0.0183 -0.0753
 1328W        W17589   8.182   2.316   3.862  0.1791 -0.1485  0.1273
 1329W        W17590   2.425  16.005   1.390 -0.0531  0.2218 -0.0113
 1330W        W17591  14.314   4.813   4.572 -0.0738  0.1683 -0.1672
 1331W        W17592   0.962  13.300  13.961 -0.0531  0.2491  0.0374
 1332W        W17593  18.535   8.615   4.447 -0.1301  0.2665  0.1607
 1333W        W17594   2.135   5.262  14.350 -0.4888 -0.1794 -0.0159
 1334W        W17595  13.733  18.660  11.141  0.1778 -0.0397  0.1875
 1335W        W17596   6.710   7.036  14.252  0.1218  0.1177 -0.1427
 1336W        W17597   1.818  15.374  14.307 -0.1288  0.0472 -0.3490
 1337W        W17598  19.438  15.690   2.872 -0.4569 -0.3736 -0.2318
 1338W        W17599  17.617   6.592   4.868 -0.0302 -0.2206  0.2137
 1339W        W17600   2.104  18.380   5.205  0.0735 -0.0347 -0.1555
 1340W        W17601  17.825  18.756  11.492 -0.0075 -0.1411 -0.3580
 1341W        W17602  12.513   0.642   1.710 -0.1610 -0.0180 -0.0116
 1342W        W17603   4.344  13.498  10.714 -0.1703  0.1692 -0.2401
 1343W        W17604  18.647  11.945   2.082  0.2310  0.0847 -0.1241
 1344W        W17605   2.192  11.603   5.090 -0.0087  0.0043  0.0363
 1345W        W17606   0.221  16.005  13.834  0.0138 -0.0585 -0.2278
 1346W        W17607   1.915  13.743  12.025  0.0598 -0.3361 -0.2975
 1347W        W17608   4.859   4.579   1.171  0.0083 -0.0602  0.1340
 1348W        W17609  18.297   3.321   1.243 -0.3126  0.3148  0.1052
 1349W        W17610  18.379   3.509   5.126 -0.0784 -0.2306 -0.2888
 1350W        W17611   1.195   5.523  12.316  0.0429  0.1505  0.0451
 1351W        W17612  17.844   4.965   2.451  0.2328 -0.1903 -0.0093
 1352W        W17613  12.998   6.307  13.765  0.3844 -0.1739 -0.1728
 1353W        W17614   6.382   6.913   0.039  0.4337 -0.0267  0.0437
 1354W        W17615  10.648  18.398   4.990 -0.0901  0.1784  0.1451
 1355W        W17616  15.444   8.275  13.504  0.0658  0.0185  0.1169
 1356W        W17617   1.911  10.591   0.915  0.0566  0.0366  0.2043
 1357W        W17618  10.923  14.586   0.723  0.3734 -0.0810 -0.0105
 1358W        W17619  11.465  12.036  12.314  0.3993  0.0769 -0.0690
 1359W        W17620  17.097  14.519   1.368  0.0332  0.0009 -0.0410
 1360W        W17621  12.860  12.084  12.525  0.2969  0.2612  0.0110
 1361W        W17622   5.195  16.077  10.688 -0.1371  0.0828  0.0320
 1362W        W17623   0.469   2.290  13.038 -0.1625  0.2245 -0.1440
 1363W        W17624  17.713   0.707   1.777 -0.5089  0.0540 -0.0328
 1364W        W17625   4.870  11.104   2.642 -0.0186 -0.2243 -0.4193
 1365W        W17626   9.207   0.699   0.354  0.3355 -0.0848 -0.1917
 1366W        W17627   8.006  11.022   2.460  0.2099 -0.0023  0.0848
 1367W        W17628   2.551   0.399   0.599  0.1888 -0.0741  0.0637
 1368W        W17629   6.117   1.207   0.933  0.1372 -0.0480  0.1235
 1369W        W17630  12.459   3.019  13.949  0.2552 -0.0494 -0.1266
 1370W        W17631  14.873  10.627  10.200  0.1039  0.2881 -0.0743
 1371W        W17632  16.915   4.348  11.936  0.2928 -0.0460 -0.0013
 1372W        W17633  13.526  12.584   1.299  0.0989  0.1227  0.0804
 1373W        W17634  13.618  16.847   3.628 -0.0107 -0.0298 -0.0101
 1374W        W17635   1.086  11.952   0.684 -0.4225 -0.3187  0.0451
 1375W        W17636  14.978   0.041  14.850 -0.2471 -0.0546  0.2020
 1376W        W17637   6.348  10.712  13.752 -0.0716  0.1690  0.1057
 1377W        W17638  10.975   7.681  13.374  0.1970 -0.2130  0.1418
 1378W        W17639  11.656  13.993   1.454  0.0601  0.2244 -0.0173
 1379W        W17640   1.394  14.649  12.453 -0.0347  0.1840 -0.1984
 1380W        W17641  18.389   6.049   0.992  0.0256  0.3104  0.0954
 1381W        W17642   2.593   7.718  14.330 -0.3902 -0.2070 -0.0277
 1382W        W17643   8.983   3.011  12.087 -0.0019 -0.1204 -0.0784
 1383W        W17644   2.840   0.759  14.518  0.0813 -0.0710 -0.0312
 1384W        W17645  12.781   9.013  12.428 -0.0916  0.3953 -0.2372
 1385W        W17646   2.006  15.848  13.123 -0.1606  0.3253 -0.0696
 1386W        W17647   8.875  17.368  12.708 -0.0922 -0.0377  0.1317
 1387W        W17648  16.649   0.907   4.631 -0.1346  0.1214  0.2008
 1388W        W17649  10.226  10.276  13.200 -0.2753 -0.0868 -0.1247
 1389W        W17650   7.121  13.147   4.230  0.0286 -0.3355 -0.1675
 1390W        W17651  16.165   1.622  10.740  0.1840  0.0628  0.0858
 1391W        W17652   4.707   8.025  13.367 -0.0442 -0.0160  0.0597
 1392W        W17653  14.035  12.380  14.041 -0.0679  0.1554 -0.0543
 1393W        W17654  16.143  11.305   4.678 -0.1215 -0.1014  0.2087
 1394W        W17655  12.869   9.884  12.974 -0.3814  0.1795  0.1268
 1395W        W17656  18.914  11.705  11.000 -0.0489  0.1717  0.0315
 1396W        W17657  18.113  12.062  12.535  0.0618 -0.0833  0.3337
 1397W        W17658   5.990   1.710   3.253  0.2517  0.0679 -0.1782
 1398W        W17659   1.867  10.920   0.404 -0.2249 -0.0795  0.2017
 1399W        W17660   8.811   6.364   4.596  0.4738  0.2863 -0.1587
 1400W        W17661   7.429  19.156  14.611  0.0616  0.3209  0.0882
 1401W        W17662  13.679  17.852  13.258 -0.1490 -0.1617  0.0181
 1402W        W17663   2.134   9.804   0.435  0.2593  0.0122  0.3294
 1403W        W17664   6.678  18.012   5.274  0.0577 -0.0459  0.0730
 1404W        W17665   9.566  15.418   4.325  0.7617  0.0869 -0.1170
 1405W        W17666  10.084   2.637  11.574 -0.0161 -0.1860  0.2953
 1406W        W17667   0.430  18.263   2.623 -0.0784 -0.3345 -0.0178
 1407W        W17668   1.072   4.096   0.549 -0.1349 -0.3749 -0.1970
 1408W        W17669  17.955  18.057  12.400 -0.2896 -0.0273 -0.0257
 1409W        W17670  12.016   5.679   1.760  0.3035  0.0292 -0.0684
 1410W        W17671  17.642   2.244   1.474 -0.0964 -0.2161  0.2360
 1411W        W17672   7.040  17.121  13.174 -0.1678  0.1808  0.1166
 1412W        W17673   3.094  17.819  14.032 -0.3569  0.1122  0.2003
 1413W        W17674   3.828   2.281  14.771 -0.0883  0.1407  0.4760
 1414W        W17675  13.994  14.266  12.618  0.1595 -0.0809  0.1256
 1415W        W17676  16.365   4.063  10.573  0.2801  0.3753  0.1970
 1416W        W17677   7.865  13.789   4.133  0.2691 -0.0192  0.0958
 1417W        W17678   3.578  15.593   0.653  0.1213 -0.1208  0.0556
 1418W        W17679   1.122  17.061  13.566 -0.0521 -0.2574 -0.3315
 1419W        W17680   2.470   6.794   4.298 -0.0918 -0.0905 -0.1980
 1420W        W17681  19.170   7.311   0.707  0.0625 -0.0455  0.0134
 1421W        W17682  11.518  15.454   4.285 -0.2369 -0.0029 -0.3441
 1422W        W17683   6.642   2.742  11.466  0.0508  0.2193  0.3873
 1423W        W17684  18.452   0.568  12.235  0.0381  0.1958  0.0712
 1424W        W17685  15.032  19.397   4.432  0.0657 -0.1489  0.0148
 1425W        W17686  18.893  15.213  14.372 -0.0601 -0.0032  0.0159
 1426W        W17687  14.541  15.232   3.711  0.0751  0.0486 -0.0396
 1427W        W17688   3.328  17.651   1.406 -0.0596 -0.0667 -0.0113
 1428W        W17689  14.962   6.019  13.080 -0.1175 -0.0943  0.0256
 1429W        W17690  15.004   0.618  14.237  0.0295  0.2222  0.2254
 1430W        W17691  12.377  15.211  12.545  0.1070  0.4607  0.1691
 1431W        W17692   0.745  10.026  14.406  0.0835 -0.0563  0.0396
 1432W        W17693   9.968   5.684   9.521 -0.3036  0.1649  0.0752
 1433W        W17694   6.294   0.966  13.243  0.3645 -0.3730 -0.4670
 1434W        W17695  12.085  17.756   4.138 -0.2709  0.0205  0.2995
 1435W        W17696  10.841   6.224   1.312 -0.1255 -0.0195  0.2406
 1436W        W17697   8.243   0.078  12.608  0.1074  0.1905 -0.0664
 1437W        W17698   4.773   7.687  10.838 -0.0892 -0.1391  0.2698
 1438W        W17699   9.726  15.798  11.174  0.4214  0.0566 -0.0712
 1439W        W17700   3.466   1.097   1.190  0.2157 -0.0780 -0.1828
 1440W        W17701   5.017  16.094   3.882 -0.3335  0.4003 -0.1749
 1441W        W17702  16.394  17.917  11.662  0.1842 -0.1385  0.0812
 1442W        W17703   3.034   1.665   4.268  0.1878  0.1265  0.0755
 1443W        W17704   0.966   8.300   6.018 -0.1896  0.0892 -0.1282
 1444W        W17705   3.513   7.962   3.179  0.0510  0.0045 -0.3183
 1445W        W17706  12.115   0.177  13.998 -0.1236  0.2218 -0.0156
 1446W        W17707   1.859   6.161   4.145 -0.5333 -0.0810  0.2661
 1447W        W17708  15.981   8.005  14.770 -0.2601 -0.1711 -0.2910
 1448W        W17709  12.815  12.902  14.473  0.3260 -0.0112  0.0494
 1449W        W17710  11.473  17.972  13.748 -0.0569  0.0313  0.0741
 1450W        W17711  15.270  18.255  10.244 -0.1084  0.1303 -0.0667
 1451W        W17712   4.560   5.780  13.178  0.3976 -0.1583  0.4559
 1452W        W17713  12.626  18.225  13.744  0.0986  0.0544 -0.0861
 1453W        W17714   3.656   0.120  13.453 -0.0008  0.1152  0.0827
 1454W        W17715   2.287  18.955   6.420  0.0697 -0.0195  0.3735
 1455W        W17716  16.403  10.526  12.016 -0.2250  0.2135  0.0242
 1456W        W17717   0.886   8.342   5.507 -0.1502  0.1953  0.2894
 1457W        W17718  18.503   7.474   5.034  0.2449 -0.1448  0.0028
 1458W        W17719   6.951  10.552   4.676  0.1870  0.2056  0.3008
 1459W        W17720  16.012  19.355   0.044  0.0432 -0.0327 -0.1016
 1460W        W17721  14.954  14.789  10.093  0.2627 -0.2774  0.1278
 1461W        W17722   6.613   0.158  13.309  0.0108  0.0062  0.1650
 1462W        W17723  15.910   5.270   3.995 -0.0765 -0.3622  0.2788
 1463W        W17724   6.696  11.874  12.076  0.2962 -0.5215 -0.2784
 1464W        W17725   5.454  18.636  13.708 -0.2218  0.0282 -0.1642
 1465W        W17726   7.353   0.605  11.596 -0.0728  0.1655  0.0758
 1466W        W17727  14.187   7.271   2.095 -0.0568 -0.2143  0.2093
 1467W        W17728  14.173   9.403  12.984 -0.0697 -0.1472 -0.0512
 1468W        W17729  18.360   6.370   1.471 -0.1372  0.1656 -0.0227
 1469W        W17730   1.512  14.367   4.463  0.0169  0.2176  0.0811
 1470W        W17731   1.669   5.429  12.286  0.1130  0.1787 -0.0077
 1471W        W17732  15.125  12.335  14.702  0.1151 -0.2974 -0.0372
 1472W        W17733  18.728   6.609   4.111  0.0379  0.0307 -0.0513
 1473W        W17734  13.710   3.194  14.337  0.1317 -0.2076 -0.1688
 1474W        W17735  11.903   4.427   1.852  0.1226  0.0980  0.0924
 1475W        W17736   7.030   6.990  13.716 -0.3955 -0.2492 -0.0825
 1476W        W17737   3.062  19.176   0.853  0.2205 -0.1225 -0.1252
 1477W        W17738   7.016  12.507   3.412  0.0030  0.0793 -0.0128
 1478W        W17739  15.466  11.831  10.584 -0.1195 -0.3166  0.1437
 1479W        W17740   9.813  15.355   0.438 -0.4708 -0.1702 -0.1045
 1480W        W17741  11.036  13.676   2.202  0.2219 -0.0388  0.1274
 1481W        W17742   0.022   4.097  11.546  0.0777 -0.0250 -0.0155
 1482W        W17743  11.156  18.915  10.413 -0.0899  0.0086 -0.0493
 1483W        W17744  12.849   4.946  12.614  0.4105  0.3007 -0.1636
 1484W        W17745  17.489   9.046  14.601 -0.1780 -0.2594 -0.2001
 1485W        W17746  18.398   5.262  10.554 -0.3914  0.0082  0.0206
 1486W        W17747   0.319  11.926  14.109 -0.3410 -0.1645  0.2569
 1487W        W17748  18.097  16.245   2.516  0.1029  0.3089  0.2089
 1488W        W17749  10.616   7.171   3.097  0.2809 -0.0226 -0.0088
 1489W        W17750   6.485   4.092   1.538  0.0215  0.2484  0.1043
 1490W        W17751  10.632   5.313  14.569 -0.0835 -0.0739 -0.0686
 1491W        W17752  16.544   7.500  10.884 -0.0100 -0.1128  0.3419
 1492W        W17753   9.314  12.047  13.329  0.0008 -0.3943  0.1829
 1493W        W17754   6.640   3.167   4.070 -0.1869  0.2599 -0.3705
 1494W        W17755   8.039  12.216   0.987 -0.0739 -0.0562  0.0682
 1495W        W17756   3.117   7.651   2.911 -0.0032 -0.2140  0.1858
 1496W        W17757  12.173  17.932  14.825 -0.0345  0.0050 -0.2405
 1497W        W17758   3.582   6.179   1.515 -0.0922 -0.3800 -0.1938
 1498W        W17759  12.596  12.962   0.370  0.1346 -0.0457  0.0265
 1499W        W17760  18.704   4.077  14.512 -0.0097  0.1566 -0.1437
 1500W        W17761  12.818   0.903   1.463  0.0893 -0.4014 -0.0304
 1501W        W17762  19.023  15.772   2.561  0.0415  0.0038 -0.3344
 1502W        W17763  11.315  13.433  10.287 -0.3783  0.0833  0.0961
 1503W        W17764   0.890   1.264  14.153  0.1014  0.0914 -0.5248
 1504W        W17765   3.550   5.404   0.764 -0.3267 -0.1162 -0.2277
 1505W        W17766   3.037   8.579   3.799  0.1756  0.0295 -0.2391
 1506W        W17767  17.397  13.381  11.167 -0.0098 -0.0383  0.1118
 1507W        W17768   6.124   0.960   2.962  0.0614 -0.0101 -0.3810
 1508W        W17769   8.904   0.210  14.802 -0.0931 -0.0579 -0.2370
 1509W        W17770  17.410  13.640  11.639  0.0701  0.2272 -0.1463
 1510W        W17771  17.798  15.400  10.991 -0.1877  0.1749 -0.1637
 1511W        W17772  17.595  15.608   4.033  0.0189  0.0823 -0.0524
 1512W        W17773  12.627   4.159  12.868  0.2975  0.2440  0.0839
 1513W        W17774  12.370  15.403  10.925 -0.0014  0.2387 -0.0629
 1514W        W17775  11.320  15.540  13.826 -0.2245 -0.1456  0.0470
 1515W        W17776  12.154  13.494   2.301  0.1929 -0.2341  0.3818
 1516W        W17777  12.753  18.535   2.302 -0.1691  0.0801 -0.0363
 1517W        W17778  17.143  17.213  14.515 -0.3104  0.0915  0.0729
 1518W        W17779   0.520  18.978   1.584  0.0669  0.0813 -0.0118
 1519W        W17780   5.133   7.576   5.709  0.0277  0.0658  0.2126
 1520W        W17781  17.293   7.029   5.049 -0.2200 -0.0210  0.2032
 1521W        W17782   8.384  14.707  13.816  0.0454  0.2591  0.1720
 1522W        W17783   7.440   2.071  12.017 -0.1811  0.1510  0.1385
 1523W        W17784  18.361   2.032  14.042 -0.1233  0.3736 -0.4199
 1524W        W17785   0.446  17.220  14.836  0.4384  0.1112 -0.1251
 1525W        W17786   0.774   2.695  12.398 -0.1170 -0.0072 -0.3555
 1526W        W17787  14.111   3.918   4.994 -0.1039  0.2872 -0.2350
 1527W        W17788   8.021   7.645  14.408 -0.1867  0.2557  0.0387
 1528W        W17789   6.236   7.489  12.856  0.1796  0.0521 -0.2329
 1529W        W17790  18.933  18.179  12.160 -0.0479 -0.2017 -0.3197
 1530W        W17791  18.003  14.649   2.135 -0.2055  0.0808  0.0034
 1531W        W17792  13.825   9.901   9.841  0.1839  0.1372 -0.1356
 1532W        W17793   7.997   3.931   2.756 -0.2345 -0.1744 -0.1022
 1533W        W17794  12.548  18.417   1.798  0.2166  0.0704  0.1374
 1534W        W17795   4.566   1.116  14.252 -0.1468  0.0268  0.0370
 1535W        W17796  19.238  14.832  12.376  0.0631  0.1656  0.0393
 1536W        W17797   0.752   4.272  13.996 -0.5844  0.0938 -0.2127
 1537W        W17798   9.811   0.087   5.091 -0.4098  0.0070 -0.1155
 1538W        W17799   3.701  17.241   1.204  0.1996 -0.0175  0.0118
 1539W        W17800  10.894  10.509   5.349 -0.0482 -0.1598 -0.2082
 1540W        W17801   4.817  12.982   4.264  0.1738  0.2080  0.1281
 1541W        W17802   5.968   9.327   0.863 -0.0597  0.1129 -0.2274
 1542W        W17803   9.034   3.046   1.626 -0.1189  0.3372 -0.1194
 1543W        W17804  11.960  14.511   1.054  0.0110  0.0799 -0.1724
 1544W        W17805   4.879  16.095   4.687  0.0916  0.0001  0.1366
 1545W        W17806  15.680  16.021  13.408  0.0720  0.0270  0.0947
 1546W        W17807   1.709   4.799   2.149 -0.0174  0.1843  0.0571
 1547W        W17808   7.413  12.203  13.380 -0.0481  0.0172  0.0973
 1548W        W17809   0.178   2.256  13.460  0.1801 -0.3220  0.1118
 1549W        W17810  17.881   3.276   3.156 -0.0890  0.1377  0.1286
 1550W        W17811   6.669  15.775  10.342  0.3703 -0.0977  0.0848
 1551W        W17812   2.933  17.358  13.384  0.1798 -0.0887 -0.0044
 1552W        W17813   7.834   2.561  11.936 -0.0277 -0.0226 -0.1139
 1553W        W17814   1.643  16.299  12.842 -0.1316 -0.0033 -0.1048
 1554W        W17815   8.596   1.070  13.455  0.2128 -0.2109 -0.2394
 1555W        W17816   5.262   6.757  13.641  0.3917  0.0344  0.0559
 1556W        W17817   8.765  13.767   4.192 -0.0213 -0.3137  0.0691
 1557W        W17818   2.697  15.097   0.892 -0.0110  0.3348 -0.1096
 1558W        W17819  14.515   5.463  11.649 -0.0288  0.0110  0.0596
 1559W        W17820  16.651   9.731  12.787 -0.0583  0.0020  0.3315
 1560W        W17821   5.707  15.735   2.806 -0.0921  0.0889 -0.3156
 1561W        W17822   1.978  17.473  14.326  0.2601  0.0886 -0.2373
 1562W        W17823   2.596   1.849  12.455  0.1711 -0.4004  0.0304
 1563W        W17824  11.839   2.570  12.304 -0.0842 -0.0497  0.4614
 1564W        W17825   3.321   9.433  12.086  0.1060 -0.1033 -0.1753
 1565W        W17826   8.894   8.173   0.984 -0.1642 -0.0033  0.0791
 1566W        W17827  14.909  13.043   4.370 -0.1736 -0.1177  0.0277
 1567W        W17828   3.463   8.476  14.338 -0.0694 -0.5713  0.0715
 1568W        W17829  19.228   5.277   4.799 -0.4889 -0.1191  0.2688
 1569W        W17830  17.004   0.055   0.058  0.2967 -0.0375  0.1035
 1570W        W17831  16.103   1.355   5.158  0.1173 -0.4552  0.1965
 1571W        W17832   4.144  16.808  11.571  0.4054 -0.0115 -0.1649
 1572W        W17833   1.568   0.515   5.830  0.0557 -0.0803  0.2017
 1573W        W17834   3.259   2.392  14.068  0.3308 -0.0420  0.2773
 1574W        W17835  11.681   8.284  13.151 -0.2335 -0.3249 -0.1652
 1575W        W17836   9.581   7.375  13.617 -0.3860 -0.0804  0.2016
 1576W        W17837   2.300  18.512   3.338  0.0880 -0.0026  0.1744
 1577W        W17838   3.536   0.681   4.234 -0.1198 -0.0690  0.1721
 1578W        W17839   8.980   9.788   4.780  0.2697 -0.0437 -0.2632
 1579W        W17840   5.909   0.556  11.806 -0.2133  0.1837  0.0064
 1580W        W17841   6.650  14.069  13.517  0.2364  0.1572  0.2204
 1581W        W17842   8.989   2.072   0.251  0.4166 -0.0187 -0.1564
 1582W        W17843  11.734   7.231  11.493 -0.0699  0.1722  0.4622
 1583W        W17844   8.884   5.999  11.325 -0.0631 -0.1352 -0.0568
 1584W        W17845   1.387   4.968   4.574 -0.1010  0.2563 -0.0208
 1585W        W17846  16.399   6.494  13.972 -0.1939  0.1047  0.2901
 1586W        W17847  14.000   0.359   0.527  0.0206 -0.3379  0.1925
 1587W        W17848  18.534  11.521  14.553 -0.2622  0.2809  0.1406
 1588W        W17849  16.162  10.385   1.193 -0.6610  0.1007  0.0637
 1589W        W17850   7.775   0.256  13.477 -0.0357  0.0708 -0.0431
 1590W        W17851  14.844   5.978  13.586 -0.1251  0.1528  0.3290
 1591W        W17852   6.458   2.013   0.022 -0.0098 -0.0680  0.0438
 1592W        W17853  18.579  17.494   4.131  0.3987  0.0639  0.0054
 1593W        W17854  13.267   9.259  10.898 -0.0329  0.0533 -0.1212
 1594W        W17855   1.082  14.352  13.997  0.4274  0.1260  0.1000
 1595W        W17856  16.718  12.031   3.128 -0.2058 -0.1979  0.0581
 1596W        W17857   9.230  10.676   3.042  0.0602  0.1477  0.1012
 1597W        W17858  18.101  13.238   4.846  0.1421 -0.0515  0.1730
 1598W        W17859   5.396  12.643  14.740 -0.2015  0.1447 -0.1842
 1599W        W17860  17.906   6.874   0.023  0.0620 -0.0997  0.2136
 1600W        W17861   2.098  17.668  13.028  0.2158 -0.0782 -0.2191
 1601W        W17862  11.306   5.672   1.084 -0.0877  0.1668  0.1586
 1602W        W17863   5.754   5.822   4.025 -0.1888 -0.2058 -0.2268
 1603W        W17864  13.113  10.150   2.147  0.3520 -0.1041  0.0156
 1604W        W17865  17.530  11.102  14.308  0.0384  0.0553  0.2590
 1605W        W17866   2.865  10.252  12.524  0.0165  0.3312 -0.0569
 1606W        W17867   6.695  19.373  12.178 -0.1917 -0.2291  0.0935
 1607W        W17868   0.622   4.491  11.858 -0.0908  0.0310 -0.1967
 1608W        W17869  15.524   1.623  11.222 -0.0898 -0.1094 -0.1733
 1609W        W17870   7.100  14.295   3.133 -0.2377  0.0676 -0.0883
 1610W        W17871   1.182  12.895  13.284  0.0351 -0.3128 -0.3866
 1611W        W17872   8.366  18.139  11.935 -0.1918 -0.2811 -0.1970
 1612W        W17873   5.510  12.191   2.083  0.4965 -0.0951  0.0742
 1613W        W17874  11.696  14.623  13.224  0.2798 -0.1750  0.2565
 1614W        W17875  13.711   5.446  11.183 -0.2349  0.1342  0.1749
 1615W        W17876   9.614   1.584   3.996 -0.1740  0.4283  0.0322
 1616W        W17877  11.618  16.442  14.590  0.0877  0.1121 -0.0513
 1617W        W17878  16.285   9.360   4.037 -0.0825  0.0739 -0.0387
 1618W        W17879   3.902   0.694   3.389 -0.0512  0.1079 -0.3297
 1619W        W17880  13.934   6.346  13.892 -0.5970  0.0148  0.1699
 1620W        W17881   1.275   7.303  11.010  0.3091 -0.3325  0.1154
 1621W        W17882  15.640   1.540   5.181 -0.0510  0.3169 -0.2947
 1622W        W17883  19.155  17.743   4.709 -0.0525 -0.2292 -0.0778
 1623W        W17884  14.073  12.452   4.269  0.0194 -0.4336  0.1727
 1624W        W17885  17.619   5.019   1.161  0.0030 -0.0340  0.0971
 1625W        W17886   2.390   3.715   1.650  0.2536 -0.1232 -0.2005
 1626W        W17887  15.786  18.103   2.318  0.2662 -0.0021 -0.3540
 1627W        W17888   0.414  12.366  12.982 -0.1795 -0.4780 -0.1131
 1628W        W17889   0.817   0.385  11.990  0.1327 -0.1376 -0.1292
 1629W        W17890   7.769  11.013  13.468  0.1279  0.0892 -0.1872
 1630W        W17891  17.362   3.936   1.372 -0.0605 -0.1852 -0.5627
 1631W        W17892   8.012  14.928  14.680  0.0079 -0.2821  0.1112
 1632W        W17893   7.145  17.019  11.674 -0.2196  0.2010  0.1831
 1633W        W17894  14.731  18.240   1.751 -0.1130  0.4667 -0.1339
 1634W        W17895   8.841  15.414   3.554 -0.0001  0.1760 -0.0754
 1635W        W17896  14.010   4.809   5.427  0.1684 -0.0968  0.2541
 1636W        W17897   5.574  13.258   3.124  0.0813 -0.3160  0.0265
 1637W        W17898   5.087  11.864  13.053 -0.1401 -0.1169  0.1251
 1638W        W17899  18.783   5.400   3.849  0.1883  0.1428 -0.0994
 1639W        W17900  15.876  19.030   3.521 -0.1234  0.3963 -0.0588
 1640W        W17901   3.005   2.620  13.700 -0.1510  0.0144 -0.1178
 1641W        W17902  15.545  11.760   3.109 -0.1387 -0.3272 -0.0682
 1642W        W17903   9.507  12.136   0.256  0.1051  0.3966 -0.0734
 1643W        W17904   3.188  19.343  13.466  0.0732 -0.2732 -0.0681
 1644W        W17905   3.802  18.449  10.478  0.0094 -0.0571 -0.2394
 1645W        W17906  13.880   7.934   3.914  0.0012  0.0542 -0.3055
 1646W        W17907  14.494   5.598   0.078 -0.0365 -0.4532 -0.2887
 1647W        W17908   4.616  16.293   2.612  0.1280  0.4386 -0.0051
 1648W        W17909   6.484  15.043   2.882 -0.2844  0.2036 -0.1017
 1649W        W17910   6.699  11.878   2.114  0.0089 -0.0907  0.1876
 1650W        W17911   5.762  18.207   2.007 -0.1814  0.0671  0.2364
 1651W        W17912   2.745   9.345  14.821  0.2730 -0.2643  0.1626
 1652W        W17913   5.701  19.155   4.174  0.0477  0.0473  0.4015
 1653W        W17914  12.861  11.842  13.271 -0.0029 -0.1288  0.3043
 1654W        W17915   5.504  17.748   3.238 -0.0134 -0.0639 -0.1237
 1655W        W17916   8.200  19.007   4.104  0.3464 -0.1842  0.1569
 1656W        W17917   3.067   2.966   3.866  0.3124  0.2008  0.0079
 1657W        W17918  12.967   9.529   0.596  0.1738 -0.2419  0.1206
 1658W        W17919  10.018  13.872  12.015 -0.0178  0.1945  0.2732
 1659W        W17920   5.071   5.186  11.433 -0.3344  0.0720 -0.0714
 1660W        W17921  15.965   2.260   3.801 -0.3249 -0.2069  0.1284
 1661W        W17922   8.548   6.854   1.564  0.1578 -0.4037 -0.0858
 1662W        W17923   3.318  18.020  11.408  0.1405 -0.3075 -0.0284
 1663W        W17924   6.929   1.820   4.369  0.2017  0.5910  0.0930
 1664W        W17925   8.775   2.213   4.610  0.0620 -0.0313  0.1315
 1665W        W17926  16.459   3.921  11.640 -0.1157  0.1692  0.1466
 1666W        W17927   5.980  13.371  11.817 -0.0198 -0.3577  0.2735
 1667W        W17928  12.461   8.658   0.030  0.0138  0.1028  0.0817
 1668W        W17929  10.459   4.379  11.348 -0.0982 -0.4804 -0.0789
 1669W        W17930   3.305   0.820  14.685  0.0033  0.1651 -0.0960
 1670W        W17931  18.060  18.813   5.255 -0.0453 -0.0836 -0.1789
 1671W        W17932  16.188   0.176   4.937  0.1654  0.1013  0.2910
 1672W        W17933   1.545  12.232   2.604  0.1636 -0.1020 -0.0642
 1673W        W17934   3.553  14.076   3.300 -0.1873  0.1757  0.0236
 1674W        W17935   7.054   8.672  10.619 -0.2242 -0.1562 -0.1007
 1675W        W17936   7.075  13.313   3.762 -0.0501  0.1495  0.0937
 1676W        W17937   6.938  18.480  10.312 -0.1265  0.0576  0.3108
 1677W        W17938  12.984   6.113   0.576 -0.2257  0.2513  0.1094
 1678W        W17939  15.563  12.725   3.828  0.1957  0.2565 -0.0718
 1679W        W17940  12.252   1.399   0.148 -0.0963  0.2761 -0.0670
 1680W        W17941   6.517  11.966  12.972 -0.0230  0.1864 -0.2653
 1681W        W17942   7.096   0.860   0.583  0.0925  0.2056  0.0485
 1682W        W17943   4.269   4.289   0.432 -0.0236 -0.0047 -0.4229
 1683W        W17944  15.404   1.687  12.389 -0.2697  0.3382 -0.1607
 1684W        W17945  17.261  17.496  10.436 -0.0782  0.1843  0.0668
 1685W        W17946  11.249   2.870   0.692  0.0095 -0.0496  0.5963
 1686W        W17947  13.671  15.380   2.700  0.0350 -0.0763  0.2192
 1687W        W17948   1.399  12.476   3.079  0.0376  0.1066 -0.1034
 1688W        W17949  15.088   8.938  14.593  0.1002 -0.0224  0.2301
 1689W        W17950  12.267  15.313   1.647  0.2206 -0.1702 -0.0988
 1690W        W17951   9.120  18.378  14.719  0.0444 -0.0374 -0.2849
 1691W        W17952   0.559   1.538   1.483 -0.2199 -0.1494  0.2258
 1692W        W17953  15.404  16.969  12.584 -0.2226 -0.0377  0.1359
 1693W        W17954  12.714   2.767  12.821 -0.1410  0.0870 -0.4015
 1694W        W17955  19.228  10.184   4.574 -0.0228 -0.1087  0.0282
 1695W        W17956   6.747   6.590  12.752  0.1638 -0.0263  0.1667
 1696W        W17957  18.206   1.558  10.782  0.0468 -0.1194 -0.1322
 1697W        W17958  10.137  17.687  14.519 -0.4604  0.3052  0.0087
 1698W        W17959   7.150   4.688   5.057 -0.1881  0.0058 -0.1924
 1699W        W17960  13.704  12.021  13.794 -0.1864  0.1173  0.1547
 1700W        W17961  12.988  19.128   2.911 -0.2937  0.1177 -0.1665
 1701W        W17962  12.628   9.486   0.250  0.1863 -0.0537 -0.2187
 1702W        W17963   9.054   1.016  13.146 -0.5211 -0.1423 -0.2285
 1703W        W17964  11.535   2.446   2.576  0.1918 -0.4729 -0.1110
 1704W        W17965   4.807   7.888   1.006 -0.1110  0.2151  0.0634
 1705W        W17966  11.110  17.174   2.945 -0.2334 -0.2405  0.1777
 1706W        W17967  11.907  17.619   1.636 -0.0549  0.2430  0.3509
 1707W        W17968  14.262   4.821   1.674 -0.1104  0.3675  0.2761
 1708W        W17969   2.013   2.720  11.772 -0.4605  0.1375 -0.0986
 1709W        W17970   2.695   6.980   2.277 -0.0550  0.1629 -0.0564
 1710W        W17971   9.779  10.720   0.730  0.2638 -0.0050 -0.2432
 1711W        W17972   0.182   3.528   3.541  0.0599  0.0541  0.2500
 1712W        W17973   9.917  18.456   1.135 -0.2261 -0.2788  0.2817
 1713W        W17974   8.254   2.169  13.187 -0.0487 -0.2125 -0.2797
 1714W        W17975   2.414   7.468   2.533 -0.2179 -0.0205 -0.3027
 1715W        W17976  18.413  16.994  10.684 -0.2329 -0.3080  0.0192
 1716W        W17977  19.097  13.110   1.898 -0.5403  0.1732 -0.1820
 1717W        W17978   4.399  10.133   2.382 -0.4312 -0.0452 -0.2406
 1718W        W17979   6.346  10.082   1.877 -0.2099 -0.0683  0.0804
 1719W        W17980  16.460  10.783   2.119 -0.3874  0.0640 -0.1776
 1720W        W17981  11.128  18.350   0.729 -0.0996 -0.1380  0.0487
 1721W        W17982  18.615  17.308  12.757  0.3351  0.3840 -0.1707
 1722W        W17983  13.456   9.327   0.562 -0.1777  0.0103  0.0776
 1723W        W17984   1.308  18.462   3.151 -0.0582 -0.1017  0.1368
 1724W        W17985  13.423   6.642  10.215 -0.3277  0.3528  0.0461
 1725W        W17986   7.136   4.633   1.696 -0.0109  0.2103 -0.1820
 1726W        W17987  18.711   1.105   3.890 -0.2006  0.0931 -0.2235
 1727W        W17988  13.310   1.809   1.075 -0.2027  0.0017  0.3589
 1728W        W17989   0.398   9.728  11.645  0.2554  0.0547 -0.2193
 1729W        W17990   5.464  18.524   0.079 -0.3839  0.3753  0.1478
 1730W        W17991  19.393  16.444   4.088 -0.2156  0.0595  0.0823
 1731W        W17992  15.076   8.578   1.186  0.1353  0.0219 -0.0858
 1732W        W17993  11.752   3.562  10.493  0.0846 -0.3351 -0.1379
 1733W        W17994   4.201  14.607  13.393 -0.3234  0.1859  0.0530
 1734W        W17995   7.399   9.705  10.378  0.0311 -0.0915  0.3356
 1735W        W17996   9.607  18.420   2.510 -0.3428  0.0192 -0.1619
 1736W        W17997  10.538  17.752  10.301  0.0938  0.1068 -0.0813
 1737W        W17998   8.615  17.089   4.111  0.0161 -0.0950  0.1297
 1738W        W17999   0.833   8.504  12.016 -0.2759  0.0216 -0.0011
 1739W        W18000  10.284  17.853  13.555  0.2668 -0.0953 -0.2712
 1740W        W18001  11.074   5.546  11.891 -0.3503  0.1492  0.0909
 1741W        W18002  13.471  16.366  14.121  0.1032 -0.0039 -0.0835
 1742W        W18003  10.831  15.521   0.212  0.0873  0.1610  0.3615
 1743W        W18004   8.703  14.554   0.744 -0.1670  0.2550  0.0989
 1744W        W18005  19.092   2.897   2.795  0.0885  0.3835 -0.1923
 1745W        W18006   7.281   8.846  12.861  0.0713  0.2727 -0.0596
 1746W        W18007   7.907   9.259   0.139 -0.1930 -0.1417 -0.1512
 1747W        W18008  14.577  16.268  12.650  0.1451 -0.1337 -0.0210
 1748W        W18009  11.236  13.468  13.602  0.0332 -0.1401 -0.0087
 1749W        W18010  18.144  18.299  14.190  0.1902 -0.2394  0.1669
 1750W        W18011   1.382  17.348   3.662 -0.0578 -0.1378 -0.1392
 1751W        W18012  15.970  12.923   0.195  0.1407 -0.1840 -0.2195
 1752W        W18013   3.439  18.132   4.834  0.1252  0.1604 -0.2742
 1753W        W18014   6.783  13.453  11.445 -0.0511  0.1632  0.0667
 1754W        W18015   0.330   3.483  14.099  0.2184 -0.1403 -0.1076
 1755W        W18016  11.767  14.752   5.009 -0.1405 -0.1350  0.3442
 1756W        W18017   5.274   1.004   1.137 -0.2719  0.1206  0.0275
 1757W        W18018   3.021   0.063  11.229  0.1965  0.0336 -0.0105
 1758W        W18019   6.802   3.742   1.472 -0.0132  0.1630  0.0466
 1759W        W18020   1.490  10.279   1.628  0.2146 -0.0403 -0.1748
 1760W        W18021   3.739   4.249   3.478 -0.7240 -0.2263  0.1316
 1761W        W18022  10.918  17.984  13.639 -0.1236  0.0632  0.0741
 1762W        W18023  18.487  10.469   3.792  0.3578  0.0903 -0.1309
 1763W        W18024   6.291  14.961  10.922 -0.0062  0.1141  0.1153
 1764W        W18025  17.995  18.366   0.353  0.1217 -0.2081 -0.2705
 1765W        W18026   7.443   6.114   5.041  0.0983  0.3392 -0.1303
 1766W        W18027   9.349  12.525   4.518  0.1127  0.1447 -0.2151
 1767W        W18028   9.562   8.842  10.171 -0.0890  0.0102  0.1363
 1768W        W18029   1.260  15.917   3.160  0.2865 -0.1345  0.0508
 1769W        W18030  16.533   4.078  12.117  0.1281  0.1712 -0.3295
 1770W        W18031  14.093  13.427   9.100  0.0675  0.2117  0.1976
 1771W        W18032   6.561   4.284   5.711 -0.2617  0.0142 -0.1592
 1772W        W18033  13.159   3.104  12.629  0.0661  0.0569  0.2293
 1773W        W18034   6.504  14.916  11.866  0.0181 -0.0071  0.0491
 1774W        W18035  14.580  11.796  10.120 -0.3959  0.1697  0.2895
 1775W        W18036   5.216  16.975   2.062  0.0207  0.0554  0.0203
 1776W        W18037  16.322  16.050  10.449 -0.0492  0.1231  0.0243
 1777W        W18038  12.189   1.041   2.621 -0.2870 -0.1398 -0.0232
 1778W        W18039   1.920   3.702  13.897  0.1872 -0.3032  0.1642
 1779W        W18040   3.496  16.082  11.767 -0.1790 -0.2914  0.2620
 1780W        W18041   5.425   1.393  13.047  0.0937 -0.1013 -0.0293
 1781W        W18042   8.259   6.842   2.488 -0.2840 -0.4370 -0.2967
 1782W        W18043   3.153   9.751  12.442  0.1519 -0.3084  0.0994
 1783W        W18044  17.070   0.668   4.101  0.0719 -0.2309  0.0403
 1784W        W18045   9.972   1.952  14.271  0.0988  0.0459  0.0216
 1785W        W18046   7.592   8.052   0.461  0.1079 -0.0524  0.0137
 1786W        W18047   4.366  16.419   4.430 -0.3178 -0.0793  0.0772
 1787W        W18048   5.809  18.299  12.804 -0.1759  0.1159 -0.1361
 1788W        W18049   7.119   6.115   4.111 -0.2440 -0.1599  0.0256
 1789W        W18050  12.023  10.907   4.097  0.3254 -0.0683  0.0778
 1790W        W18051  15.811  18.569   2.032  0.0550  0.0693  0.2849
 1791W        W18052   5.889  17.363   1.409 -0.2624  0.0385 -0.1187
 1792W        W18053   8.377   0.124   4.995 -0.0799 -0.0423 -0.2271
 1793W        W18054  15.404  13.817  13.203  0.0459  0.0212  0.0490
 1794W        W18055  13.901   4.009  14.673  0.0019 -0.2005  0.1457
 1795W        W18056   0.777   2.254   5.091  0.1561 -0.0792  0.1792
 1796W        W18057   7.623  11.902   3.659 -0.0264  0.0209 -0.2796
 1797W        W18058   1.750   6.798  13.679  0.2619  0.1589 -0.0139
 1798W        W18059  17.966  15.084   3.240  0.1467  0.0830  0.1672
 1799W        W18060   4.050  12.097   0.598 -0.4422 -0.0948 -0.0082
 1800W        W18061   8.807   0.769  11.455  0.0782  0.1311 -0.0601
 1801W        W18062   6.777   6.568   3.320  0.1539  0.2754  0.0555
 1802W        W18063   0.082   3.207   2.678 -0.0053  0.0045  0.0857
 1803W        W18064   4.398   9.401   3.496  0.4050 -0.2068  0.4459
 1804W        W18065   7.658  13.041   2.121 -0.2567 -0.0360 -0.1659
 1805W        W18066  18.372   5.819  14.580 -0.2089 -0.1006 -0.0819
 1806W        W18067   4.395   7.294   0.172 -0.1227  0.0316  0.0345
 1807W        W18068  16.198  17.257   0.003  0.2384  0.1256  0.2475
 1808W        W18069   9.839  19.032  14.680  0.0403 -0.5827 -0.2191
 1809W        W18070   6.997   1.802   1.811  0.2312 -0.3577 -0.1517
 1810W        W18071   1.003   8.242  14.443 -0.0894 -0.2172 -0.0801
 1811W        W18072   7.755  10.182  14.597  0.1934 -0.0150 -0.2108
 1812W        W18073   0.291   4.835   2.732  0.3475  0.3423  0.4514
 1813W        W18074  17.756   5.284  12.168 -0.1395  0.2741  0.1610
 1814W        W18075  11.007   7.716   0.560 -0.1660 -0.1668  0.2348
 1815W        W18076  16.085   8.374   2.310  0.1207 -0.0117 -0.3221
 1816W        W18077  14.646  18.777   1.628 -0.0218 -0.1474 -0.1223
 1817W        W18078  17.555  14.725   0.619 -0.1192  0.0333  0.1652
 1818W        W18079  12.617   8.130   1.032 -0.1138 -0.3394 -0.0259
 1819W        W18080  16.557  11.301   3.595 -0.3261  0.2398  0.0909
 1820W        W18081   4.500  12.341  12.439  0.1820 -0.0122  0.1451
 1821W        W18082  17.869   6.368   0.134  0.2887  0.0886  0.2628
 1822W        W18083   2.067   0.719  13.126  0.2141 -0.0552  0.2816
 1823W        W18084   5.653   8.596   2.858 -0.2807  0.1187  0.3835
 1824W        W18085  18.801   8.680   1.614 -0.2594 -0.0625 -0.4840
 1825W        W18086   3.752  17.730  13.432 -0.1425 -0.2013 -0.0127
 1826W        W18087  15.821  11.865   0.361 -0.1676 -0.3296  0.1826
 1827W        W18088  18.181   1.015  14.710  0.1248  0.3175  0.1210
 1828W        W18089  10.895   2.893   4.425  0.0787 -0.7856 -0.0405
 1829W        W18090  17.298   2.604   1.214  0.1675 -0.3615  0.0358
 1830W        W18091  16.616  17.023   2.179  0.4977  0.1520  0.0587
 1831W        W18092   8.422   9.060   0.191 -0.4258 -0.3395  0.4169
 1832W        W18093   5.736   1.037   0.481 -0.2239  0.2706 -0.0779
 1833W        W18094   7.989   6.750  12.128 -0.0040 -0.3043  0.0546
 1834W        W18095   3.901   8.016  12.179 -0.0684  0.1576  0.0061
 1835W        W18096  16.305  14.095   9.670 -0.1469 -0.0977 -0.0125
 1836W        W18097  12.524  11.603  10.370 -0.4003 -0.1562  0.0509
 1837W        W18098  17.080   7.910   3.105  0.1397  0.0982  0.0325
 1838W        W18099   5.464   6.717   3.115  0.2730 -0.2790 -0.2016
 1839W        W18100  17.033   9.260  12.240 -0.0891  0.1347  0.1706
 1840W        W18101  16.640   2.181   3.739 -0.1447  0.0448 -0.0085
 1841W        W18102  14.284   0.094   2.868 -0.1548 -0.1927  0.2522
 1842W        W18103  18.950  16.487   2.298  0.0709  0.4335  0.2599
 1843W        W18104   9.436  17.181   1.433  0.0760  0.2881 -0.3117
 1844W        W18105  18.840   9.293   3.914 -0.2485 -0.0703  0.1917
 1845W        W18106   4.957  16.053   1.680 -0.1389 -0.4874 -0.1237
 1846W        W18107  17.125   0.288   2.535  0.1612 -0.3656  0.1202
 1847W        W18108  19.118   7.649  14.640  0.1453  0.1452  0.0892
 1848W        W18109  18.950  12.417   1.172 -0.0878 -0.2917 -0.0090
 1849W        W18110  18.373   0.729  11.674  0.1219 -0.3045 -0.2588
 1850W        W18111  12.226  12.599   2.962  0.1386 -0.1735  0.0491
 1851W        W18112   7.536  17.668  12.841  0.2460  0.0198  0.0113
 1852W        W18113  18.346  10.484   3.305  0.0709  0.4234  0.1017
 1853W        W18114  17.819  12.199  10.250  0.2135  0.0179  0.1591
 1854W        W18115   9.733   2.469   9.748 -0.0450 -0.0034  0.0500
 1855W        W18116  12.632  17.839  14.349  0.1787 -0.1769  0.0090
 1856W        W18117   5.365   1.109   2.233 -0.0406  0.2393 -0.0150
 1857W        W18118  14.359  17.598   3.160 -0.2348  0.2938 -0.0257
 1858W        W18119   4.637  16.981   3.511  0.1685  0.1655 -0.1418
 1859W        W18120  15.998   5.192  11.515 -0.1251  0.3094  0.1555
 1860W        W18121  15.509  12.331   9.595  0.3033  0.0599 -0.1764
 1861W        W18122  17.016  10.842  12.804  0.1203  0.0644  0.0960
 1862W        W18123   9.201   5.838   2.838  0.0570  0.0980  0.1869
 1863W        W18124  10.461   3.937   4.124 -0.1952 -0.1495  0.0199
 1864W        W18125   7.503   6.597  12.220 -0.1534  0.2298  0.0982
 1865W        W18126   2.485   8.608  14.274 -0.1687  0.0212  0.0770
 1866W        W18127   5.489  16.450  10.569 -0.1862  0.3482  0.0022
 1867W        W18128   8.694   1.421   1.071  0.2932  0.1685  0.2928
 1868W        W18129   2.824   3.238   0.076  0.0007  0.0160 -0.1174
 1869W        W18130   2.401   0.263  12.969 -0.0433 -0.1155  0.1309
 1870W        W18131  14.179   5.764   5.666 -0.2738  0.0460 -0.0224
 1871W        W18132   6.882   1.750   3.593  0.4162 -0.1244 -0.2812
 1872W        W18133   8.426  15.484  10.109 -0.1612  0.2388 -0.0449
 1873W        W18134   2.201  12.889  14.071 -0.0510 -0.1824 -0.1867
 1874W        W18135  18.551  17.303   1.788  0.5242 -0.1543 -0.2047
 1875W        W18136   2.581   2.808   0.360 -0.1795 -0.0848 -0.2009
 1876W        W18137   7.550   7.852   3.812  0.0556 -0.1560  0.2103
 1877W        W18138  11.258  15.896  11.748  0.0318  0.0205  0.0982
 1878W        W18139   0.249   5.289   1.654  0.0271  0.1053  0.2302
 1879W        W18140  16.027   4.219  11.944 -0.2561  0.1974 -0.0488
 1880W        W18141   8.644  14.367  14.627  0.1188 -0.3170  0.3155
 1881W        W18142   5.647  13.825   0.222 -0.5241 -0.0871  0.0468
 1882W        W18143  19.431  17.108   0.806  0.2777  0.2905 -0.0966
 1883W        W18144  15.600   2.621  12.872 -0.0400 -0.1757 -0.1233
 1884W        W18145   2.982   8.260   1.766 -0.2610  0.0281  0.0926
 1885W        W18146   2.004   8.100   0.803 -0.1508 -0.2430  0.0969
 1886W        W18147   6.828  17.012   4.493 -0.1826  0.1577  0.1117
 1887W        W18148   5.463   0.047  13.339 -0.3087 -0.1019 -0.0714
 1888W        W18149  18.733   5.688   1.074  0.0702  0.1076 -0.1010
 1889W        W18150  10.582   3.052   9.165 -0.0623 -0.1408 -0.0326
 1890W        W18151   8.266  19.371  11.785  0.2505 -0.0188  0.1173
 1891W        W18152  15.197  10.610  11.908 -0.2002  0.1821  0.0449
 1892W        W18153  14.219   5.368  11.127 -0.0762 -0.3803 -0.0765
 1893W        W18154  14.197   4.312   4.653  0.0151  0.2630  0.0816
 1894W        W18155  10.094  12.608  14.128  0.0950  0.0407  0.0034
 1895W        W18156   0.651  14.411   1.991 -0.0801  0.0489  0.3425
 1896W        W18157   1.292  15.115  12.589 -0.1025 -0.2305 -0.0887
 1897W        W18158  13.207  11.189   1.336 -0.2636 -0.1838  0.2551
 1898W        W18159   8.815  12.979   3.461  0.0055 -0.0923 -0.2873
 1899W        W18160  11.318   4.043   2.917 -0.3438  0.1314  0.0643
 1900W        W18161   0.644   0.413  13.108 -0.2395 -0.2643  0.1044
 1901W        W18162  16.573   6.555   4.924  0.2595 -0.1628  0.0331
 1902W        W18163  12.984  10.245  12.586  0.1902  0.0792  0.2315
 1903W        W18164  11.075  18.853  14.163  0.0809 -0.4204 -0.0442
 1904W        W18165  15.670   3.140   1.702  0.2279 -0.2548 -0.1782
 1905W        W18166   1.572   8.232  12.695  0.0535  0.1372  0.0594
 1906W        W18167  17.644  11.090   0.577 -0.2154  0.1287 -0.0167
 1907W        W18168   7.163   4.872   2.168 -0.0854 -0.1983 -0.0774
 1908W        W18169   1.137   2.855  11.440 -0.1620 -0.0785 -0.1520
 1909W        W18170   1.842   9.290   4.280 -0.1071 -0.3373  0.0143
 1910W        W18171  10.343  15.534   0.172  0.0303  0.1944 -0.1733
 1911W        W18172   7.140  18.453   3.538  0.3893 -0.0416  0.0332
 1912W        W18173   5.540  14.093  13.392  0.1123  0.2441  0.1250
 1913W        W18174   0.100   5.226   0.665 -0.1008 -0.1662  0.2464
 1914W        W18175  15.291   5.981  11.611 -0.2176  0.1666 -0.1744
 1915W        W18176  10.869   2.236  13.418  0.3263 -0.2484  0.1282
 1916W        W18177  18.953   5.067  11.329  0.1395  0.1847  0.2673
 1917W        W18178   5.293   7.331   0.016 -0.3491  0.1075  0.2539
 1918W        W18179  16.731   2.894   2.619  0.1904 -0.0822  0.4341
 1919W        W18180  19.009   6.055  13.770  0.4712  0.1488  0.1023
 1920W        W18181   5.043  14.958   0.042 -0.3069 -0.0973  0.1391
 1921W        W18182  16.552   9.533   3.021  0.1683  0.0727  0.0465
 1922W        W18183  15.532   1.272   2.119 -0.1639 -0.1589  0.4550
 1923W        W18184   4.165   3.785   0.624 -0.0613  0.1352 -0.1360
 1924W        W18185  14.716  18.851   5.246 -0.0987 -0.0600 -0.1404
 1925W        W18186  12.524   2.820  11.820  0.1715 -0.3268  0.3749
 1926W        W18187   6.920   6.745  10.929  0.4923  0.0526  0.1199
 1927W        W18188   7.988   9.066   1.036 -0.3530 -0.0544  0.1949
 1928W        W18189   8.872  12.291   4.438 -0.0321 -0.1550  0.1794
 1929W        W18190  14.931   0.615  10.954 -0.3172 -0.1360 -0.2348
 1930W        W18191  16.543   0.517   3.502 -0.3132  0.3153  0.1056
 1931W        W18192  15.651   0.045  12.154 -0.2570 -0.0915  0.1239
 1932W        W18193   4.656   2.835   2.161  0.2719  0.2385 -0.0852
 1933W        W18194  17.876   6.996  12.840 -0.4622  0.0716  0.2108
 1934W        W18195   2.626  17.907   2.713 -0.3045 -0.1145 -0.1365
 1935W        W18196   7.947   7.775  10.853  0.0703  0.0687 -0.0331
 1936W        W18197  12.210   8.859  10.856  0.3537  0.0128 -0.1783
 1937W        W18198   9.045   7.198  10.263 -0.1226  0.3529 -0.1088
 1938W        W18199   6.888   9.258  12.710 -0.1929  0.0334  0.1014
 1939W        W18200   3.681   4.037   4.153  0.3293  0.0687 -0.2939
 1940W        W18201   3.698  16.917  12.312 -0.2034 -0.2746 -0.1736
 1941W        W18202   2.812  11.064  13.460 -0.1560 -0.4453 -0.0394
 1942W        W18203  14.931   3.542   2.107  0.0852 -0.2464 -0.2010
 1943W        W18204  15.266  14.231   0.630 -0.0614  0.0824 -0.1648
 1944W        W18205   9.632  12.452  13.665  0.0726 -0.1164 -0.0630
 1945W        W18206  18.611   4.373  10.992  0.4740 -0.3274  0.1408
 1946W        W18207  19.101   2.871   5.522 -0.0238 -0.0314  0.1555
 1947W        W18208  13.084   2.456   0.471 -0.0799  0.0410  0.0779
 1948W        W18209  14.480   3.716  10.953  0.4556 -0.1559 -0.1072
 1949W        W18210  14.422  16.903  11.479  0.0001  0.2654 -0.0171
 1950W        W18211  13.808  15.711   9.897 -0.2412 -0.0550  0.0231
 1951W        W18212   2.860  13.735  13.629  0.1191 -0.0463 -0.0243
 1952W        W18213  14.835  14.903   8.936 -0.0982  0.1501  0.0438
 1953W        W18214   6.228   2.534   0.883  0.0961  0.3564  0.1325
 1954W        W18215  10.838  17.342  14.217  0.0431  0.2994  0.0019
 1955W        W18216   5.669  11.759   5.249 -0.1058  0.1904 -0.0463
 1956W        W18217  17.905  18.327   2.890 -0.0278 -0.2374  0.2385
 1957W        W18218   7.314   2.340   2.838 -0.2394 -0.3264  0.1131
 1958W        W18219  10.730  13.825   1.164  0.2784 -0.1287 -0.1704
 1959W        W18220   6.974   0.607   1.926 -0.0272  0.0658 -0.1018
 1960W        W18221  14.538   6.798  11.165 -0.0756  0.4142 -0.0554
 1961W        W18222  16.251   2.506   1.561 -0.0624  0.1687 -0.1807
 1962W        W18223   4.509   4.382   3.920  0.1483 -0.0925  0.0193
 1963W        W18224  16.743   4.407  11.432  0.0601  0.0603  0.0326
 1964W        W18225   4.563  13.122   2.742  0.0604 -0.0840 -0.1456
 1965W        W18226  10.271   8.241   1.943 -0.2281  0.0029  0.1793
 1966W        W18227   9.836  12.066  12.525  0.1391 -0.3628  0.1015
 1967W        W18228  10.444  17.420  12.405 -0.0830  0.5543  0.1437
 1968W        W18229  19.187   0.067  13.942  0.1060 -0.1200 -0.0700
 1969W        W18230   9.417   2.659  13.232 -0.1251 -0.0015 -0.1472
 1970W        W18231  19.439   9.610   3.209  0.1484  0.0991  0.0783
 1971W        W18232   1.951   5.481  10.221 -0.0333  0.0598  0.4297
 1972W        W18233   4.235  18.472   0.645 -0.2156  0.1008  0.2693
 1973W        W18234  18.712   2.446  11.733 -0.1982 -0.0566 -0.0981
 1974W        W18235   6.159   6.475  10.961 -0.0059 -0.1050  0.2626
 1975W        W18236   2.672   2.770   4.262  0.1414 -0.2706  0.4144
 1976W        W18237  13.733   5.073   0.177  0.0159  0.0808  0.0014
 1977W        W18238  19.127   6.265  14.284  0.2253 -0.3446 -0.0242
 1978W        W18239  10.058   2.579  12.110  0.1899  0.0263  0.4333
 1979W        W18240  14.551   9.309   3.840  0.1351  0.2292  0.3398
 1980W        W18241   5.923  17.689   2.209 -0.1796  0.1927  0.1756
 1981W        W18242  11.472  15.971   4.390 -0.3153 -0.1188 -0.0074
 1982W        W18243   6.252   9.021   5.005  0.1509 -0.1312 -0.2164
 1983W        W18244  13.008  16.357   0.052  0.1674 -0.2315  0.1493
 1984W        W18245  17.086   3.295  12.761  0.1641 -0.0026 -0.3822
 1985W        W18246   1.326   3.537  13.743  0.1070  0.2361  0.0530
 1986W        W18247   1.144  16.541  10.852  0.0827 -0.1066  0.1786
 1987W        W18248  15.809   6.563  11.309 -0.3478 -0.1343 -0.0534
 1988W        W18249  15.331   7.565  12.076  0.0255  0.0493 -0.1638
 1989W        W18250   3.682   4.477   0.891 -0.0228  0.1575  0.2461
 1990W        W18251  12.395   8.970   4.438  0.0128 -0.0892  0.1785
 1991W        W18252  11.735   2.050  12.361 -0.0761 -0.3620  0.0637
 1992W        W18253   8.496   8.223   5.344  0.1114  0.2527 -0.2341
 1993W        W18254  19.451   2.613   2.579 -0.0239  0.0705 -0.0497
 1994W        W18255   1.727  17.575   4.886 -0.1688 -0.1753  0.1965
 1995W        W18256   6.240   4.988   0.290 -0.3770 -0.1087  0.0100
 1996W        W18257   3.817   8.056   0.177 -0.2495  0.1769  0.3029
 1997W        W18258  11.828  14.636   1.537 -0.0291 -0.5295  0.2859
 1998W        W18259   8.492   0.365   4.549 -0.0945  0.0880  0.0606
 1999W        W18260  16.732   0.338   4.606  0.3945 -0.0137  0.0094
 2000W        W18261  16.408  16.859   9.978  0.1011  0.1947  0.2925
 2001W        W18262   6.332  14.006   3.196  0.0224 -0.0924 -0.1577
 2002W        W18263   2.143   9.492  10.063 -0.1325  0.2165 -0.1498
 2003W        W18264  12.711   4.632   3.730 -0.4891  0.0264  0.0517
 2004W        W18265   0.563   1.604  11.764 -0.0356 -0.2201 -0.0355
 2005W        W18266  18.168  12.380   1.568 -0.4798 -0.1423  0.1920
 2006W        W18267   8.044  14.071  12.924  0.1193 -0.0259  0.1035
 2007W        W18268  16.360   9.418   4.600 -0.3349 -0.0037 -0.0098
 2008W        W18269  18.078   4.493  13.249  0.0940  0.0423 -0.2062
 2009W        W18270  14.384   9.473   0.004  0.2739  0.3620  0.4179
 2010W        W18271  11.628  16.477  11.689  0.1728  0.1851  0.3177
 2011W        W18272   8.444   9.615   4.899 -0.2949 -0.1998 -0.1185
 2012W        W18273  14.087  13.819  10.139  0.0892  0.1507  0.2585
 2013W        W18274  10.480   0.260   3.661  0.1768 -0.1526  0.4431
 2014W        W18275   3.790   1.615  12.712 -0.1757  0.2931  0.0105
 2015W        W18276  15.234   1.807   5.327 -0.1795  0.0364  0.1184
 2016W        W18277   8.384  11.934   2.472  0.2651 -0.1341 -0.3012
 2017W        W18278   0.131   6.153   4.661  0.2200  0.1202  0.3109
 2018W        W18279   5.731   7.159   3.040 -0.2613 -0.0781 -0.1018
 2019W        W18280   7.228   6.733   0.616  0.4506 -0.1900 -0.0838
 2020W        W18281  12.826  15.494   1.686 -0.0299 -0.0250  0.1134
 2021W        W18282   3.832   1.438   0.905  0.0900 -0.0301 -0.2221
 2022W        W18283   5.621  19.008   0.072 -0.0287 -0.0944 -0.0918
 2023W        W18284   0.237  14.325   3.044  0.1836 -0.0651 -0.1808
 2024W        W18285   1.062   3.663   3.361  0.2672 -0.1827  0.1707
 2025W        W18286  16.673  10.924  11.583 -0.2301 -0.3132 -0.2745
 2026W        W18287   0.343   3.399  12.412 -0.0881 -0.1784  0.3523
 2027W        W18288  12.730  17.449  12.166 -0.0979  0.3995 -0.1347
 2028W        W18289   0.572   3.392   1.842  0.3973  0.1761  0.2245
 2029W        W18290  18.772   2.413  11.222 -0.0804 -0.2323 -0.1940
 2030W        W18291   9.058  13.041  12.314  0.1284 -0.2224  0.0577
 2031W        W18292   1.659   8.340   3.708 -0.1012  0.0702  0.0648
 2032W        W18293  12.977  13.842   4.705  0.0841  0.1971  0.1775
 2033W        W18294  10.680   0.208   1.372  0.2840  0.0925  0.1387
 2034W        W18295   9.265  11.285   0.307  0.1337 -0.0133  0.3009
 2035W        W18296  11.800  17.272  14.307 -0.2568  0.2667 -0.1155
 2036W        W18297   1.477  18.556  12.926  0.0878 -0.0121 -0.1435
 2037W        W18298  14.528   9.074   4.606 -0.2606 -0.1160  0.0456
 2038W        W18299  10.296  12.386   4.888  0.0943 -0.1126  0.3201
 2039W        W18300   5.778   5.781  13.292  0.0338  0.0484  0.0291
 2040W        W18301  16.299   5.111   5.474 -0.0648  0.0481  0.0004
 2041W        W18302  11.180  13.086   0.709  0.0761 -0.0790  0.3332
 2042W        W18303   6.171   0.904   0.046 -0.1887  0.0332 -0.0489
 2043W        W18304   9.117   3.132  11.136  0.2943 -0.1341 -0.0839
 2044W        W18305   6.131   6.888  13.229 -0.0132  0.2695 -0.2661
 2045W        W18306  15.046   5.631  11.893  0.0822 -0.1435 -0.2571
 2046W        W18307   6.329   5.238  12.558 -0.6838  0.0075 -0.0183
 2047W        W18308   4.291  14.104   2.840 -0.3156 -0.2326  0.0532
 2048W        W18309  14.157   1.519   3.594  0.0087  0.2570 -0.1564
 2049W        W18310  17.444  11.809   1.948  0.0380 -0.0367 -0.0641
 2050W        W18311   8.078   5.181   4.482 -0.2487  0.0799 -0.2670
 2051W        W18312   8.930   4.926   0.411 -0.1308 -0.0773  0.0721
 2052W        W18313  16.210  16.259   2.375 -0.2801  0.0837 -0.3669
 2053W        W18314   0.906  14.673  12.172 -0.0144  0.2703 -0.0337
 2054W        W18315   2.272   8.867  12.665  0.1311  0.0600 -0.3547
 2055W        W18316  15.377  10.185  10.631 -0.1826  0.1630 -0.3398
 2056W        W18317  17.333  15.792   2.604  0.1610 -0.0133  0.0758
 2057W        W18318  18.058  10.445   2.517 -0.3002  0.0188 -0.1407
 2058W        W18319   4.347  11.739   1.478 -0.2560 -0.2233  0.3244
 2059W        W18320   9.295  18.987   4.379 -0.0519 -0.0922 -0.1521
 2060W        W18321   6.197  19.384   3.005  0.2651  0.0068  0.2290
 2061W        W18322  12.807   4.221  11.669 -0.0086 -0.0826 -0.1417
 2062W        W18323   6.333  17.907   3.735 -0.2797  0.3490 -0.1868
 2063W        W18324  10.828   0.938   2.268  0.1340 -0.2676 -0.0299
 2064W        W18325   2.712  13.725   3.351  0.1330  0.4647  0.0252
 2065W        W18326  13.036  15.079   3.703 -0.1908 -0.1220  0.0212
 2066W        W18327  13.174   3.578   1.699  0.0737 -0.0686  0.1062
 2067W        W18328   7.157   6.649   2.301  0.1777 -0.0681  0.0021
 2068W        W18329   7.408  18.912   4.873 -0.0984 -0.4905 -0.1734
 2069W        W18330   0.886   3.173  10.191  0.1473 -0.1568  0.1967
 2070W        W18331  19.256  11.042   1.903  0.0031 -0.0700 -0.0953
 2071W        W18332  13.862  10.972   2.726  0.0537 -0.0471  0.0255
 2072W        W18333  18.540  10.366   0.964  0.3899 -0.1159 -0.1704
 2073W        W18334  10.574  11.331   4.225  0.0641 -0.2524 -0.0140
 2074W        W18335   0.066   8.993   0.961 -0.3184 -0.1197  0.2178
 2075W        W18336  11.874   7.185   3.532  0.0381 -0.2131  0.0872
 2076W        W18337   4.598   6.424   0.327 -0.2080  0.0724  0.2125
 2077W        W18338   9.410   6.546  11.582 -0.0693  0.4392 -0.0532
 2078W        W18339  16.511  12.974   2.939  0.1758 -0.2114 -0.1879
 2079W        W18340   7.626   4.209  13.069 -0.0818 -0.1594 -0.0257
 2080W        W18341   5.117  12.156   4.173  0.0496 -0.0426  0.1716
 2081W        W18342  12.330  18.591   0.898  0.1776 -0.0162 -0.0120
 2082W        W18343   1.795   8.201   2.692 -0.0548  0.2788 -0.0475
 2083W        W18344   1.095  18.371   5.232  0.0931 -0.3396 -0.3611
 2084W        W18345   4.894  18.464   0.851 -0.2544 -0.1289  0.0704
 2085W        W18346  10.370   7.129   2.668 -0.1427 -0.0761  0.4453
 2086W        W18347  13.650   2.086   4.939  0.0924  0.0594 -0.0161
 2087W        W18348  10.646  17.939   4.196 -0.0066  0.1378  0.0303
 2088W        W18349   7.846  14.889  10.619 -0.0671 -0.0371  0.0433
 2089W        W18350   4.597   0.153  14.523 -0.4775  0.2465 -0.2379
 2090W        W18351   8.573  10.548   5.262 -0.1422 -0.0376 -0.1076
 2091W        W18352  10.863   8.337   4.495  0.1418  0.4096 -0.2452
 2092W        W18353   3.134  19.324  12.580 -0.5205 -0.1364  0.0180
 2093W        W18354   0.780  10.654   2.993 -0.1755  0.0284 -0.3177
 2094W        W18355   1.066  13.889  14.494 -0.3775  0.3390  0.0056
 2095W        W18356   0.609   9.145   5.053  0.0640  0.2928 -0.1295
 2096W        W18357   2.058  14.945   4.785  0.0263  0.2654 -0.0145
 2097W        W18358  16.460   1.400  13.290  0.0042  0.1130  0.3241
 2098W        W18359  15.534   8.567   3.151 -0.4356 -0.2862  0.1217
 2099W        W18360   0.229  13.100  14.411  0.0867  0.0829 -0.6084
 2100W        W18361  16.924  13.216   2.596 -0.0460 -0.0260  0.0284
 2101W        W18362  13.034   1.289  14.011  0.5937 -0.2108  0.0860
 2102W        W18363   3.730   2.862  14.360 -0.0106  0.0465 -0.2449
 2103W        W18364  18.020   1.422  12.643  0.1965 -0.0618 -0.5136
 2104W        W18365   5.548  17.907   0.634 -0.2153 -0.0626 -0.1422
 2105W        W18366  18.680  19.229   3.252  0.1921 -0.3390  0.2969
 2106W        W18367  18.241  10.170  12.511  0.3080 -0.1237  0.3293
 2107W        W18368   5.420  11.110  11.053  0.2011 -0.0959 -0.3532
 2108W        W18369   2.690   1.265  11.197  0.3281 -0.0586 -0.2153
 2109W        W18370  11.060   2.194  12.990  0.2798 -0.3763 -0.0979
 2110W        W18371  14.740  15.996  12.155  0.2713 -0.1747 -0.1662
 2111W        W18372  13.676   7.534   2.111 -0.0870 -0.2455 -0.0331
 2112W        W18373  10.251   4.690   1.989 -0.0454 -0.2445  0.1702
 2113W        W18374  17.608  12.592   0.804 -0.0958  0.2183  0.4142
 2114W        W18375   9.899   2.653  10.967 -0.0511  0.3647  0.3748
 2115W        W18376  17.979   3.392   4.356  0.2033  0.3616 -0.0654
 2116W        W18377  19.067  15.417   9.814 -0.1869  0.5515 -0.0521
 2117W        W18378   5.966   2.015  11.825 -0.0938  0.0556 -0.2510
 2118W        W18379   4.034  10.676  14.809  0.1037 -0.0309 -0.1104
 2119W        W18380  12.354   1.573  12.650  0.0671 -0.0159 -0.0630
 2120W        W18381   7.828  12.310  10.706 -0.0319  0.1466  0.0350
 2121W        W18382  18.371   3.126  14.388  0.2562  0.0948  0.0980
 2122W        W18383   1.550  13.079   1.470  0.2037 -0.0142  0.0644
 2123W        W18384   0.859  16.017   9.705 -0.0223 -0.1743  0.3573
 2124W        W18385  19.059   1.554   1.363 -0.3908  0.1087 -0.2040
 2125W        W18386   0.763  19.330   4.357  0.0471 -0.0286 -0.1039
 2126W        W18387  13.079  18.478  11.659 -0.0739  0.1473 -0.2525
 2127W        W18388   3.276   1.890  14.029  0.0008  0.2064  0.3292
 2128W        W18389   0.397   6.166  13.791  0.2358 -0.0764 -0.4541
 2129W        W18390  15.951  15.123   1.759  0.3697 -0.3202  0.0376
 2130W        W18391   0.919  10.035  13.446  0.0456  0.3060 -0.1464
 2131W        W18392  13.795  15.535   5.109 -0.1215 -0.0023  0.1669
 2132W        W18393  15.457   2.371  13.328 -0.2338 -0.0785  0.1769
 2133W        W18394  12.502   0.147   1.845 -0.3808 -0.2800  0.1365
 2134W        W18395  15.146  17.245   2.357  0.1842  0.1924  0.0152
 2135W        W18396   8.816   8.389  14.613  0.1531 -0.0838 -0.0952
 2136W        W18397  11.172   8.436  13.085  0.1565 -0.0627  0.1362
 2137W        W18398  18.968  10.941  14.194  0.1039  0.3699  0.0435
 2138W        W18399  10.787   8.703  13.191  0.0962 -0.2131  0.0050
 2139W        W18400  14.240  10.598   2.759  0.1280  0.2821  0.1739
 2140W        W18401  19.079  17.768   4.005  0.0148 -0.1116 -0.0260
 2141W        W18402  14.520  14.752  12.126  0.2862 -0.1663  0.2603
 2142W        W18403  10.185   6.400  11.889 -0.1530 -0.1137 -0.0010
 2143W        W18404   2.355   1.652   3.513  0.0986  0.0221 -0.0529
 2144W        W18405   0.188  16.381   2.249 -0.3332 -0.2924  0.0243
 2145W        W18406   8.026   3.582  13.341  0.0066  0.0005  0.1947
 2146W        W18407   4.512   1.921   1.700  0.1869 -0.2055 -0.1212
 2147W        W18408   5.294   0.690   1.886  0.0147  0.2121  0.0459
 2148W        W18409  15.880  12.392   0.136  0.1450 -0.3172  0.2586
 2149W        W18410  14.781   6.831  12.494  0.0929  0.2392 -0.0763
 2150W        W18411   5.040   8.963   4.580  0.1612  0.3215  0.2427
 2151W        W18412   7.012  19.210  12.567 -0.4907 -0.0577  0.0410
 2152W        W18413   1.691   2.002   4.168  0.2785  0.3156  0.0886
 2153W        W18414  15.885   6.746  10.844 -0.1093  0.1156  0.0039
 2154W        W18415  10.349   3.362   1.526 -0.1114 -0.0018  0.0003
 2155W        W18416   9.660   6.657  12.046 -0.2760 -0.0853  0.2700
 2156W        W18417   4.492  10.557   3.892 -0.0993  0.0418  0.0323
 2157W        W18418   2.412  12.106   5.244 -0.2720 -0.1412 -0.0127
 2158W        W18419   0.307  14.217   0.042 -0.0441  0.1041 -0.2484
 2159W        W18420  15.162   3.913  11.686 -0.2301 -0.1425 -0.0673
 2160W        W18421   8.533   0.282  14.067 -0.1575  0.4617 -0.0434
 2161W        W18422   4.991   6.016   0.433 -0.0233 -0.0311  0.0685
 2162W        W18423   7.266   4.456  11.462 -0.0121 -0.0371 -0.3255
 2163W        W18424  15.843   7.403   2.005  0.0557  0.3124 -0.1113
 2164W        W18425   6.414  17.929  14.460  0.0870  0.1861 -0.3483
 2165W        W18426   2.214   8.649   5.369  0.1210 -0.3464  0.3018
 2166W        W18427  14.315   0.888  11.678 -0.0519 -0.2808 -0.0370
 2167W        W18428   5.146   1.692   5.165  0.0118 -0.0175 -0.1718
 2168W        W18429  16.969  15.317   0.879  0.0842  0.0055  0.0772
 2169W        W18430   3.721  17.916  13.881  0.0401  0.3001  0.0448
 2170W        W18431   0.820   4.401   1.538 -0.0621 -0.1981 -0.3042
 2171W        W18432   2.371   8.265  12.354 -0.3132  0.0282  0.1771
 2172W        W18433   5.551  10.125   2.336  0.2033 -0.3319  0.5155
 2173W        W18434  15.210   5.870   3.094  0.1159 -0.3840  0.1561
 2174W        W18435   6.812   2.367  12.722 -0.1576 -0.0175 -0.0650
 2175W        W18436   6.024  10.272   1.484 -0.0127 -0.1662  0.0864
 2176W        W18437   6.315   3.438   1.370 -0.1222  0.0400 -0.1013
 2177W        W18438   9.560   2.243   0.178 -0.1614  0.1664 -0.2023
 2178W        W18439  18.763   7.590  10.836  0.0635 -0.0292  0.0077
 2179W        W18440   6.810  15.601  13.044 -0.0087  0.2900 -0.0527
 2180W        W18441   8.343  17.666  14.579  0.1636  0.0550  0.1168
 2181W        W18442  13.209   1.851  11.247 -0.1823 -0.1569  0.3125
 2182W        W18443  13.202  15.370  10.386  0.1462 -0.1069  0.2468
 2183W        W18444  10.598  11.989  11.785  0.0166  0.0972  0.0681
 2184W        W18445   1.578  15.558  13.753 -0.0079  0.0901 -0.2197
 2185W        W18446  10.512  15.053   4.237 -0.0416 -0.0548 -0.1286
 2186W        W18447  15.717  10.986   1.930 -0.0551  0.0221  0.2085
 2187W        W18448   1.953  18.856   5.127 -0.5895  0.1643 -0.1080
 2188W        W18449   5.364   1.712   1.455  0.0784  0.2244  0.0463
 2189W        W18450   9.179   5.601  11.247 -0.2605  0.0598 -0.1617
 2190W        W18451   4.235   2.393   1.233 -0.2227  0.0388  0.2302
 2191W        W18452   9.092   7.344   4.116 -0.2974  0.0223  0.1460
 2192W        W18453  10.843  14.332   0.326  0.1388 -0.0119 -0.0984
 2193W        W18454   3.353  15.041   5.509  0.2899 -0.1175  0.2074
 2194W        W18455   7.872  15.516   1.947  0.2734 -0.3338 -0.0817
 2195W        W18456   8.399   3.597   2.914 -0.1278 -0.0999 -0.2567
 2196W        W18457  14.165   8.327  13.623 -0.0429  0.1044  0.1359
 2197W        W18458   0.056   8.952   4.166  0.4020  0.0052 -0.2470
 2198W        W18459  12.586   1.156  12.928 -0.1866  0.1793 -0.0435
 2199W        W18460  14.759  16.021   3.131 -0.3159 -0.0970 -0.1152
 2200W        W18461   7.831   5.921   9.194  0.4203 -0.1981  0.0939
 2201W        W18462  18.325  14.650  14.054  0.0532  0.0157  0.0514
 2202W        W18463   9.878  15.524  14.870  0.4761 -0.0776  0.1562
 2203W        W18464   1.198   0.450   4.159 -0.1448 -0.0543 -0.0979
 2204W        W18465  17.974  17.965  13.129  0.0328 -0.0305  0.0393
 2205W        W18466  12.984  17.958   3.389  0.2713 -0.2384  0.1605
 2206W        W18467   5.240  16.404  14.013 -0.0702 -0.0357 -0.0182
 2207W        W18468   2.187  11.304   0.611 -0.0499 -0.2895 -0.2524
 2208W        W18469   7.768  11.735  12.511 -0.2034  0.0437 -0.0312
 2209W        W18470  15.277  11.143  13.780  0.2239 -0.1657 -0.1892
 2210W        W18471   7.748   7.369  14.881 -0.2362  0.0029 -0.1616
 2211W        W18472  15.371   8.965   2.871 -0.1892 -0.1527  0.0463
 2212W        W18473   3.113  12.933  13.779 -0.2640 -0.1813  0.1370
 2213W        W18474   3.483   2.814  12.847  0.0986  0.3365 -0.1477
 2214W        W18475  12.121   8.465   2.014  0.0039 -0.0886  0.1123
 2215W        W18476  16.840  13.628  12.193  0.0100  0.2367 -0.2190
 2216W        W18477   5.090   9.466  14.142 -0.0471  0.0462 -0.2215
 2217W        W18478  12.010  14.979  10.838 -0.0312  0.0729  0.2488
 2218W        W18479  14.713  17.685  11.015  0.2963  0.1403 -0.0847
 2219W        W18480   3.329   5.319   1.846  0.2418  0.0657 -0.0616
 2220W        W18481   7.780  14.279   0.240 -0.1778  0.1930  0.1867
 2221W        W18482   4.702   3.918   3.700  0.1889  0.3321 -0.2848
 2222W        W18483  15.078  10.832  14.826  0.1537  0.4540 -0.0915
 2223W        W18484  12.145   2.798   4.846  0.0158  0.0762  0.2336
 2224W        W18485  14.743   4.226  12.262 -0.0352 -0.3059  0.0587
 2225W        W18486  17.528  13.553  10.643 -0.0394  0.0335  0.0442
 2226W        W18487   2.739   5.816   4.538  0.2429  0.5029 -0.3455
 2227W        W18488   9.625  18.775   0.887  0.0921 -0.0187 -0.0514
 2228W        W18489  17.589  17.431   1.450  0.0249  0.3529  0.0687
 2229W        W18490   7.590  16.137  12.420 -0.3082 -0.0124  0.1605
 2230W        W18491   6.041   3.568  11.262  0.2007  0.1161 -0.0093
 2231W        W18492  14.264   1.353  14.201 -0.1788 -0.1465 -0.1222
 2232W        W18493   1.354   8.605  14.534  0.0278 -0.0610  0.3924
 2233W        W18494  13.686  11.336   1.752  0.0754 -0.1851 -0.2637
 2234W        W18495  17.240  12.536   4.366  0.0478 -0.2191 -0.1751
 2235W        W18496   8.549  10.112   0.812  0.0812 -0.0834  0.2050
 2236W        W18497   2.355   5.634   2.208  0.2896  0.0655 -0.1929
 2237W        W18498  18.359  13.770   3.444  0.2675  0.0771  0.1440
 2238W        W18499   2.637   6.055  13.196  0.2332  0.0482 -0.3099
 2239W        W18500   6.474  10.567   0.888 -0.0662 -0.1235  0.3267
 2240W        W18501  16.295  11.207  13.519 -0.1619  0.4670 -0.0453
 2241W        W18502  15.630  16.870   0.663 -0.2696 -0.2105  0.3405
 2242W        W18503  13.859  13.143  13.948  0.0113 -0.0849  0.2423
 2243W        W18504  17.612   2.111   4.584 -0.1331  0.0118 -0.1701
 2244W        W18505  11.078  15.288  12.632 -0.0429  0.0620 -0.1818
 2245W        W18506  18.774   5.077   4.636 -0.5840 -0.2796 -0.0672
 2246W        W18507  19.140   5.844  13.325  0.0539 -0.1834 -0.0171
 2247W        W18508  13.856   9.666  10.606  0.0965  0.0520 -0.1901
 2248W        W18509   5.174   9.436   1.919  0.5027  0.0254  0.0332
 2249W        W18510  14.885  15.668   2.668 -0.4243  0.0169 -0.0227
 2250W        W18511   1.090   7.879   5.169  0.0322 -0.3256  0.0567
 2251W        W18512  15.109  18.684  10.481 -0.2387 -0.0384  0.2986
 2252W        W18513   2.329   8.025   1.220  0.2991  0.1826 -0.0144
 2253W        W18514  16.093   9.730  10.862  0.3626  0.3208 -0.2442
 2254W        W18515   1.791  14.235  13.306  0.5876  0.2127  0.2553
 2255W        W18516  16.979  17.604  11.073  0.4153  0.0519 -0.0291
 2256W        W18517   2.873  18.744   1.245 -0.2949 -0.2045 -0.3147
 2257W        W18518   4.820  18.851   2.468 -0.3219 -0.1194  0.0792
 2258W        W18519   1.123   6.573   4.483  0.0677  0.2181 -0.0304
 2259W        W18520  13.720  17.387   0.368 -0.2290 -0.3855  0.1715
 2260W        W18521   7.236  18.468  12.939 -0.2532  0.3100  0.1637
 2261W        W18522   4.686  14.858  12.783 -0.2857 -0.0318  0.3001
 2262W        W18523   0.043  18.148  10.753 -0.1735 -0.0161 -0.2315
 2263W        W18524   0.534  16.518   4.916 -0.1654 -0.1441 -0.1482
 2264W        W18525  14.336   7.957   1.385 -0.4382 -0.0020 -0.2511
 2265W        W18526   3.713   2.150   3.227 -0.2950 -0.1649  0.0959
 2266W        W18527  14.628   9.965  12.305 -0.2910  0.0928  0.3802
 2267W        W18528   3.008  12.243  11.278 -0.0534  0.0674 -0.0184
 2268W        W18529  14.239  19.091  12.336 -0.5416 -0.2654  0.2568
 2269W        W18530   5.108   2.534   3.950  0.1279 -0.1491  0.3260
 2270W        W18531   4.248  16.029  14.265  0.4025  0.2675 -0.2732
 2271W        W18532   4.458  18.151   0.367 -0.3469 -0.0206 -0.0389
 2272W        W18533   6.277   1.996  10.873 -0.0387  0.1589 -0.2008
 2273W        W18534   5.228   7.102   0.497  0.0209 -0.1910 -0.0315
 2274W        W18535   5.825   3.513  13.549  0.0033 -0.1469  0.0541
 2275W        W18536   3.744  13.303   4.914 -0.0042 -0.2301 -0.2602
 2276W        W18537  12.948  11.844   1.507 -0.1758 -0.0663 -0.1319
 2277W        W18538  15.015  17.916   3.466 -0.0584  0.1658  0.0635
 2278W        W18539  12.567  14.033  13.593 -0.1165  0.1608  0.0916
 2279W        W18540  18.386  12.052   4.377 -0.1361  0.0011  0.0176
 2280W        W18541  12.094   9.874   1.608  0.1133  0.1807  0.1143
 2281W        W18542  11.134   8.889   4.134  0.2429 -0.1456 -0.2054
 2282W        W18543   3.063   6.156   4.698 -0.1055  0.1689  0.1486
 2283W        W18544   4.334   0.778  13.648 -0.0042 -0.0531 -0.0346
 2284W        W18545  11.252   3.218   1.552  0.0765  0.1230 -0.0685
 2285W        W18546  13.773   5.552   2.860  0.2723 -0.1405 -0.0252
 2286W        W18547  12.554  14.276  11.138 -0.1079  0.2906 -0.1604
 2287W        W18548  14.776   8.194   1.420  0.0810 -0.3551  0.1520
 2288W        W18549  11.537  19.197  14.105 -0.0602  0.0059 -0.1109
 2289W        W18550  17.569  18.945   1.540  0.0731  0.0202  0.0858
 2290W        W18551  16.622  13.375  11.788  0.3389  0.0747  0.1322
 2291W        W18552   0.014   2.590   3.830  0.0767  0.0803 -0.0889
 2292W        W18553   7.084  13.445  10.372 -0.1103  0.0418 -0.1800
 2293W        W18554   8.714   6.106  11.774 -0.1752 -0.1515 -0.2321
 2294W        W18555   1.311  15.775   0.144 -0.2063 -0.0687  0.1899
 2295W        W18556   2.265   8.463  11.860 -0.2321 -0.0661 -0.1789
 2296W        W18557  10.819   9.971  11.126  0.1128 -0.0815 -0.1105
 2297W        W18558  19.424  10.818   1.053 -0.0430  0.0215 -0.1592
 2298W        W18559   5.737   0.516   0.516  0.1331  0.4327 -0.0091
 2299W        W18560  16.354  18.704   3.449  0.2031  0.0780  0.1732
 2300W        W18561   2.769   6.101   1.546 -0.0122 -0.0510 -0.1447
 2301W        W18562   8.652   6.221  13.228 -0.0234  0.3343 -0.0048
 2302W        W18563   3.912  11.218   1.699  0.0914 -0.0090  0.0182
 2303W        W18564   7.478  15.916   1.712  0.4470  0.1876 -0.1053
 2304W        W18565  10.591  14.509  10.341 -0.0235 -0.0735 -0.0789
 2305W        W18566   4.127   8.131  10.559 -0.4367  0.2613  0.2516
 2306W        W18567   0.950   3.220  12.423  0.0300  0.3655  0.0123
 2307W        W18568  18.142  13.070   5.342  0.0558  0.0751  0.0840
 2308W        W18569   6.388  16.714   2.797  0.0656  0.1593 -0.2116
 2309W        W18570   3.184   7.449  12.097 -0.0165  0.2961 -0.4225
 2310W        W18571  18.159   0.181   0.461 -0.0013 -0.1845  0.0925
 2311W        W18572   0.422   6.230   5.080 -0.0098 -0.0508  0.0054
 2312W        W18573   8.139   5.212   3.983 -0.3373 -0.0521  0.1961
 2313W        W18574  11.815   5.658  14.871  0.0433  0.3286  0.2120
 2314W        W18575   0.317   3.266  12.975  0.0066 -0.1136 -0.1823
 2315W        W18576  17.775  17.658  12.820 -0.1522  0.2500  0.0272
 2316W        W18577  14.243   3.491   4.647  0.2161 -0.1714  0.0200
 2317W        W18578  11.816  13.244   2.019  0.0694 -0.1225  0.0393
 2318W        W18579  12.847  11.399  11.159  0.0243 -0.2508  0.1048
 2319W        W18580  18.353   7.007   3.828 -0.2021  0.1261  0.1428
 2320W        W18581   8.786   4.400  13.492  0.0616 -0.2125  0.1430
 2321W        W18582   7.323   8.660   4.746  0.3002 -0.2684 -0.0827
 2322W        W18583  19.363   7.832  10.135 -0.1727 -0.0074  0.0158
 2323W        W18584   1.921   9.210   1.154  0.2704  0.0308  0.2479
 2324W        W18585   3.715   3.849  12.852 -0.2517  0.3558 -0.1150
 2325W        W18586  11.272   2.186   1.562  0.0393  0.2520  0.2213
 2326W        W18587  18.259  10.941   1.637 -0.0295 -0.1761  0.0755
 2327W        W18588  16.846  18.908  12.667  0.1433  0.0582 -0.4926
 2328W        W18589  12.571   6.919   0.169  0.1618 -0.1501  0.0382
 2329W        W18590  14.625   5.634  13.183  0.1642 -0.1628  0.0984
 2330W        W18591  14.159   6.482   2.839 -0.1670 -0.2702 -0.0439
 2331W        W18592  12.802  15.204   0.186 -0.1403  0.0994  0.0007
 2332W        W18593   1.757  12.920  13.654  0.0306  0.0770  0.2493
 2333W        W18594  13.460  16.738  14.456  0.1763 -0.2038  0.0733
 2334W        W18595   6.192  10.544   1.915  0.0452 -0.1784 -0.0579
 2335W        W18596  17.720   6.397  11.122 -0.3006  0.3997  0.0149
 2336W        W18597   7.676   0.777   2.102 -0.2542 -0.2350  0.1286
 2337W        W18598  14.729  19.193  13.798 -0.1823 -0.0054  0.2675
 2338W        W18599   5.564  12.919  14.397 -0.0502 -0.2164 -0.1602
 2339W        W18600   5.398  13.054  12.546  0.2272 -0.0208 -0.0429
 2340W        W18601   3.521   1.731   3.652  0.1294  0.3679  0.1136
 2341W        W18602  18.525  12.861   3.944  0.0283  0.6067 -0.0110
 2342W        W18603   8.160  10.544   1.040  0.3846 -0.1533  0.0048
 2343W        W18604   3.793  11.631   0.137 -0.1840 -0.3749  0.2046
 2344W        W18605  17.331  19.036  12.896 -0.0603 -0.0148 -0.1143
 2345W        W18606  10.594   7.589  11.421 -0.2134 -0.3009 -0.1259
 2346W        W18607  10.631  18.796  13.937  0.2633 -0.0888  0.0319
 2347W        W18608   6.688  14.629  13.518 -0.2044  0.1335  0.2056
 2348W        W18609   5.625  14.959  13.587 -0.1608 -0.0654 -0.1841
 2349W        W18610   8.447  14.575  11.488  0.0759 -0.1754 -0.0659
 2350W        W18611   0.933   1.908   5.449  0.3512 -0.0589 -0.1302
 2351W        W18612   9.554   8.640   1.514 -0.0040 -0.0036 -0.0598
 2352W        W18613  14.209   5.619   4.480 -0.1339  0.1513 -0.1488
 2353W        W18614   2.427   4.346   0.287 -0.3620 -0.0120  0.1504
 2354W        W18615   3.696  12.727   2.089  0.1423  0.3852 -0.1219
 2355W        W18616   3.314  18.811  11.554  0.3644  0.1231  0.0355
 2356W        W18617   8.802  18.840   1.056 -0.1536  0.1130  0.0510
 2357W        W18618   8.357   1.458   4.465 -0.1732  0.1418 -0.0450
 2358W        W18619  10.571  14.742   1.425 -0.0526 -0.1635  0.2000
 2359W        W18620  14.255  12.547  14.488  0.2082  0.0155 -0.1798
 2360W        W18621  14.011   8.456   3.849 -0.0843  0.4156  0.1118
 2361W        W18622   7.191   6.830   5.811 -0.2025 -0.0386 -0.1618
 2362W        W18623   8.290   8.693   0.925 -0.2899  0.0275  0.2970
 2363W        W18624   2.569  12.899   2.406 -0.0476  0.1177 -0.1470
 2364W        W18625  13.441  11.775   3.841  0.1861 -0.0225 -0.2458
 2365W        W18626   3.233   8.120   2.739  0.0388 -0.2607 -0.2635
 2366W        W18627   7.336  11.332   0.184 -0.0280  0.0542  0.1659
 2367W        W18628  19.124   7.068  14.614 -0.1346  0.0823 -0.4775
 2368W        W18629   6.923   7.645  12.335  0.2007  0.0267  0.2394
 2369W        W18630   9.487   9.705  10.264 -0.0019 -0.2948 -0.3979
 2370W        W18631  13.637  16.989   1.034 -0.1677 -0.2724  0.1157
 2371W        W18632  17.872   9.289   0.637 -0.2321  0.0984 -0.0160
 2372W        W18633   6.492   4.218   4.165 -0.1589 -0.1474  0.1229
 2373W        W18634  12.088  16.524  11.460 -0.1535  0.1622 -0.1002
 2374W        W18635  16.223   7.524  10.453  0.0358  0.4086 -0.1581
 2375W        W18636   8.185  13.694  12.552  0.1139 -0.1371 -0.2228
 2376W        W18637   6.221  14.499  13.649 -0.0397  0.0557  0.3972
 2377W        W18638   1.163   7.047  14.522  0.0754 -0.0640 -0.2632
 2378W        W18639  15.673   9.392   0.150  0.1422  0.0961  0.0564
 2379W        W18640  13.530  18.583  12.517 -0.2155  0.0621  0.2125
 2380W        W18641   8.798   6.939   4.420 -0.2474 -0.2697 -0.0162
 2381W        W18642  14.755  15.699   4.863 -0.2117  0.0869  0.0611
 2382W        W18643  16.522   1.365   3.111  0.0999 -0.1794 -0.0149
 2383W        W18644  18.311   5.830   4.309  0.1307  0.0264 -0.2890
 2384W        W18645  11.006  11.716  13.764 -0.1058 -0.1647 -0.3315
 2385W        W18646   9.031  17.836  10.428 -0.0097  0.2764 -0.0073
 2386W        W18647  17.163   5.735   1.547  0.0439 -0.2359  0.2974
 2387W        W18648   9.077   3.964   1.049  0.0411 -0.1433  0.1047
 2388W        W18649  10.585  12.413  12.005  0.1278 -0.1607 -0.0276
 2389W        W18650  18.762  10.246   4.350  0.1558  0.0700 -0.0547
 2390W        W18651   6.289  17.043   4.453 -0.1557 -0.0756  0.1119
 2391W        W18652  10.776   7.291  12.799 -0.0772  0.0702 -0.3015
 2392W        W18653  14.254   7.045  12.874 -0.1744  0.1655 -0.2953
 2393W        W18654  13.703   9.365  14.268  0.2508  0.0810 -0.1348
 2394W        W18655   4.350   1.354  12.918 -0.3544  0.1385  0.2434
 2395W        W18656  13.475   0.391   0.339 -0.1001 -0.2078 -0.1297
 2396W        W18657   9.088   0.766   1.521 -0.1276 -0.2498  0.1183
 2397W        W18658   6.092   1.175  10.419 -0.3711 -0.1160  0.1921
 2398W        W18659  10.646   1.341   3.838 -0.2400 -0.3201  0.2874
 2399W        W18660  14.519   9.678  11.939 -0.1907 -0.0843 -0.0266
 2400W        W18661  18.869  10.261  12.645  0.2429 -0.0204  0.0742
 2401W        W18662  14.825   1.519  10.513 -0.0951  0.0658  0.0599
 2402W        W18663   3.740   2.243   5.672  0.0890  0.0666 -0.2259
 2403W        W18664  14.050  13.888  12.088  0.2888  0.1357  0.3842
 2404W        W18665   7.672   6.602   4.999  0.3070 -0.0240  0.1139
 2405W        W18666  18.369   8.276   3.570 -0.1025 -0.2041 -0.0463
 2406W        W18667  16.242  13.158   1.272  0.0997  0.1371  0.0818
 2407W        W18668  14.039  11.472   2.595 -0.1336  0.0687 -0.1666
 2408W        W18669  18.356  15.072   4.316  0.0098  0.0941 -0.0166
 2409W        W18670   8.013   8.706   1.409 -0.3125 -0.0659  0.2400
 2410W        W18671   3.981  14.141   4.222 -0.3405 -0.1725 -0.1837
 2411W        W18672   6.887   2.743  14.136  0.1462  0.0514 -0.0275
 2412W        W18673  14.316  10.079   5.241 -0.1285  0.1409  0.0339
 2413W        W18674   5.456  13.396  13.521  0.1401 -0.2455 -0.1479
 2414W        W18675  13.139  19.090   3.958  0.2948 -0.1275 -0.1161
 2415W        W18676   1.205  18.976   4.501 -0.0949  0.1580 -0.0397
 2416W        W18677  14.137   6.392   3.312  0.3441 -0.1311 -0.5349
 2417W        W18678   4.058  12.964   3.534 -0.0567  0.0215  0.1344
 2418W        W18679   1.620  17.334   2.607  0.0358 -0.2646 -0.1465
 2419W        W18680   4.162  13.265   2.500  0.0204 -0.1117  0.0323
 2420W        W18681   5.273  12.713   1.134  0.1407 -0.2141 -0.0407
 2421W        W18682   9.349   8.267   1.798 -0.2594 -0.2889 -0.0593
 2422W        W18683   1.724   4.306   3.235 -0.3859  0.0309 -0.2232
 2423W        W18684  13.227   5.153   3.505  0.0116  0.2377  0.3208
 2424W        W18685  10.500   7.946  11.856 -0.1543 -0.1147  0.3549
 2425W        W18686  17.770  15.499   2.588 -0.0288 -0.3310  0.0305
 2426W        W18687  15.443   8.420   0.926 -0.2070  0.0054  0.2837
 2427W        W18688   4.409   0.623   2.248  0.1050 -0.1043  0.2374
 2428W        W18689   4.865   0.357   0.629  0.3028  0.6756 -0.2561
 2429W        W18690   6.488   1.139   1.336  0.0761 -0.0609 -0.1405
 2430W        W18691  17.653   9.033   2.805  0.1160 -0.0099 -0.2286
 2431W        W18692  14.972   8.298  11.963 -0.1045 -0.2538 -0.2648
 2432W        W18693  19.346  14.759  10.315  0.2208  0.3918 -0.1971
 2433W        W18694   5.039  10.450  10.848  0.0184 -0.0495  0.0680
 2434W        W18695  15.355   4.369  13.983 -0.2708  0.3443 -0.0863
 2435W        W18696   9.063   8.039  13.598 -0.1393 -0.1418  0.0378
 2436W        W18697   7.431   6.474   0.254 -0.2775  0.0418 -0.0805
 2437W        W18698  12.526  17.219  11.724 -0.1795 -0.1410  0.1067
 2438W        W18699   7.591   8.854   3.156 -0.0938 -0.0996 -0.3231
 2439W        W18700  17.141   5.252   0.016  0.1867 -0.1037  0.1068
 2440W        W18701  12.108   0.804  13.131  0.0065  0.0681 -0.0684
 2441W        W18702   7.177  16.159  11.093 -0.0385 -0.1634  0.0868
 2442W        W18703  16.390  10.826   2.639 -0.1709 -0.0932  0.2511
 2443W        W18704  10.871  12.061  14.165 -0.2859 -0.4446  0.1820
 2444W        W18705   8.779   1.234  10.793 -0.2315 -0.0076  0.0510
 2445W        W18706  17.303  18.593   0.192 -0.2448  0.0911  0.3336
 2446W        W18707  11.748  12.176   1.147  0.0082 -0.3078 -0.0903
 2447W        W18708   7.593  11.278  12.663  0.0051 -0.1501 -0.2977
 2448W        W18709   5.493   2.852  11.227  0.0470  0.2098  0.0412
 2449W        W18710  18.349  13.404  10.654 -0.2385 -0.1547  0.0454
 2450W        W18711   8.787  12.311   1.252  0.2092 -0.2928 -0.1082
 2451W        W18712   5.607   5.860  11.570  0.1759  0.1683  0.0784
 2452W        W18713   7.188   1.831  10.130  0.0574  0.0634 -0.0655
 2453W        W18714  18.800   1.948  11.917  0.0064  0.2334 -0.4030
 2454W        W18715   5.836  16.467  12.422  0.2557  0.0079  0.1039
 2455W        W18716  18.800  18.858  14.395  0.0832  0.2764  0.2638
 2456W        W18717   2.534  10.758   3.590  0.1595 -0.2602  0.1306
 2457W        W18718  15.487  16.614  10.959  0.2581  0.0921  0.1628
 2458W        W18719   8.861   8.622   0.163  0.1595 -0.0607  0.1710
 2459W        W18720   6.089   3.849   1.790  0.2182  0.2483 -0.0163
 2460W        W18721  10.860   4.531   0.206  0.1893 -0.1063 -0.3114
 2461W        W18722  15.466   3.951   4.933  0.0120 -0.4744  0.0129
 2462W        W18723  14.184   4.148  13.237 -0.0742 -0.0730 -0.4325
 2463W        W18724   9.343   9.415  14.756  0.1782  0.1603 -0.0110
 2464W        W18725  18.383  14.456   3.560  0.1423  0.1909  0.1456
 2465W        W18726  18.004  11.553   3.275  0.0574 -0.3106 -0.1571
 2466W        W18727   0.055   5.413  13.288 -0.2050  0.2392  0.2642
 2467W        W18728   1.995   5.961   2.158  0.0407  0.2599 -0.1057
 2468W        W18729  18.522   0.722   9.864 -0.0527  0.0838 -0.1950
 2469W        W18730  18.034  18.995  14.782 -0.2572 -0.1068  0.1642
 2470W        W18731  11.408  18.705   0.929  0.1244  0.4534 -0.0065
 2471W        W18732   2.658  14.240  13.627 -0.0267 -0.1922  0.1915
 2472W        W18733   4.806  17.370   3.123  0.1738  0.1522 -0.0346
 2473W        W18734   4.409   3.028  13.128  0.1622  0.0154  0.3071
 2474W        W18735  10.590  11.908  10.496  0.0833 -0.0100 -0.1693
 2475W        W18736  11.928  16.120  10.666  0.0910  0.0172 -0.0568
 2476W        W18737   9.142  10.537  13.105  0.1415  0.0392 -0.0233
 2477W        W18738  14.313   0.046   0.113 -0.0463  0.1070  0.2535
 2478W        W18739  15.769   8.618  12.349  0.0104  0.1912  0.0163
 2479W        W18740  10.167   7.432   3.756  0.1159 -0.3867  0.1875
 2480W        W18741  13.114  10.153  13.895 -0.2652  0.0526  0.2917
 2481W        W18742   8.763  10.807   4.875  0.2028 -0.1216  0.0796
 2482W        W18743   2.446   5.156  13.470  0.1355  0.1555  0.1090
 2483W        W18744   1.619   1.573   1.592 -0.3805 -0.2840  0.0724
 2484W        W18745  10.378   9.011  14.341 -0.3479 -0.0487 -0.0655
 2485W        W18746  17.142  16.044  10.457 -0.2536  0.0706 -0.0052
 2486W        W18747  10.523   5.600   0.871 -0.2839 -0.2761 -0.0859
 2487W        W18748  18.866   9.594  11.498 -0.1846  0.1977  0.2160
 2488W        W18749  15.818   8.809  12.908 -0.3118  0.2764  0.1787
 2489W        W18750  14.815   4.987   3.056 -0.2606  0.0322  0.5332
 2490W        W18751   1.124  10.243  10.906  0.2805 -0.1097 -0.2862
 2491W        W18752  11.999   8.731  14.818 -0.1695 -0.1167 -0.0552
 2492W        W18753   4.699   3.834  14.480 -0.2988  0.1015  0.3484
 2493W        W18754  10.076  16.432  13.371  0.0710  0.2443 -0.0256
 2494W        W18755   1.451  17.676  13.415 -0.3239  0.0303 -0.0057
 2495W        W18756   8.994   6.270   2.878  0.3539 -0.0247 -0.1337
 2496W        W18757  18.962  17.191   5.710 -0.0325  0.1789  0.1092
 2497W        W18758  16.477   9.948  12.317  0.0890  0.2867 -0.1906
 2498W        W18759   9.129  15.800   1.417  0.0866 -0.0585  0.1867
 2499W        W18760  16.795  12.095  12.015  0.1534 -0.0459 -0.1085
 2500W        W18761  15.405  15.333   2.739 -0.1626  0.0078 -0.1404
 2501W        W18762   6.100   0.927   3.892  0.0281  0.1858 -0.0331
 2502W        W18763   5.181  18.026  12.045 -0.2345 -0.2443  0.1012
 2503W        W18764  10.560  18.489  11.085  0.3888  0.1386 -0.1769
 2504W        W18765  18.457  16.063   4.974 -0.1546 -0.0239  0.1528
 2505W        W18766   8.580   5.300   3.593  0.2969  0.0888 -0.1570
 2506W        W18767   7.631   9.658   4.665 -0.0013 -0.0432 -0.4186
 2507W        W18768  18.063   8.579  13.518 -0.2377 -0.0458  0.1583
 2508W        W18769   3.826  18.568   0.284  0.0719 -0.1163  0.0382
 2509W        W18770  16.162   9.389  13.766  0.0900  0.2433  0.0304
 2510W        W18771   9.846  11.074  10.249  0.1176 -0.0096  0.0574
 2511W        W18772   8.331   6.834   1.132  0.0564 -0.1671 -0.3372
 2512W        W18773  18.152   5.034  13.906 -0.0139  0.0658  0.1980
 2513W        W18774   1.420  14.087  14.884  0.2637 -0.2585 -0.0879
 2514W        W18775  17.214   0.832   9.884  0.0517  0.0143  0.1759
 2515W        W18776   0.563   2.367   3.605  0.3566  0.0246 -0.1505
 2516W        W18777  10.779   8.845  14.052  0.1747  0.1785  0.1854
 2517W        W18778   9.917   9.288   3.545 -0.0189  0.2875  0.1013
 2518W        W18779   9.783   2.720   2.110  0.2185 -0.1199 -0.1234
 2519W        W18780   3.924  15.221   3.814  0.1135 -0.0331 -0.0547
 2520W        W18781   2.139  17.717  12.065 -0.1725 -0.0904  0.4473
 2521W        W18782  18.177  13.665   1.916 -0.0834 -0.1522  0.1428
 2522W        W18783   6.330  18.217   0.463  0.0032  0.1261 -0.1915
 2523W        W18784  16.854  13.045   4.376 -0.0453 -0.0329  0.1142
 2524W        W18785   0.314   3.522   4.370  0.0582  0.0369  0.0829
 2525W        W18786   7.762  17.166   3.496  0.0124 -0.1665 -0.2434
 2526W        W18787   4.427  15.971   4.832 -0.3573  0.0914 -0.2195
 2527W        W18788   7.575   9.495   1.994  0.1417 -0.0572  0.0022
 2528W        W18789  15.577  16.311   0.712 -0.2547  0.0783 -0.0331
 2529W        W18790   2.427   1.386  12.014  0.0013  0.2596 -0.1014
 2530W        W18791  16.835  16.749   0.868  0.0017 -0.0353  0.4324
 2531W        W18792   5.338  18.968  11.649 -0.4947  0.1325 -0.0428
 2532W        W18793  16.165  13.406   3.647 -0.0932 -0.0138  0.1749
 2533W        W18794  14.910  14.030   8.869  0.0866 -0.0977  0.0232
 2534W        W18795   0.409   0.293   0.167 -0.4364 -0.2981 -0.1644
 2535W        W18796   5.545   3.149   2.309  0.0264 -0.0485 -0.0540
 2536W        W18797  15.708  14.301  11.694 -0.3652 -0.2214 -0.0687
 2537W        W18798  14.363  17.254  10.975  0.3781  0.0129  0.1560
 2538W        W18799   6.527   5.300  11.204 -0.0500 -0.1438 -0.4414
 2539W        W18800  18.579   1.135  13.926  0.2314  0.1250 -0.3331
 2540W        W18801   8.539  14.491   3.877  0.1410  0.0432  0.0812
 2541W        W18802  10.177  16.961   3.584  0.1139 -0.0290 -0.3373
 2542W        W18803  18.955  14.164   1.473 -0.2596  0.1474  0.5387
 2543W        W18804  16.176  13.103  11.660 -0.1160  0.1816  0.4820
 2544W        W18805  14.237  11.277   4.938  0.1344  0.2656  0.0680
 2545W        W18806   3.332   9.191  12.553  0.0779  0.1521  0.3010
 2546W        W18807  11.465  12.353   2.226 -0.2258 -0.3380 -0.2225
 2547W        W18808   1.972  12.453   1.179  0.5303 -0.3016 -0.3518
 2548W        W18809   6.787  10.131   0.416 -0.1537  0.2271  0.1210
 2549W        W18810  16.029  17.977  14.228  0.0115 -0.0625  0.2030
 2550W        W18811   9.440  13.172   2.082 -0.0452  0.2033  0.4126
 2551W        W18812   9.180   1.998   4.372  0.0070  0.1826 -0.2281
 2552W        W18813  11.685  16.552  10.545  0.0402  0.2107 -0.0821
 2553W        W18814   3.172   9.261  11.054  0.1069 -0.0448  0.1441
 2554W        W18815  17.674   4.337   5.081 -0.0917 -0.3594  0.0874
 2555W        W18816  11.072  15.599   3.986 -0.4097 -0.1011  0.4164
 2556W        W18817   0.624   7.141  14.673  0.0845 -0.0307  0.3226
 2557W        W18818  10.053   9.834   1.816  0.1191  0.0542  0.1081
 2558W        W18819  12.300   6.258   0.204 -0.2224 -0.0867 -0.3720
 2559W        W18820  13.764   1.597  13.214 -0.1786  0.1975 -0.0578
 2560W        W18821  12.898   2.826   1.797  0.2094  0.0454  0.0261
 2561W        W18822  14.190   5.056  11.482  0.3017 -0.0294 -0.1736
 2562W        W18823  17.208  15.807   3.683 -0.2815 -0.2517  0.0048
 2563W        W18824   1.012  13.154   3.508  0.2989  0.3158  0.1009
 2564W        W18825   7.641   7.520  13.842 -0.0204  0.0386  0.0530
 2565W        W18826   1.515   3.580   3.577  0.2873 -0.3140  0.2892
 2566W        W18827   1.639   8.032   2.194  0.4359 -0.0553 -0.1851
 2567W        W18828   1.640  15.019  12.190 -0.0655  0.1532  0.1440
 2568W        W18829   5.406   7.875  11.142 -0.1967  0.0305 -0.0540
 2569W        W18830  17.976   7.001   0.528 -0.1778  0.0324 -0.0282
 2570W        W18831  12.780   7.415  11.346  0.1553 -0.0167 -0.4555
 2571W        W18832  11.853   2.557   0.367  0.2693  0.0607  0.0617
 2572W        W18833  14.877   6.272  11.738 -0.1730  0.0685 -0.0431
 2573W        W18834  19.142   4.222   2.963 -0.0215 -0.1597 -0.0751
 2574W        W18835  18.341  17.047   4.789 -0.0232 -0.0207 -0.0168
 2575W        W18836  17.394  11.208   4.051 -0.1145 -0.1824  0.2489
 2576W        W18837   6.834   2.531   2.126 -0.0681 -0.1474  0.0607
 2577W        W18838  15.587  11.650   3.589 -0.2293  0.2772  0.0164
 2578W        W18839   6.530  18.979   0.628 -0.1290 -0.4628  0.0951
 2579W        W18840  15.429   8.886   1.894  0.1985 -0.0868  0.1823
 2580W        W18841   7.274  13.974  10.676 -0.2303  0.0547 -0.0235
 2581W        W18842  17.663  10.050  11.936  0.1888  0.0631  0.0234
 2582W        W18843   6.310   4.127   2.751 -0.0918 -0.1738 -0.1077
 2583W        W18844  17.882   5.300   2.976 -0.0665  0.0137 -0.1031
 2584W        W18845  18.813  18.288  14.835 -0.0363  0.0632 -0.2217
 2585W        W18846  14.298  10.366   2.241 -0.0813  0.0205 -0.0638
 2586W        W18847  18.855   4.123   1.992 -0.3994 -0.2199  0.0340
 2587W        W18848  17.081   6.983   2.169 -0.0516  0.2009  0.1946
 2588W        W18849   8.650  13.053   1.195  0.0261  0.0151  0.1553
 2589W        W18850   1.948  14.614  12.463 -0.1849  0.1004  0.3065
 2590W        W18851   7.750   6.893  13.107  0.2636 -0.1407  0.1520
 2591W        W18852   4.719  18.108   1.187 -0.2012  0.0258 -0.2096
 2592W        W18853  17.241   3.207   5.811  0.0525 -0.1589 -0.0894
 2593W        W18854   8.650   3.015  13.083  0.0406  0.0787 -0.1343
 2594W        W18855   5.086   4.889   0.704 -0.0044  0.1358  0.0903
 2595W        W18856   8.073  16.106   0.538  0.1455 -0.0493  0.0315
 2596W        W18857  13.229  14.479  10.539  0.0023 -0.0388 -0.4488
 2597W        W18858   3.624  10.199   1.086  0.3824 -0.5063 -0.1322
 2598W        W18859   0.492  10.226  11.675  0.1149  0.0027  0.3966
 2599W        W18860  17.816   8.111   1.840  0.4484  0.1083  0.0237
 2600W        W18861   2.329   7.235   4.561 -0.0763  0.1052 -0.0925
 2601W        W18862  11.519   9.359  11.294 -0.0443 -0.0397  0.1512
 2602W        W18863   6.849   5.931  11.819 -0.0334  0.0596  0.2054
 2603W        W18864   1.390   7.783   0.124 -0.1085  0.1171  0.1419
 2604W        W18865   1.696  14.785   5.248 -0.1526  0.0380  0.1143
 2605W        W18866   6.875   0.134  14.748 -0.3334 -0.2200  0.0828
 2606W        W18867  16.713  11.847  14.517 -0.0513  0.3851 -0.1726
 2607W        W18868   3.224  17.648  12.769 -0.0643 -0.1078 -0.3325
 2608W        W18869   8.925   9.830   0.736  0.4111  0.1246 -0.0911
 2609W        W18870   6.435   3.479  10.256 -0.0569  0.1974  0.0866
 2610W        W18871  11.446   9.816   9.395 -0.0277  0.1308  0.0460
 2611W        W18872   0.331  13.758   3.621  0.0496  0.1355 -0.1305
 2612W        W18873   9.096  18.865  12.735 -0.2793 -0.2536  0.0263
 2613W        W18874   7.050  16.893   2.798  0.0616 -0.2383 -0.1967
 2614W        W18875   3.285   9.997  11.652 -0.0683 -0.2295 -0.0272
 2615W        W18876  15.149   9.978   0.301 -0.0689  0.0460  0.2279
 2616W        W18877  10.213  14.035  14.464 -0.5022  0.3515 -0.0297
 2617W        W18878  13.213   4.514   9.943 -0.3659 -0.0264  0.1105
 2618W        W18879   0.360   3.864   1.889 -0.0247  0.0441  0.1589
 2619W        W18880  17.573   8.739  13.804  0.1457  0.1692 -0.0070
 2620W        W18881   1.097  15.187  11.435  0.0196 -0.1841 -0.0008
 2621W        W18882  13.681   8.816   0.868 -0.0776 -0.1488  0.3330
 2622W        W18883  19.133  15.351  13.459 -0.0185 -0.3731  0.0542
 2623W        W18884   2.320  12.139  12.784 -0.3000 -0.2953  0.0244
 2624W        W18885  10.212  14.267  12.225  0.1377  0.0370 -0.1128
 2625W        W18886   7.596  13.882   2.571  0.0902  0.0204  0.0954
 2626W        W18887   2.659  13.162   5.129 -0.0735  0.1097 -0.3307
 2627W        W18888  14.842  14.932  14.216  0.0788 -0.1520 -0.5333
 2628W        W18889  17.974  16.811   3.362 -0.0142 -0.0342  0.2570
 2629W        W18890   3.994  17.601   2.514  0.1236 -0.3377 -0.0759
 2630W        W18891   7.849  11.333  13.872 -0.1634 -0.0094  0.2497
 2631W        W18892   0.719   5.583   2.836 -0.1584  0.2048  0.2214
 2632W        W18893   2.335  19.386   3.652 -0.1213  0.0710 -0.0705
 2633W        W18894   0.803   1.211  12.591  0.2446 -0.1871 -0.0259
 2634W        W18895  15.219   9.451   2.615 -0.0910 -0.0976 -0.3847
 2635W        W18896   1.735  18.908   4.668  0.0804 -0.0375 -0.0073
 2636W        W18897   9.419   1.645  13.673 -0.1464  0.0628 -0.2430
 2637W        W18898   1.258   8.759   0.285  0.2310 -0.5492 -0.0157
 2638W        W18899  13.550   0.964  13.309  0.1755  0.2781  0.2067
 2639W        W18900  12.483  17.231   0.559  0.0995 -0.1910 -0.0764
 2640W        W18901  12.077  12.941   1.643 -0.4557 -0.0512  0.0094
 2641W        W18902  14.553   9.572   4.411 -0.3035  0.1954  0.0065
 2642W        W18903  12.870  12.059   3.872  0.2669  0.3217  0.0500
 2643W        W18904   5.923  11.409  11.958 -0.1686  0.1528  0.4600
 2644W        W18905   7.437   2.541  13.283 -0.1087  0.2585  0.0042
 2645W        W18906   3.150  15.238   5.953 -0.1324  0.0265  0.2872
 2646W        W18907  15.130   4.016  13.243  0.0126  0.2314 -0.1420
 2647W        W18908  14.840  15.985   1.328 -0.1329  0.2045  0.1810
 2648W        W18909   5.966   0.004  11.967  0.0141  0.0284 -0.0279
 2649W        W18910  10.911   0.731  12.561 -0.1399 -0.1949  0.4605
 2650W        W18911   3.773  13.488   4.368 -0.1481 -0.0586  0.0438
 2651W        W18912   8.302  15.787   4.256 -0.2411 -0.1067  0.1048
 2652W        W18913   0.227   1.781  13.758 -0.2274  0.1750 -0.0337
 2653W        W18914  13.267   1.655  11.717  0.0656  0.0776  0.0092
 2654W        W18915   1.028   1.688  11.457 -0.2400 -0.0096  0.0091
 2655W        W18916  17.741  16.277  12.449 -0.0708 -0.0210  0.2867
 2656W        W18917   1.024  14.534   4.841 -0.1066  0.0850 -0.1578
 2657W        W18918  18.411   0.256   2.059 -0.1121 -0.2779 -0.2129
 2658W        W18919  12.471   9.707   4.962 -0.0816 -0.3883  0.0918
 2659W        W18920  18.210  16.679   4.491  0.4309  0.1766  0.0360
 2660W        W18921   3.562   8.928   0.259  0.1508  0.0542  0.0400
 2661W        W18922  15.087  17.322   1.744  0.1401  0.1903  0.1275
 2662W        W18923   0.052  11.537   1.637  0.0828 -0.1490 -0.2700
 2663W        W18924  16.898  17.586   5.317 -0.0414  0.0162 -0.2684
 2664W        W18925  14.678   3.306  13.101 -0.1127 -0.0212  0.0751
 2665W        W18926   8.574  15.917  10.243  0.2436  0.3103 -0.3130
 2666W        W18927   2.796   9.011   4.858 -0.0671 -0.0653 -0.1168
 2667W        W18928  17.686  16.695  10.489  0.0094  0.3227  0.3248
 2668W        W18929  15.494   4.868  13.205  0.0596 -0.0863 -0.0598
 2669W        W18930  16.906   8.498  13.341 -0.1816  0.1486  0.2336
 2670W        W18931   8.999   2.225   2.699 -0.4059  0.1455  0.0704
 2671W        W18932  13.783  17.060  11.246  0.1178 -0.2842  0.2304
 2672W        W18933   8.341  12.470   0.155  0.0670 -0.1298  0.0505
 2673W        W18934   9.028  10.066  14.323  0.0309 -0.0857  0.1496
 2674W        W18935  10.879  12.943   4.330  0.0563  0.0683  0.1541
 2675W        W18936  12.963  12.418  14.682 -0.3959  0.0147  0.1534
 2676W        W18937  12.145   8.961   2.097  0.4073  0.2756  0.1032
 2677W        W18938  13.105   4.640   1.936 -0.0813  0.2503 -0.0610
 2678W        W18939   2.545  12.944   0.513  0.0036  0.1697  0.5194
 2679W        W18940   4.909  11.401  12.928  0.3117 -0.1184 -0.0625
 2680W        W18941  14.465  16.675   1.668  0.2958 -0.2796  0.0438
 2681W        W18942   7.876   5.142  11.831 -0.0406 -0.1806  0.0661
 2682W        W18943  10.833   2.725  13.339 -0.1309 -0.1479 -0.1459
 2683W        W18944   8.553  14.966   2.467 -0.2458  0.0354  0.0426
 2684W        W18945   8.693   8.731  11.176 -0.2081  0.4093 -0.0245
 2685W        W18946   2.717   2.020   3.534 -0.3186  0.1211  0.1949
 2686W        W18947  12.821  13.271   1.934 -0.2722  0.0079 -0.3760
 2687W        W18948   1.932  13.737  10.951 -0.2353  0.1189  0.0592
 2688W        W18949  17.212   1.926   0.575  0.1280  0.2158  0.4470
 2689W        W18950  16.472  12.714  14.299 -0.2518 -0.2238 -0.0058
 2690W        W18951   1.701   5.134   0.182 -0.0137 -0.2938  0.3965
 2691W        W18952   4.726   1.844   1.260 -0.2994 -0.1338 -0.0461
 2692W        W18953   0.930   8.957   3.364  0.3155  0.0353  0.1362
 2693W        W18954   1.648  10.777  12.360 -0.2136  0.1932 -0.0533
 2694W        W18955   7.590   0.844  11.998 -0.2293  0.1063 -0.2821
 2695W        W18956   2.334  12.689   0.896 -0.4979  0.2607  0.1210
 2696W        W18957   7.945  13.166   3.925  0.0417 -0.0941  0.0696
 2697W        W18958  12.898   7.570  10.504  0.0477  0.1323  0.0844
 2698W        W18959   0.360   5.130   2.152  0.2555 -0.3149 -0.2651
 2699W        W18960   6.397   2.307  11.589 -0.0798 -0.2709 -0.0418
 2700W        W18961   7.724   4.771  12.199 -0.0411  0.2624 -0.2873
 2701W        W18962   8.866   7.165  11.818  0.0133  0.2103  0.3796
 2702W        W18963  13.973  16.619  12.613 -0.0594 -0.3144  0.0022
 2703W        W18964   7.993  14.916   5.667 -0.0587 -0.2573 -0.0462
 2704W        W18965   6.748  18.284   0.007  0.0754 -0.2396  0.0220
 2705W        W18966  10.547  16.976  13.968  0.0361 -0.0792 -0.0096
 2706W        W18967  18.688  16.079   3.775  0.0678  0.1574 -0.3121
 2707W        W18968   5.837   6.136   1.269  0.2182  0.0117  0.0477
 2708W        W18969   1.819   5.328   4.908 -0.0963 -0.0144  0.2421
 2709W        W18970  15.815   9.674   1.435  0.2165  0.1245  0.0084
 2710W        W18971   4.082   9.165   2.600 -0.4369 -0.1018 -0.0660
 2711W        W18972   7.231  15.400   1.973  0.0562  0.0393 -0.2811
 2712W        W18973  16.739   9.869  14.508  0.1297  0.0962  0.1825
 2713W        W18974  10.761   8.167  13.260 -0.0530  0.2000  0.1414
 2714W        W18975  19.249   7.410   1.291 -0.0037  0.0970  0.0315
 2715W        W18976   6.806   9.958   4.257 -0.1819  0.2248 -0.1967
 2716W        W18977  11.564   7.634   2.874  0.3164 -0.3155  0.3170
 2717W        W18978  17.034   6.353  12.757  0.4801 -0.1430 -0.1654
 2718W        W18979  10.165   9.774  10.343 -0.0657  0.3754  0.1568
 2719W        W18980  16.585   0.170   2.593 -0.0888 -0.1118  0.0134
 2720W        W18981   1.881  13.855  12.571  0.2262 -0.0561  0.1505
 2721W        W18982   4.256   6.688  13.714  0.1055 -0.1877 -0.1092
 2722W        W18983  12.173  18.511  10.332  0.0850 -0.1432 -0.0543
 2723W        W18984  14.551  14.856   4.579 -0.1299 -0.0492 -0.2562
 2724W        W18985   3.734   5.787   3.477  0.0987 -0.3369 -0.6279
 2725W        W18986  12.237  17.932  10.593 -0.0185 -0.0939 -0.2378
 2726W        W18987   4.529   2.825  13.615  0.2574 -0.3139 -0.2493
 2727W        W18988  15.235   0.585   4.423  0.0642 -0.1281  0.0111
 2728W        W18989   5.682  12.658  12.749  0.3298 -0.0614 -0.2447
 2729W        W18990   8.042  17.774  11.711  0.1081 -0.1563  0.1522
 2730W        W18991  13.760  11.374  10.101 -0.5590 -0.1662 -0.2678
 2731W        W18992   0.448  13.873   3.090 -0.3913  0.1571  0.0242
 2732W        W18993  16.854   8.432   3.277  0.0043 -0.0451 -0.1227
 2733W        W18994   8.801  15.037  13.773 -0.2671  0.0655  0.3776
 2734W        W18995  12.056  18.965  10.534  0.0472  0.0271 -0.0922
 2735W        W18996  13.844   2.703  12.173 -0.0568 -0.0757 -0.0253
 2736W        W18997   3.969  13.097   2.960 -0.1307  0.4304  0.0674
 2737W        W18998   2.065   1.565   4.199  0.0263  0.1000  0.2334
 2738W        W18999  19.159   9.630  14.296  0.0156  0.0781 -0.3339
 2739W        W19000   8.305  18.533   2.871  0.0069  0.0462 -0.0515
 2740W        W19001  15.635   6.387  11.744  0.0770  0.0570 -0.1557
 2741W        W19002  15.577   4.636  10.559  0.2622 -0.1252  0.0087
 2742W        W19003   8.614  17.247  14.277 -0.1546 -0.2521 -0.1590
 2743W        W19004   1.309   8.920   2.993  0.2650  0.3050 -0.1944
 2744W        W19005   0.429  10.991  10.098 -0.4798  0.3468 -0.2607
 2745W        W19006  11.707  10.365  14.774 -0.2326  0.2634 -0.0221
 2746W        W19007  19.113  10.870  11.406  0.0979 -0.3408  0.1382
 2747W        W19008  12.544   9.631  10.373  0.0584 -0.1164  0.0196
 2748W        W19009   3.293   1.682   0.989  0.0276  0.2793  0.1771
 2749W        W19010  13.856  19.379   0.321 -0.3320 -0.0753  0.4971
 2750W        W19011   0.817  14.322   0.816 -0.0637 -0.0402 -0.0906
 2751W        W19012   1.971   8.467  10.981  0.1595 -0.0617 -0.1173
 2752W        W19013  18.623   1.166   0.099 -0.0149 -0.0336 -0.0815
 2753W        W19014  15.439   1.236   0.458 -0.1424  0.0260  0.0393
 2754W        W19015   8.637   5.268  10.055  0.2186 -0.1664 -0.2200
 2755W        W19016   2.936   0.283  12.827 -0.0346  0.4005  0.1837
 2756W        W19017   4.397  12.955   0.971 -0.1852  0.1785 -0.0440
 2757W        W19018  14.882   6.666   5.432 -0.1457 -0.2805 -0.0468
 2758W        W19019  17.400   3.138   2.793 -0.1051 -0.1774  0.3445
 2759W        W19020   4.550  10.139   4.328  0.4888  0.2165  0.0242
 2760W        W19021   3.659  10.692   4.564 -0.0826 -0.2574  0.0429
 2761W        W19022  14.073   4.780   0.024  0.2483  0.1040 -0.0201
 2762W        W19023   5.914  11.725   1.622 -0.3954 -0.1027  0.2798
 2763W        W19024  16.597   2.817  11.970 -0.1484 -0.2202 -0.0931
 2764W        W19025  10.028  16.471  12.402  0.0471  0.0563 -0.0111
 2765W        W19026  15.421  17.015   1.987  0.4231  0.6000  0.1739
 2766W        W19027   1.242  17.620   2.789 -0.0313  0.2328 -0.0357
 2767W        W19028  18.833  16.250  12.479 -0.2837 -0.3432 -0.2213
 2768W        W19029  12.783  19.104  10.748 -0.0828  0.1073 -0.0781
 2769W        W19030  18.709   6.145  12.013 -0.1520  0.3396 -0.0260
 2770W        W19031   8.271  17.475  14.021 -0.0457  0.2453  0.0346
 2771W        W19032   2.008   6.349  11.209 -0.1322  0.0317  0.1467
 2772W        W19033  15.927  10.782  12.744  0.1264  0.0209 -0.1571
 2773W        W19034   4.176  12.442  13.980 -0.1097 -0.2186 -0.0432
 2774W        W19035   8.030   2.632  13.198  0.2376  0.3215 -0.0621
 2775W        W19036  15.117  16.149  11.876 -0.1775 -0.1445 -0.1959
 2776W        W19037   8.694  18.363   3.721  0.1136  0.2899  0.0764
 2777W        W19038   7.185  13.803   2.853 -0.0338  0.0063 -0.0539
 2778W        W19039   6.277  10.038   3.134  0.3629  0.3380  0.0454
 2779W        W19040  16.566   6.392  11.803 -0.4285 -0.0752  0.2082
 2780W        W19041  17.309   0.565  14.206 -0.3497  0.1377 -0.0968
 2781W        W19042   6.787   0.400  14.318  0.0342 -0.0058 -0.2834
 2782W        W19043  11.552   7.357   0.708 -0.2423  0.0500 -0.3609
 2783W        W19044   3.992   0.519  13.316  0.1586  0.0730 -0.0616
 2784W        W19045  16.162   0.998   1.204  0.0286  0.1972 -0.2249
 2785W        W19046  19.127   3.974  14.767 -0.0165 -0.0132 -0.5729
 2786W        W19047   2.750   7.135  10.715  0.0272  0.0649 -0.1800
 2787W        W19048   2.263  16.205  14.879 -0.1934  0.0886  0.1423
 2788W        W19049  15.556   5.490   0.396  0.0184  0.1025 -0.0257
 2789W        W19050   0.962  14.750   1.146 -0.1027 -0.0812  0.1120
 2790W        W19051  14.969   4.802  14.403  0.0357  0.2750 -0.1387
 2791W        W19052  13.204  18.666  11.164  0.0793 -0.0071  0.0849
 2792W        W19053   7.143   0.048  11.209  0.0914 -0.2419 -0.2583
 2793W        W19054   1.965   8.892  13.129 -0.3415 -0.0957  0.1671
 2794W        W19055   9.605  11.187   0.786  0.1402  0.3650 -0.0801
 2795W        W19056   8.032  18.027  12.817 -0.0335  0.2022  0.0274
 2796W        W19057  15.372   9.483  11.389 -0.0034 -0.0054  0.0755
 2797W        W19058  13.084   0.049   1.681  0.1665  0.1978 -0.0067
 2798W        W19059  10.643  16.576  14.232  0.2674  0.0051 -0.0839
 2799W        W19060  18.119  14.971  14.332 -0.1547 -0.3339  0.0363
 2800W        W19061   6.345   7.242   0.478 -0.0353 -0.2474  0.1431
 2801W        W19062   7.801  19.027   1.184 -0.1733 -0.0060  0.1507
 2802W        W19063   2.330  16.477   1.823 -0.0914  0.0014 -0.0820
 2803W        W19064  10.083  17.648  10.696 -0.1461 -0.1192 -0.2763
 2804W        W19065  18.155  17.297  12.948 -0.2027  0.3261 -0.3553
 2805W        W19066  12.636   7.393   0.436  0.3190 -0.3760  0.2383
 2806W        W19067   7.061  15.829  13.392 -0.1303 -0.0648 -0.0942
 2807W        W19068  10.690  19.407   0.484 -0.0011 -0.4717  0.1346
 2808W        W19069  18.987   9.304   3.343  0.3936 -0.1341 -0.2981
 2809W        W19070  11.287  13.446  12.547  0.0175 -0.3370 -0.0384
 2810W        W19071   5.800  10.735   1.659  0.0400  0.0093  0.0317
 2811W        W19072  19.444  17.196  13.532 -0.1613  0.1009 -0.4299
 2812W        W19073   2.787  11.195  10.891 -0.4329  0.0664  0.1079
 2813W        W19074   1.027   7.773  11.194 -0.0945 -0.1716  0.1639
 2814W        W19075   6.087   7.200  13.691  0.1923  0.2493 -0.0727
 2815W        W19076  10.091  15.522  12.252 -0.2074 -0.2497  0.1156
 2816W        W19077   1.465  15.083   5.521 -0.5470 -0.3672 -0.2840
 2817W        W19078  10.374  16.158  12.734  0.3715  0.0635  0.0162
 2818W        W19079  19.165   9.385  12.263  0.1256 -0.0774  0.2543
 2819W        W19080   4.429   6.097  11.861  0.0020  0.2791 -0.1408
 2820W        W19081  12.071   2.281   0.763  0.4331 -0.1395  0.3730
 2821W        W19082   5.634   3.642   1.673 -0.1186 -0.3171 -0.0468
 2822W        W19083  16.891  13.003   3.280  0.0973 -0.2677  0.0942
 2823W        W19084  16.530  15.862  12.773 -0.2461 -0.1426  0.1651
 2824W        W19085  12.270  12.039  11.786  0.1584  0.1981 -0.0701
 2825W        W19086   7.187  10.637   2.385 -0.1921 -0.0763 -0.1021
 2826W        W19087   9.527  17.502  12.253  0.2354 -0.1617  0.0780
 2827W        W19088   4.735   5.071  12.387 -0.0824  0.2968  0.0961
 2828W        W19089   7.723   3.453  12.224 -0.1074 -0.0249 -0.2729
 2829W        W19090   6.886   4.270  14.143  0.0318  0.2390  0.1512
 2830W        W19091   3.679  15.383  14.778  0.0466 -0.0738  0.1976
 2831W        W19092  10.358  12.565   1.438  0.1561 -0.0946 -0.1464
 2832W        W19093  15.512   7.034   4.050  0.0381 -0.2290  0.1607
 2833W        W19094   1.809  18.080   3.195  0.0815 -0.1432  0.0539
 2834W        W19095  19.196  10.059  14.025 -0.1083  0.2927 -0.0432
 2835W        W19096  12.777   0.657  14.604  0.1974  0.1686  0.0314
 2836W        W19097   5.376   9.046  12.645  0.1802  0.2059 -0.0153
 2837W        W19098   8.713  15.780   9.786  0.1022  0.2888 -0.1654
 2838W        W19099   1.664   6.175  12.771 -0.1195 -0.0779  0.1209
 2839W        W19100  10.164   0.085   0.916 -0.2105 -0.2050 -0.0864
 2840W        W19101  11.818  10.701   1.749  0.1216  0.1519 -0.0322
 2841W        W19102   7.362  14.870   4.459  0.2990  0.0189  0.1718
 2842W        W19103  14.327   0.604   1.015  0.0527  0.2842  0.0313
 2843W        W19104  14.859   1.385   4.077 -0.0386  0.4683  0.1436
 2844W        W19105   0.572  13.469   5.054  0.1244 -0.1000  0.3511
 2845W        W19106  14.688   2.386   0.514  0.0385  0.0511  0.1163
 2846W        W19107   3.929   9.057  12.746  0.0126  0.0602 -0.2015
 2847W        W19108  15.694   6.136   0.268  0.0378 -0.2821  0.1553
 2848W        W19109   9.167  10.957  10.913 -0.1585 -0.2458  0.1256
 2849W        W19110  10.713  17.562   0.966  0.3237  0.5720  0.2746
 2850W        W19111  17.998  15.618  14.535  0.0375  0.0302  0.6177
 2851W        W19112   1.658   6.856   3.297  0.0849 -0.1241  0.0895
 2852W        W19113   4.505  12.003   5.799 -0.0646 -0.2603 -0.2807
 2853W        W19114  12.248   2.595   2.557 -0.2682  0.0227 -0.1227
 2854W        W19115  10.389   7.900   3.734 -0.0703 -0.1813  0.0602
 2855W        W19116  12.766  12.251   1.139 -0.2506 -0.3949 -0.2256
 2856W        W19117   6.356   8.277   2.455 -0.2748 -0.0915 -0.1836
 2857W        W19118  19.047   4.249  11.322  0.0896 -0.1154  0.1248
 2858W        W19119   9.260  17.751  11.763  0.0076  0.1870 -0.1135
 2859W        W19120  15.355   2.617   3.140  0.3104  0.0895 -0.2376
 2860W        W19121   6.164   1.592   2.089  0.2442 -0.3078  0.0847
 2861W        W19122   5.599   4.887  14.321 -0.1589 -0.1558 -0.0032
 2862W        W19123   8.363  14.145  12.373 -0.2130  0.1468  0.0975
 2863W        W19124   0.766  19.232   0.071 -0.1041  0.1158 -0.0409
 2864W        W19125   7.401  14.347   5.177 -0.0614 -0.1089 -0.0244
 2865W        W19126  14.605  13.427  13.385 -0.2733  0.1330  0.2901
 2866W        W19127   0.030  14.457   2.230 -0.2260  0.1152  0.0219
 2867W        W19128  18.858  17.566   2.234  0.1147  0.3741  0.2587
 2868W        W19129  18.547   7.377   1.133  0.0341  0.2575 -0.3177
 2869W        W19130   2.509  18.580   4.278  0.0827  0.2229  0.2518
 2870W        W19131   8.117   1.053   1.992 -0.3290  0.1299 -0.1028
 2871W        W19132   0.372  19.245   0.479 -0.0757 -0.0829  0.1770
 2872W        W19133   3.455   9.368   2.849  0.0018  0.1456 -0.0106
 2873W        W19134  13.962  13.430  11.893 -0.1237 -0.0980  0.1115
 2874W        W19135  18.565   4.445   4.753 -0.2838  0.0591 -0.0028
 2875W        W19136   1.418   2.338  13.479 -0.0943  0.1474 -0.2412
 2876W        W19137  12.169   6.428   4.150 -0.2531  0.1129 -0.1413
 2877W        W19138   7.522   3.550  11.020  0.0003 -0.2607  0.3505
 2878W        W19139  13.254   5.937   2.578 -0.0457  0.0389 -0.0150
 2879W        W19140  10.006   5.276  13.247 -0.2300  0.0029  0.0938
 2880W        W19141   6.791   7.656  10.938  0.0917 -0.2317 -0.0042
 2881W        W19142   9.433   5.062  11.082  0.1025  0.0186  0.2893
 2882W        W19143  11.934  12.315  13.735 -0.3581  0.5464 -0.0109
 2883W        W19144  11.427   9.573   2.968 -0.1542  0.2941 -0.0624
 2884W        W19145   8.178  13.706   3.718  0.2146  0.2357  0.0505
 2885W        W19146  11.843   3.739  13.716 -0.0475 -0.0888 -0.6007
 2886W        W19147   8.219  12.167  11.880  0.0523  0.2012 -0.1191
 2887W        W19148   6.637   7.344  13.696 -0.0228 -0.0491  0.1497
 2888W        W19149   2.339   0.469   3.456  0.0038 -0.3555  0.1830
 2889W        W19150   5.976   2.190  14.723  0.3401 -0.0799 -0.0807
 2890W        W19151   5.223  16.256   0.702  0.0723 -0.0036  0.2133
 2891W        W19152  15.304  12.609  14.274  0.0341  0.1702 -0.2664
 2892W        W19153   2.856  14.803   3.992 -0.2600 -0.2384 -0.0645
 2893W        W19154   6.962  12.595   2.150  0.2391  0.0517  0.2572
 2894W        W19155   3.920  13.136  13.120  0.2954  0.0702 -0.0685
 2895W        W19156   4.578  10.159  12.039 -0.0650 -0.1804 -0.0237
 2896W        W19157   8.307  16.510   3.490 -0.1522 -0.4097  0.2918
 2897W        W19158   6.756   1.036  13.489 -0.3980 -0.0736  0.0436
 2898W        W19159   9.587  11.726  10.660 -0.3889 -0.1877 -0.3750
 2899W        W19160  11.740   2.735  10.909  0.2455  0.2457  0.1361
 2900W        W19161  11.890   9.047  12.194 -0.2101  0.3451 -0.2455
 2901W        W19162   4.464   4.853   0.288  0.2099  0.1919 -0.1872
 2902W        W19163   3.203  18.569  11.111 -0.1274  0.2217  0.1918
 2903W        W19164   7.936  16.511   3.840  0.1442 -0.0841  0.2680
 2904W        W19165   0.361   9.394  10.404  0.0083 -0.0178  0.0855
 2905W        W19166  13.394  13.236   9.938  0.0823  0.1760 -0.1444
 2906W        W19167  12.891  18.802  12.021  0.0528  0.1182  0.0397
 2907W        W19168  15.279  14.767   2.767  0.1699  0.2443 -0.0957
 2908W        W19169  15.275  18.842  11.399  0.1242  0.2541 -0.4081
 2909W        W19170  12.532  11.623   2.016 -0.1028 -0.1766 -0.0354
 2910W        W19171  11.517   2.920   3.933 -0.1954  0.1699  0.2986
 2911W        W19172  19.277   8.680  12.028  0.1903  0.4331 -0.1902
 2912W        W19173  14.123   2.543  13.121  0.0104 -0.0083  0.4913
 2913W        W19174   6.965   5.851   3.690 -0.0526  0.2325 -0.0911
 2914W        W19175  18.065  15.863  14.108 -0.1254  0.3277 -0.1451
 2915W        W19176  16.783   4.446  12.439  0.0287  0.0178 -0.1907
 2916W        W19177  12.542   5.211   2.344  0.4220  0.0841  0.1028
 2917W        W19178   3.462   3.164  11.090  0.1997 -0.1755  0.0133
 2918W        W19179   5.316   3.384  11.225  0.1000  0.0627 -0.0709
 2919W        W19180   2.139  11.205   3.049 -0.1351 -0.2509 -0.2920
 2920W        W19181  19.183  16.488   5.120  0.2723  0.1220  0.1605
 2921W        W19182  11.198   5.071   9.558  0.1703  0.0822 -0.2233
 2922W        W19183  13.969  16.042   5.308  0.3592  0.0209 -0.2846
 2923W        W19184  18.076   0.368   1.697 -0.2623  0.0545 -0.1877
 2924W        W19185   4.781  19.080   2.959 -0.0333  0.1192  0.0744
 2925W        W19186  15.479   1.361  12.796 -0.1345 -0.1267 -0.2682
 2926W        W19187  15.430  14.670  13.561  0.0299  0.0995 -0.0895
 2927W        W19188   5.830  15.061   0.517  0.1640  0.0372 -0.2024
 2928W        W19189   8.856  13.550   0.599 -0.0120 -0.0012 -0.2153
 2929W        W19190   3.925  11.148  12.636  0.0331 -0.1445 -0.1409
 2930W        W19191  11.481  18.629  12.479 -0.2095 -0.1042  0.0913
 2931W        W19192   5.357  17.723   5.330 -0.1222  0.0699  0.0044
 2932W        W19193  12.333   1.067   4.423 -0.1803 -0.2425 -0.0422
 2933W        W19194   3.153   8.317   4.206 -0.1077 -0.3394  0.1395
 2934W        W19195  15.260  13.580   3.221 -0.2044  0.2927 -0.0370
 2935W        W19196   4.364  17.835   0.003  0.0472 -0.0486 -0.0901
 2936W        W19197   0.395  12.106  10.388  0.1489 -0.0514  0.1365
 2937W        W19198   9.653   0.514   3.352  0.0719 -0.2729 -0.4335
 2938W        W19199   3.414  18.972   1.168  0.0055  0.3085  0.1399
 2939W        W19200  18.880  15.002   0.526  0.3105 -0.2341 -0.4138
 2940W        W19201  10.005   1.610   1.190 -0.0703 -0.2595  0.3581
 2941W        W19202  14.723  12.175   0.168 -0.0894 -0.2429  0.2126
 2942W        W19203   0.717   4.683   3.998 -0.1672 -0.3347  0.3031
 2943W        W19204   6.166   6.278   3.455  0.1074  0.1272 -0.0990
 2944W        W19205   2.471   0.932  10.702 -0.3237 -0.0915 -0.1954
 2945W        W19206   1.105   6.233   0.823 -0.4124 -0.3917  0.2498
 2946W        W19207  18.038  16.128  12.846  0.2163  0.0518 -0.2369
 2947W        W19208   6.828  15.792  11.352 -0.3104 -0.0389 -0.2556
 2948W        W19209  12.540   9.076   3.830 -0.1459 -0.1326  0.0972
 2949W        W19210  16.713  17.679   2.774  0.1758  0.1997  0.0248
 2950W        W19211   4.245   9.849  12.360 -0.2902 -0.1707  0.0305
 2951W        W19212   7.888  15.436  14.424  0.1660 -0.2710 -0.0398
 2952W        W19213   5.354   2.960   3.325  0.1733 -0.0543  0.3775
 2953W        W19214  12.713  14.479  10.199  0.3923 -0.0939 -0.0284
 2954W        W19215  18.114   4.170   3.318 -0.0722 -0.0786  0.3125
 2955W        W19216   4.336  18.306   3.914 -0.1554  0.0768  0.1529
 2956W        W19217  15.417  15.872  14.264 -0.0977 -0.3773 -0.1928
 2957W        W19218   2.022  15.558   2.786  0.4403 -0.0938  0.0041
 2958W        W19219   5.043   4.366   3.478  0.3560  0.0817 -0.0892
 2959W        W19220   8.399   4.130  13.814 -0.0699  0.0759  0.0555
 2960W        W19221  18.339  17.149  12.377 -0.2434 -0.4224 -0.0165
 2961W        W19222  17.994  17.552  10.955 -0.3141  0.0256 -0.2718
 2962W        W19223   7.423   8.323  14.498  0.0926 -0.1723 -0.0460
 2963W        W19224   7.575   5.730   0.872  0.2398  0.1135 -0.0321
 2964W        W19225   0.085   4.605  13.159  0.2972  0.1367  0.0092
 2965W        W19226   6.128   1.701   5.250  0.1336  0.2471 -0.0492
 2966W        W19227  14.781   3.489   0.633 -0.1581  0.1437  0.0549
 2967W        W19228   7.571  12.700  13.521 -0.0313 -0.0498 -0.1154
 2968W        W19229  16.064   4.462  11.500 -0.0607  0.1123  0.2517
 2969W        W19230  11.491  14.125  14.425 -0.1877  0.3812 -0.3198
 2970W        W19231   8.173   3.748  12.586  0.0341 -0.0975  0.3701
 2971W        W19232  10.391  13.498  12.068  0.0565  0.0236  0.0752
 2972W        W19233   7.844  14.055   1.270  0.0661 -0.0184  0.0115
 2973W        W19234  14.422   5.792   0.598  0.3495  0.1042  0.2087
 2974W        W19235  13.575   3.542   3.060  0.2341 -0.3204  0.0785
 2975W        W19236   3.425  10.827  13.766 -0.3188 -0.0782 -0.3611
 2976W        W19237   6.226  10.962  10.075  0.1128 -0.0284  0.1278
 2977W        W19238   5.048  13.769  10.684  0.0535  0.0688  0.0292
 2978W        W19239   2.463  15.166   4.624 -0.1137  0.0255  0.4232
 2979W        W19240   7.867   9.727  14.800  0.2810  0.1161 -0.1020
 2980W        W19241   9.489  19.307   9.570  0.0421 -0.0906  0.0401
 2981W        W19242   7.153  19.264   0.235 -0.0977  0.3909  0.3085
 2982W        W19243  16.945   1.795   3.677 -0.1860 -0.2735  0.0827
 2983W        W19244  16.914  10.498   1.733  0.4221 -0.1380  0.1549
 2984W        W19245  15.047   1.654   2.679 -0.0753 -0.0942  0.3936
 2985W        W19246   8.946  16.101  14.492  0.1136 -0.0807  0.0314
 2986W        W19247   5.566  13.689   2.775  0.1562 -0.0376  0.0093
 2987W        W19248  19.236   4.859  11.949  0.2211  0.1426 -0.3106
 2988W        W19249   9.824  18.455  12.972 -0.1320 -0.2749 -0.0767
 2989W        W19250  18.163   2.662   2.386 -0.2484 -0.1178 -0.2106
 2990W        W19251   5.535  14.316  14.202 -0.1447  0.2138 -0.0026
 2991W        W19252  14.863  10.355  10.771  0.2951 -0.0102  0.3144
 2992W        W19253   0.201  16.918  10.434 -0.1161  0.1358  0.2851
 2993W        W19254   2.076  17.590   0.178  0.1683  0.0547 -0.1302
 2994W        W19255  12.451   1.534  14.367  0.0941 -0.0308 -0.1565
 2995W        W19256  10.476  17.861   0.017  0.0916 -0.0842 -0.2484
 2996W        W19257   3.256   5.035   1.072 -0.1313 -0.2430 -0.5070
 2997W        W19258  18.613   3.542  14.770  0.0318  0.1563  0.0395
 2998W        W19259  11.767   0.694  10.927  0.1269  0.1693  0.2135
 2999W        W19260  16.128  10.389  13.058 -0.0182  0.1187 -0.2578
 3000W        W19261   4.681  15.616   2.004  0.0275  0.1150  0.3332
 3001W        W19262   9.538   6.273   4.749  0.2904 -0.0879 -0.0818
 3002W        W19263  18.741  14.166   3.681  0.0625  0.0526  0.1903
 3003W        W19264   2.067   2.009   2.400 -0.1806  0.0355  0.0706
 3004W        W19265   2.358   1.139   4.863  0.1830 -0.0312  0.0919
 3005W        W19266  17.194  12.223   2.911 -0.1365  0.1856 -0.3265
 3006W        W19267   6.683  15.270  12.187 -0.1298  0.0968  0.1238
 3007W        W19268  13.359   4.616   4.539  0.1723 -0.0423 -0.0108
 3008W        W19269   4.230  18.046  13.071 -0.0195 -0.0983 -0.0620
 3009W        W19270  14.291  10.010   3.454  0.1755 -0.1130  0.0612
 3010W        W19271   9.192   4.921   2.954  0.1994 -0.0164  0.1437
 3011W        W19272  13.514   3.650  13.645 -0.2588 -0.0347 -0.0169
 3012W        W19273  18.395   6.538  14.036  0.0623 -0.0659  0.0080
 3013W        W19274  13.110   1.188  11.974  0.1227  0.0411  0.0724
 3014W        W19275   6.725  19.156   1.878  0.1275 -0.2382 -0.2501
 3015W        W19276  16.869  18.358   3.996  0.1116 -0.0437  0.3621
 3016W        W19277   2.100   8.847   9.657 -0.0983 -0.0861  0.0279
 3017W        W19278  15.329  10.605  10.457 -0.1983 -0.2375  0.0394
 3018W        W19279   5.384   4.636  13.584  0.2126 -0.1513 -0.0622
 3019W        W19280  17.628   8.577  14.682 -0.4050 -0.2416 -0.0353
 3020W        W19281   2.623   4.661   2.163  0.0403 -0.1382  0.1833
 3021W        W19282   0.028  11.587   2.847 -0.1673  0.1468 -0.1783
 3022W        W19283  11.047   4.491  12.258 -0.3658 -0.1182 -0.3872
 3023W        W19284   9.285  14.091   1.452 -0.1318 -0.1319  0.2962
 3024W        W19285  13.910   9.597   2.531  0.0728  0.1394 -0.0073
 3025W        W19286   1.987  13.055  10.390  0.1382  0.0640  0.1319
 3026W        W19287   2.906   4.706   0.637  0.3656 -0.1926 -0.0037
 3027W        W19288   0.801  18.131  14.222 -0.1535  0.1992  0.1693
 3028W        W19289  13.695   1.350   9.582 -0.3436 -0.2432  0.0833
 3029W        W19290  18.146  16.340  14.212  0.3706 -0.0322 -0.0288
 3030W        W19291   8.258  10.258   1.551  0.1062  0.3064  0.3138
 3031W        W19292  15.733   0.836  13.602 -0.0271  0.2432  0.2421
 3032W        W19293  16.091   0.048   0.916  0.1084 -0.0873  0.0036
 3033W        W19294   1.677   4.670  14.280  0.0342 -0.0179 -0.0730
 3034W        W19295  13.759  14.412  13.371  0.1954  0.0647 -0.1141
 3035W        W19296  12.756   8.121  12.056 -0.1603 -0.3428  0.0714
 3036W        W19297   3.912   2.503   4.748 -0.0922  0.1477  0.0115
 3037W        W19298   4.857  15.089  12.288 -0.1476  0.1258 -0.0174
 3038W        W19299  10.470   6.839   1.659  0.4292  0.2311  0.0170
 3039W        W19300  15.608   5.252   1.939  0.1278  0.1488  0.1244
 3040W        W19301   0.191   9.957  14.328 -0.1313 -0.0856 -0.2730
 3041W        W19302  11.589  14.077   0.840  0.2792 -0.1979 -0.5484
 3042W        W19303  16.419  11.443  10.703  0.0631 -0.0146  0.0753
 3043W        W19304   2.393  12.467   2.219 -0.2808 -0.0187  0.0502
 3044W        W19305  13.803   4.299  11.492  0.0647  0.1263 -0.2588
 3045W        W19306  12.411  14.133  10.292  0.1657 -0.2109 -0.0334
 3046W        W19307  19.185  19.085   5.808  0.1474 -0.1912 -0.0340
 3047W        W19308   8.528  15.556  10.631 -0.6164  0.0580  0.0080
 3048W        W19309  10.664  16.055  11.314  0.0675  0.2141 -0.0458
 3049W        W19310   2.256   1.333   0.599  0.1851 -0.0818  0.1619
 3050W        W19311  17.469  10.924   4.481 -0.1845 -0.1515  0.0734
 3051W        W19312   2.850   4.324  13.079  0.2742  0.1316  0.0739
 3052W        W19313   3.537   6.302   4.439  0.0090  0.3783  0.0443
 3053W        W19314   8.442  15.896  13.294 -0.3203 -0.0695  0.6123
 3054W        W19315   6.859  19.105   3.408  0.4210 -0.1010 -0.1928
 3055W        W19316   0.401   6.124  12.600 -0.2778 -0.0810  0.2224
 3056W        W19317  19.285   5.414  14.417 -0.0845 -0.2596  0.0283
 3057W        W19318  16.439  13.159   3.994  0.0942  0.3025 -0.0073
 3058W        W19319  15.914  10.158  11.071 -0.1054  0.0058  0.1134
 3059W        W19320  19.257  19.334   1.987  0.0510 -0.0416 -0.0161
 3060W        W19321  16.623  16.763  14.762  0.0477 -0.0475  0.2714
 3061W        W19322   2.377   6.955  11.738  0.1997 -0.1402  0.1064
 3062W        W19323  18.107   3.149  11.961  0.0875  0.3488  0.1564
 3063W        W19324   7.934  12.229  12.297 -0.1368  0.2019  0.0669
 3064W        W19325   6.476  18.656   0.238  0.2615  0.0520  0.2655
 3065W        W19326   2.657  10.143   1.013 -0.0343  0.1349 -0.0555
 3066W        W19327   6.886   4.174   1.329  0.3863 -0.3695  0.3996
 3067W        W19328   2.966   2.646   5.386 -0.0357  0.0817  0.1191
 3068W        W19329   8.163  12.083  11.037 -0.3538 -0.0719  0.2351
 3069W        W19330  17.827  18.815  12.968  0.1803  0.0178 -0.0528
 3070W        W19331  11.191   3.200   2.686 -0.3342  0.1152 -0.0799
 3071W        W19332   8.797   4.831   5.537  0.2731 -0.2504 -0.1495
 3072W        W19333   8.131   7.680  11.855  0.0111  0.1010 -0.3315
 3073W        W19334  19.233   1.094   2.884  0.3700  0.0618  0.0064
 3074W        W19335   0.801  10.594   4.225  0.0411 -0.2683 -0.0493
 3075W        W19336   0.626   8.631   4.211  0.1258  0.0773 -0.0136
 3076W        W19337  14.187  13.951   2.144 -0.1898 -0.0627 -0.2712
 3077W        W19338  16.725   0.367  10.593 -0.1279  0.2703 -0.0004
 3078W        W19339   4.284   8.222  10.082  0.1934 -0.0247 -0.0449
 3079W        W19340   7.799   0.123   2.662 -0.1339  0.1253 -0.2032
 3080W        W19341   6.535  18.378  13.538 -0.0302 -0.1648 -0.0550
 3081W        W19342  10.558  17.145   0.558  0.1921 -0.3336 -0.0900
 3082W        W19343   0.135   4.670   0.663  0.0027  0.1117 -0.3805
 3083W        W19344   5.818  14.158   1.522 -0.2825 -0.4923  0.2173
 3084W        W19345  15.881  15.305   9.819  0.4215  0.4001 -0.3102
 3085W        W19346  16.183   6.653   2.461 -0.1340 -0.0003 -0.0343
 3086W        W19347   8.022   1.237   4.811  0.0993  0.1528  0.2124
 3087W        W19348   3.910   0.690  14.000  0.1250  0.3056  0.0778
 3088W        W19349   2.702   8.363   2.889  0.1588  0.5136 -0.1137
 3089W        W19350   6.855   9.835   1.911 -0.5634  0.1023  0.0118
 3090W        W19351  14.789  15.100  11.493 -0.3040  0.0149 -0.0920
 3091W        W19352   8.600  10.417  14.406  0.0392 -0.1102  0.2201
 3092W        W19353  15.781   3.489  13.867  0.0940  0.2770  0.1383
 3093W        W19354   6.531   9.851  10.653  0.1140 -0.1195 -0.0518
 3094W        W19355  18.827   0.022   2.456 -0.0998  0.0810  0.0785
 3095W        W19356  17.722  10.789  13.213 -0.3770  0.0286 -0.1052
 3096W        W19357  16.122  19.384   2.762 -0.0629 -0.1136  0.0340
 3097W        W19358   4.289  10.286   3.479  0.1685  0.4051  0.0454
 3098W        W19359   8.309  14.690   4.246  0.3734  0.1507 -0.2782
 3099W        W19360  18.582  18.655   0.907  0.0677  0.2716  0.2439
 3100W        W19361  17.226   3.181  13.251  0.0403  0.0999  0.1465
 3101W        W19362   9.455   9.119   9.401 -0.0253 -0.3638  0.1390
 3102W        W19363  10.188  12.013   1.708 -0.2778  0.2139 -0.1329
 3103W        W19364  11.820   8.217   0.545  0.3370 -0.0251 -0.1084
 3104W        W19365  18.645  10.490  13.263 -0.2014  0.0791  0.0928
 3105W        W19366   1.978  18.165  11.989  0.0326 -0.2008 -0.2611
 3106W        W19367  16.482   2.748   1.137  0.1423  0.1370 -0.2656
 3107W        W19368  16.951  14.840   3.240  0.2228  0.2215 -0.0654
 3108W        W19369  14.023  10.157   2.613  0.0930 -0.0620 -0.2108
 3109W        W19370   7.838  18.418   2.166  0.0773 -0.0164 -0.1708
 3110W        W19371  14.471  11.735  13.427 -0.1978  0.1663  0.3881
 3111W        W19372   9.641  16.304  11.144 -0.1124  0.0545 -0.1934
 3112W        W19373  18.904   8.983  13.957 -0.3874  0.1307 -0.0668
 3113W        W19374  12.280  18.228  12.609 -0.0443 -0.1688 -0.0430
 3114W        W19375   7.340   4.617   0.524 -0.0263  0.0339  0.2098
 3115W        W19376   8.846   6.809   2.515  0.0019 -0.0745 -0.0867
 3116W        W19377  12.471  10.370   0.411  0.0983 -0.3424  0.2819
 3117W        W19378   8.611   8.672   4.097  0.0921  0.2868  0.3536
 3118W        W19379  12.845  15.008   0.678  0.1453 -0.0042 -0.0652
 3119W        W19380  11.484  10.026   9.917 -0.2142  0.0237  0.3148
 3120W        W19381  15.234  18.051  11.805  0.1476 -0.2047  0.2616
 3121W        W19382  15.662  15.734   3.111  0.2180  0.0443 -0.0536
 3122W        W19383   3.730  15.724   1.591  0.3421  0.0022 -0.0836
 3123W        W19384  16.152  18.281   1.834  0.0995  0.2144 -0.0147
 3124W        W19385   3.253   9.857   2.721  0.0954 -0.2338 -0.0423
 3125W        W19386  15.413  10.137  12.933 -0.2550 -0.3187 -0.0465
 3126W        W19387   5.337  16.088   1.232  0.0857 -0.0223 -0.0693
 3127W        W19388  14.743  13.657   3.222 -0.1472 -0.0939  0.2990
 3128W        W19389   9.353   4.048   3.128 -0.0914  0.0511 -0.0789
 3129W        W19390   9.474  13.686   4.470  0.4544  0.2470 -0.0416
 3130W        W19391   7.183   4.800  12.325 -0.1838 -0.1731 -0.0910
 3131W        W19392  15.150  16.850  13.089  0.2661  0.1076 -0.1374
 3132W        W19393  11.283   1.907  13.877 -0.2043  0.4187 -0.1300
 3133W        W19394  14.002   4.684  11.156 -0.1500 -0.0147 -0.3833
 3134W        W19395  14.774  15.837   2.010 -0.2099  0.0089 -0.0027
 3135W        W19396  16.425   6.176   4.042  0.1045 -0.1050  0.0716
 3136W        W19397   6.399  19.148   4.558  0.1176 -0.4562  0.0396
 3137W        W19398   7.687   7.845  14.672 -0.2881 -0.3328 -0.0588
 3138W        W19399  14.087  12.400   2.931 -0.1083 -0.1819 -0.3177
 3139W        W19400   9.399   6.927   2.807  0.1113 -0.0707  0.1920
 3140W        W19401  12.085   9.027  13.612  0.1504 -0.0212 -0.2268
 3141W        W19402   3.809  10.351   1.583  0.2292  0.1793  0.2307
 3142W        W19403   2.694  11.612   3.814  0.2222 -0.1467 -0.1244
 3143W        W19404   9.462   0.812   9.780 -0.0042  0.4940 -0.2797
 3144W        W19405  12.089  19.407  11.616  0.1978  0.0629 -0.2204
 3145W        W19406   4.881   0.304  14.103 -0.0056 -0.0582  0.1769
 3146W        W19407  16.124  14.366   1.145 -0.1233  0.3031 -0.0909
 3147W        W19408  17.884   0.089  10.877 -0.1720  0.0097 -0.4282
 3148W        W19409   7.181   2.857   2.693  0.0974  0.3550  0.3796
 3149W        W19410   6.775   1.435   5.936 -0.0208  0.2207 -0.0364
 3150W        W19411  10.305   9.066  13.191  0.4557  0.1137 -0.2899
 3151W        W19412   2.093   9.820   4.587  0.1353 -0.1927 -0.4372
 3152W        W19413  12.576  14.946   1.512 -0.2888 -0.3319 -0.1165
 3153W        W19414  17.689  16.577   2.489 -0.0222  0.1785 -0.1546
 3154W        W19415   9.827   3.250  10.239 -0.1091 -0.0861 -0.2779
 3155W        W19416   9.387  14.339  10.972  0.2408  0.0129  0.1764
 3156W        W19417  18.952  18.975   0.789 -0.1226 -0.1880  0.0405
 3157W        W19418   8.772  17.953  14.774  0.0593  0.0316  0.2282
 3158W        W19419   5.231  10.264  11.859 -0.4090  0.0304  0.4716
 3159W        W19420   9.075  16.351  10.918  0.1881 -0.0625 -0.0653
 3160W        W19421   1.911  18.055   6.235  0.0460 -0.1843  0.0139
 3161W        W19422   2.179  18.400  13.878  0.3539 -0.0536 -0.1433
 3162W        W19423  10.476  10.142  12.785 -0.0330 -0.1449  0.1218
 3163W        W19424   9.190  12.148  12.241  0.0129  0.0936  0.3329
 3164W        W19425   0.365  12.185  11.130 -0.0356  0.6290 -0.2727
 3165W        W19426  11.262   3.454   3.094 -0.0745  0.1089 -0.2190
 3166W        W19427  13.149   7.227   3.060 -0.2347 -0.3324 -0.1382
 3167W        W19428  18.121  13.124   1.122  0.4109 -0.1331  0.3514
 3168W        W19429  19.213   9.467   1.046  0.4580 -0.3314 -0.1688
 3169W        W19430   9.843  15.811   4.571 -0.0864  0.1468 -0.3813
 3170W        W19431   5.357   6.680   2.594  0.2516  0.0535  0.1917
 3171W        W19432  13.890   2.504  10.847  0.0785 -0.2238 -0.2382
 3172W        W19433  13.334   2.924  11.565  0.1325  0.0548 -0.0363
 3173W        W19434   3.859  10.186   0.181  0.1950 -0.1481 -0.0519
 3174W        W19435  17.510   3.627  11.452  0.0404 -0.0835  0.3149
 3175W        W19436   9.457   9.035   3.798 -0.0233  0.1693 -0.2797
 3176W        W19437   3.477  17.693   5.687  0.1362  0.1204 -0.0189
 3177W        W19438  13.695  12.609   3.950  0.2377  0.2537  0.0053
 3178W        W19439  14.413  12.355  10.193 -0.1694 -0.1497 -0.0351
 3179W        W19440   8.693   9.695  10.212 -0.0456 -0.0844  0.0789
 3180W        W19441   4.079   1.772   2.654  0.1660  0.3012  0.1421
 3181W        W19442   6.895  15.023   1.514 -0.1128  0.0936 -0.1166
 3182W        W19443  10.427  19.173   3.837  0.0795 -0.0632 -0.1326
 3183W        W19444   7.663  15.361  10.673  0.0534  0.0235 -0.3061
 3184W        W19445  10.656  13.551  10.317 -0.1443  0.5859  0.1167
 3185W        W19446   4.604   3.426   0.312 -0.0322  0.1148 -0.0084
 3186W        W19447   1.678  14.239  12.375  0.2115 -0.1056 -0.1023
 3187W        W19448  10.568  19.412  10.945 -0.1709  0.2016  0.0660
 3188W        W19449   9.823   5.427  10.961 -0.3631 -0.1101 -0.0689
 3189W        W19450   2.387   6.476  11.540  0.2536  0.3217  0.0247
 3190W        W19451  17.561   1.065   2.786 -0.2285 -0.1545  0.2382
 3191W        W19452  11.254  10.608   2.747  0.0120  0.1415 -0.3158
 3192W        W19453  16.482  17.458   0.439 -0.0132  0.1505 -0.0964
 3193W        W19454   9.995  15.926  14.573  0.0982  0.0292 -0.2269
 3194W        W19455   6.978   5.311   2.271 -0.1514 -0.0429 -0.0368
 3195W        W19456  12.370  11.530   0.837 -0.1034 -0.0507 -0.0691
 3196W        W19457  17.505  16.121  13.060 -0.2334  0.1858 -0.0155
 3197W        W19458   4.996   4.309  13.828 -0.1863 -0.2201 -0.1269
 3198W        W19459   8.375  14.210  10.859 -0.0521  0.1310 -0.2456
 3199W        W19460   0.650  13.963   0.382 -0.0969  0.1124  0.2803
 3200W        W19461  10.387  19.111  14.858 -0.0340  0.0548  0.3131
 3201W        W19462   3.272   2.919   1.184  0.1278  0.3485 -0.0022
 3202W        W19463  16.255  11.690   1.167 -0.0353  0.0875  0.3152
 3203W        W19464   6.356   2.465  11.086 -0.0793 -0.3632 -0.0894
 3204W        W19465  10.223   6.130  12.609 -0.1720  0.0617  0.0751
 3205W        W19466  12.344   0.376  11.503  0.4048 -0.0081 -0.0020
 3206W        W19467  16.099   2.611  14.533 -0.2827 -0.2773 -0.2062
 3207W        W19468   4.291  11.492   1.963  0.0538  0.0427 -0.4474
 3208W        W19469   7.519  13.579   1.401 -0.1166  0.2240 -0.1460
 3209W        W19470   6.122  16.858   3.194 -0.0546 -0.0203  0.0798
 3210W        W19471  12.236   1.782  11.965  0.0654 -0.2117  0.2860
 3211W        W19472   2.999  14.044  12.752 -0.0132 -0.2969  0.1670
 3212W        W19473   6.832  14.185  12.488  0.2483  0.0692 -0.2815
 3213W        W19474   8.325   5.626   3.034 -0.2796 -0.3063  0.3320
 3214W        W19475   3.898   2.388   0.696  0.0658  0.2186  0.2802
 3215W        W19476  16.501  14.452   4.488 -0.0816  0.1354 -0.1424
 3216W        W19477   3.448  12.307  11.431 -0.1082  0.1024 -0.2836
 3217W        W19478  18.152  18.158   3.763  0.1725 -0.0469  0.1681
 3218W        W19479  18.462   6.594   3.597  0.1467 -0.0113  0.0796
 3219W        W19480  18.232  17.959  13.573  0.0200  0.2288 -0.2173
 3220W        W19481   6.083  10.286  11.365 -0.0183 -0.4334 -0.3868
 3221W        W19482   8.778   0.371   1.708  0.1137  0.2557 -0.0037
 3222W        W19483  13.630  18.532   1.231  0.1681 -0.0784 -0.1976
 3223W        W19484  16.218   0.961  13.347 -0.0386 -0.0097 -0.1058
 3224W        W19485   8.927  12.796  10.233 -0.0202 -0.1010 -0.4075
 3225W        W19486  14.033  17.064  12.838  0.1790  0.0253 -0.0325
 3226W        W19487  18.820  12.645  12.491  0.0776  0.2923  0.2518
 3227W        W19488  18.265   4.106   2.778 -0.0774  0.1435 -0.0907
 3228W        W19489  17.999   5.411  14.228 -0.1875  0.0814 -0.0224
 3229W        W19490  11.768  15.288   1.460 -0.4627 -0.2653 -0.1426
 3230W        W19491  10.997  15.660   1.994 -0.3055 -0.1617  0.0694
 3231W        W19492   2.453  12.293   1.780 -0.2122  0.1177  0.0403
 3232W        W19493   0.317  11.188   0.823  0.0154 -0.2868  0.0618
 3233W        W19494   2.663  13.238  13.814 -0.2733 -0.1985 -0.2731
 3234W        W19495  10.899   0.434   2.375  0.0777 -0.3161  0.1044
 3235W        W19496  13.367   0.916  13.829 -0.5241  0.2143  0.0965
 3236W        W19497  14.958   2.989   0.378 -0.2336  0.1126  0.0470
 3237W        W19498   9.194   9.516   3.856  0.2210 -0.0913 -0.1368
 3238W        W19499   1.705   5.417   3.771 -0.1104 -0.1573 -0.2060
 3239W        W19500   7.519   7.094   1.993  0.0319 -0.1230  0.0551
 3240W        W19501  15.079   0.767   2.705  0.1585  0.1576  0.0832
 3241W        W19502   6.165  18.232   3.379  0.0519  0.0439 -0.0289
 3242W        W19503  15.214  10.427   2.481 -0.0319  0.3617 -0.2318
 3243W        W19504   1.527   8.827  11.350 -0.1162 -0.0991  0.3559
 3244W        W19505   5.563  11.028   0.748 -0.1532 -0.2996 -0.1914
 3245W        W19506  15.709   3.773  14.300 -0.2927 -0.1273  0.1783
 3246W        W19507   8.200  14.240  10.395  0.0716 -0.0506  0.1062
 3247W        W19508  12.337   3.677  10.518  0.4710  0.1436 -0.0510
 3248W        W19509   6.130   0.749   4.896  0.0062 -0.0776  0.0226
 3249W        W19510  15.669  11.317   3.945 -0.4175 -0.1994  0.1350
 3250W        W19511  17.831   3.779  11.870  0.0833 -0.1561  0.1924
 3251W        W19512   2.986   3.813  13.923 -0.0724  0.0646 -0.1537
 3252W        W19513  10.076  10.488  11.139  0.0908 -0.3292 -0.1479
 3253W        W19514  14.721   6.929   4.340 -0.1535 -0.2442  0.0052
 3254W        W19515  17.580  16.086   2.332  0.0466  0.1891 -0.2664
 3255W        W19516   3.971   6.066   4.880 -0.0898  0.2663  0.2170
 3256W        W19517   5.378   1.643   0.155  0.1901 -0.1106 -0.0411
 3257W        W19518   2.915  16.182   1.297  0.3591 -0.1067  0.0481
 3258W        W19519  10.823  16.090   2.159  0.3206 -0.1803 -0.1299
 3259W        W19520   2.082   4.493   2.056  0.0579  0.1392 -0.1218
 3260W        W19521  12.513   4.945  10.297 -0.0778  0.2096 -0.3742
 3261W        W19522  19.168   0.286  11.259 -0.2175 -0.0429  0.1687
 3262W        W19523   7.652   1.016  10.659 -0.0556  0.0901  0.0028
 3263W        W19524   2.945   8.223   0.704 -0.1010  0.0442  0.0909
 3264W        W19525   4.855  17.536  12.252 -0.0384  0.0030  0.2301
 3265W        W19526  19.012   8.147   2.067 -0.3167 -0.1560 -0.2744
 3266W        W19527   7.677  16.423  14.151  0.2714 -0.1327 -0.0066
 3267W        W19528   7.730  17.466   0.816  0.0638 -0.3645  0.1315
 3268W        W19529  17.121  11.121  14.737 -0.1336  0.0927  0.2204
 3269W        W19530  10.826  10.752   3.824  0.0121 -0.0712 -0.5261
 3270W        W19531   4.201   1.904   2.092 -0.0612  0.0746  0.2321
 3271W        W19532  11.639   4.049   2.178 -0.0610  0.0275  0.0997
 3272W        W19533   6.502  18.331   2.881  0.2372  0.1458  0.1737
 3273W        W19534  17.685   8.000   3.280 -0.2176  0.1309  0.2968
 3274W        W19535   8.677  15.153  10.927  0.1014 -0.0076  0.3201
 3275W        W19536   9.179  10.037   2.096 -0.1906 -0.0607 -0.2024
 3276W        W19537  11.596   6.656   0.996 -0.1805  0.3397 -0.2117
 3277W        W19538  10.151   7.712  12.169 -0.0020 -0.1649 -0.0850
 3278W        W19539  17.423   8.528   4.069  0.0448  0.0382  0.0257
 3279W        W19540  15.986  17.396  13.963 -0.2484  0.2236 -0.1544
 3280W        W19541   5.693  12.616   9.994  0.2846 -0.2604 -0.0387
 3281W        W19542   5.278  19.112  13.775 -0.2880 -0.0237 -0.1898
 3282W        W19543   5.578  11.417   0.428 -0.2120 -0.0287 -0.2066
 3283W        W19544  15.999   8.612   9.941  0.2303  0.1936  0.1334
 3284W        W19545  18.486   8.590  12.221 -0.0831  0.4019  0.1086
 3285W        W19546  15.016  10.929   2.307  0.1765 -0.1652  0.0406
 3286W        W19547  12.208  11.665   2.416 -0.0114  0.2160  0.2953
 3287W        W19548   0.687  13.002  14.815  0.0333  0.0673  0.0161
 3288W        W19549   1.689   8.636  13.555 -0.1888  0.0842 -0.1874
 3289W        W19550   6.617   5.552   3.956  0.1393  0.1084 -0.1167
 3290W        W19551  16.344   3.455  11.676  0.0306  0.2782  0.3518
 3291W        W19552   0.793  13.706   4.504  0.3941 -0.0611 -0.2171
 3292W        W19553   8.087  15.358   5.352  0.3189 -0.0244 -0.3466
 3293W        W19554  16.234  15.280   3.720 -0.2955 -0.0231 -0.1010
 3294W        W19555   6.661  11.765  13.509 -0.1670  0.1384 -0.0308
 3295W        W19556  18.606  15.408   4.072 -0.2091 -0.2476 -0.3611
 3296W        W19557   2.313   6.441   5.197  0.1149  0.1469  0.0579
 3297W        W19558   0.526   3.665  13.338  0.0345  0.0140 -0.3051
 3298W        W19559   5.023   5.775  11.286  0.1425  0.0038  0.0355
 3299W        W19560  18.317  17.689  11.541  0.0237 -0.2026  0.0312
 3300W        W19561   7.695   1.326   0.431  0.2991 -0.1038  0.0468
 3301W        W19562  11.175  10.988   0.519  0.0411  0.0996 -0.1089
 3302W        W19563   0.829   6.624   9.839 -0.1419  0.1357  0.1740
 3303W        W19564  12.936   8.834  11.444  0.0331 -0.0865  0.0525
 3304W        W19565  16.150   2.374   0.071  0.0287 -0.0377 -0.2258
 3305W        W19566   2.656  18.431  10.712  0.0390  0.1816 -0.1561
 3306W        W19567   3.542   9.968   4.982 -0.0775 -0.0327 -0.2033
 3307W        W19568  11.288  15.913   2.493 -0.2159  0.1095  0.0342
 3308W        W19569   9.401   7.438   2.972  0.2552 -0.2562  0.1605
 3309W        W19570  18.234   4.815  12.877  0.0276 -0.1233  0.2486
 3310W        W19571  10.831   4.829   4.365 -0.5588 -0.2377  0.2259
 3311W        W19572  14.282  11.766  12.914 -0.1339  0.1606 -0.1593
 3312W        W19573  16.759  14.382  11.248 -0.2532 -0.3402 -0.1156
 3313W        W19574   5.209  18.473   1.257  0.3325  0.0464  0.1380
 3314W        W19575   4.634   7.228   2.422  0.1496  0.2702 -0.1100
 3315W        W19576  11.375  13.837   1.842  0.1752  0.1265 -0.0792
 3316W        W19577   1.127  10.152   4.738 -0.2000 -0.3917  0.2402
 3317W        W19578   2.114  10.702  12.310  0.1636 -0.0689  0.1458
 3318W        W19579   0.304   8.100   1.040 -0.1541  0.0788  0.1950
 3319W        W19580  18.511  18.195  13.091 -0.1053  0.0096  0.0582
 3320W        W19581  12.829  17.581  12.849  0.0394 -0.1050 -0.1650
 3321W        W19582   4.563  12.202   0.545 -0.1766  0.0891  0.1971
 3322W        W19583   8.370   3.249  10.832  0.2660  0.0459 -0.0736
 3323W        W19584  14.213   9.796   2.218 -0.1111  0.2179  0.1054
 3324W        W19585  16.472  13.811  13.287 -0.2327  0.1313 -0.0052
 3325W        W19586   1.708   8.060  11.747  0.3449  0.3058  0.0046
 3326W        W19587   8.612  13.383  12.309  0.3368  0.1348  0.5677
 3327W        W19588   1.619  15.426  12.880 -0.0526 -0.4150 -0.1616
 3328W        W19589   2.330   5.506   3.772 -0.0796  0.2284 -0.0734
 3329W        W19590   0.519  12.518  10.029 -0.2783 -0.3056 -0.1679
 3330W        W19591   1.610  10.342  11.525 -0.2386  0.0067 -0.0144
 3331W        W19592  16.709   4.418   3.221 -0.1293  0.1144  0.0599
 3332W        W19593  10.345   4.385  12.381  0.0653 -0.1069  0.0733
 3333W        W19594  14.398   1.233   3.150 -0.1212  0.1889 -0.0110
 3334W        W19595  14.079  15.169   3.570 -0.0274  0.1540 -0.1677
 3335W        W19596   3.726  14.378   4.607 -0.2431 -0.0040  0.3954
 3336W        W19597   3.911   9.257  14.869  0.2044  0.1136  0.0891
 3337W        W19598   7.913   9.244  14.446  0.3937  0.1958 -0.2938
 3338W        W19599  11.220  14.624   2.165  0.1341 -0.0678  0.0376
 3339W        W19600  16.606  19.305  13.980  0.1428 -0.0103 -0.0501
 3340W        W19601   2.622  16.397  13.656 -0.1780 -0.1377 -0.1749
 3341W        W19602  14.148   1.335   0.462  0.0696  0.1593 -0.1234
 3342W        W19603  16.830  13.988   1.664 -0.0243  0.0313  0.0021
 3343W        W19604   2.954  15.812   5.324  0.0191  0.1251  0.2017
 3344W        W19605  17.486  17.634   4.042  0.0615 -0.3695 -0.0237
 3345W        W19606  10.034   7.113   4.672 -0.1628  0.0358 -0.0747
 3346W        W19607  19.048  17.197  14.455 -0.1365  0.2517  0.2685
 3347W        W19608  10.543   6.197   4.589  0.0624 -0.0139 -0.2134
 3348W        W19609  17.280  16.232  12.630  0.1401 -0.2675  0.1855
 3349W        W19610  17.755   4.811  12.352  0.3182  0.2514 -0.0081
 3350W        W19611   9.888   6.388  13.285 -0.0606 -0.1761  0.1777
 3351W        W19612   2.448  11.452  13.632 -0.1234  0.2281  0.1166
 3352W        W19613   9.144  14.474  14.582  0.4076 -0.2838  0.0190
 3353W        W19614  16.160   7.510   4.612  0.1530 -0.1066  0.0254
 3354W        W19615   6.182   1.523  14.596 -0.4272  0.1116  0.3940
 3355W        W19616   7.451  12.873  11.707 -0.1441  0.4311  0.0587
 3356W        W19617   4.792   1.937   4.933  0.0200 -0.4374 -0.2060
 3357W        W19618   4.593  15.833  14.622  0.0020 -0.2867  0.2589
 3358W        W19619   4.190   7.608   5.475 -0.0366 -0.1830 -0.2585
 3359W        W19620  17.224  12.227   0.209 -0.0929  0.0760  0.0274
 3360W        W19621  19.304   3.653  14.019  0.3843  0.0390  0.0897
 3361W        W19622  15.190   3.277   2.511  0.1546  0.0556 -0.0500
 3362W        W19623   2.743   6.499   0.139  0.1123 -0.2355 -0.0674
 3363W        W19624  16.374   3.895   0.441 -0.0060  0.1768 -0.1847
 3364W        W19625  14.600   2.529   2.540  0.1412  0.0944  0.0428
 3365W        W19626  12.621  16.341   0.738 -0.0675 -0.3101 -0.2526
 3366W        W19627  17.376  17.583   3.219  0.2274 -0.0949 -0.1700
 3367W        W19628   1.209   9.223   0.608  0.0877 -0.4304 -0.0270
 3368W        W19629   5.045   9.391  12.915  0.2867 -0.0332  0.2962
 3369W        W19630  11.545  13.597   2.298  0.0124  0.2901 -0.2104
 3370W        W19631  13.508  19.145   8.884 -0.1270 -0.1245 -0.0379
 3371W        W19632  18.120  11.083  11.794 -0.0433  0.1277 -0.2464
 3372W        W19633   2.669   9.371   3.956  0.0525 -0.1952  0.1699
 3373W        W19634  11.002   6.561  10.622 -0.1521  0.2253  0.0507
 3374W        W19635   4.734   8.953   2.112 -0.0956 -0.1427 -0.3057
 3375W        W19636  18.836   7.420  14.173 -0.2364  0.1203  0.0794
 3376W        W19637   4.710  12.856  13.805  0.0067  0.1609 -0.3547
 3377W        W19638  17.393  11.460  13.996 -0.2575 -0.2377  0.1373
 3378W        W19639  16.064  16.725  13.342 -0.1717  0.0722  0.0162
 3379W        W19640  13.777  14.736   4.317  0.0057 -0.3003  0.2128
 3380W        W19641   9.485  11.317   2.568  0.0530  0.0846 -0.0848
 3381W        W19642  10.502  17.321  11.500 -0.2043  0.0613 -0.0729
 3382W        W19643   8.040  15.761   3.424  0.1426 -0.2655  0.2075
 3383W        W19644   4.192   2.953   4.704  0.1116  0.1627  0.0996
 3384W        W19645   8.336   7.978   2.572  0.0404 -0.1640 -0.0836
 3385W        W19646  15.593   3.834   2.846 -0.0364  0.3536 -0.2141
 3386W        W19647   7.378  17.380  12.373 -0.1299 -0.4173  0.4161
 3387W        W19648  11.442   3.898  13.378  0.0721 -0.1105  0.0249
 3388W        W19649   0.773   9.431   3.550 -0.1749  0.0840  0.1986
 3389W        W19650  18.436   9.282  13.038 -0.1289  0.0981 -0.1450
 3390W        W19651   2.297   3.136  11.728  0.1333  0.3410 -0.3055
 3391W        W19652   1.668   2.742  11.367 -0.0417  0.0527  0.0842
 3392W        W19653   1.620  18.920  13.364  0.2498  0.1470 -0.3124
 3393W        W19654  18.236   8.992   4.946  0.1743 -0.3796 -0.0496
 3394W        W19655  14.462   4.420  13.569 -0.1097 -0.4084  0.1073
 3395W        W19656   3.743   9.884  11.391  0.3561 -0.2522 -0.1398
 3396W        W19657   9.448  16.139  12.622  0.1229 -0.0352 -0.0728
 3397W        W19658   2.701  11.535  12.203 -0.1728 -0.0739  0.0109
 3398W        W19659  14.250  18.281  12.132 -0.0897 -0.2783  0.1518
 3399W        W19660  17.768   3.793   3.379 -0.1979  0.0338  0.0726
 3400W        W19661  10.809   9.200  13.524 -0.1012  0.2113 -0.1427
 3401W        W19662  19.299  15.494  14.452  0.0675  0.0250 -0.0136
 3402W        W19663  19.102   6.307   1.704 -0.2137  0.1788 -0.3484
 3403W        W19664   7.980  15.433  11.468  0.3149  0.0459  0.0482
 3404W        W19665  14.010   3.243   0.567  0.2351  0.2238 -0.0187
 3405W        W19666   3.581  12.883  12.856  0.1341 -0.0822 -0.1680
 3406W        W19667  12.244  15.514   2.486  0.2346  0.4060  0.1056
 3407W        W19668  19.315  13.910  14.867  0.0883 -0.1561 -0.0622
 3408W        W19669   2.542  12.568   4.240 -0.0171  0.2370 -0.1498
 3409W        W19670  12.948  14.336  14.478  0.0984  0.0686  0.1524
 3410W        W19671   7.988   7.340   0.429  0.0378 -0.0716  0.1093
 3411W        W19672   5.917  13.994   0.635 -0.2607 -0.0743 -0.1113
 3412W        W19673  10.880   3.134   2.018 -0.0155  0.0693  0.2029
 3413W        W19674  14.775   9.086  11.451 -0.1741  0.1045 -0.0758
 3414W        W19675  13.994  13.872   8.789  0.0568  0.0239 -0.0177
 3415W        W19676  10.502  12.721  11.469  0.2707 -0.5314 -0.0762
 3416W        W19677  16.948   6.643  10.895  0.1161 -0.1266  0.1160
 3417W        W19678  16.928  10.107   4.155  0.0724  0.4597  0.2002
 3418W        W19679  16.159  12.699   2.127  0.1043  0.1377 -0.0944
 3419W        W19680  10.471   8.567   3.142 -0.2106  0.0173 -0.2001
 3420W        W19681  14.207  16.460  11.497 -0.4903  0.2009  0.1066
 3421W        W19682  14.982  14.254   5.000  0.1163  0.2621  0.0049
 3422W        W19683   0.440  16.513  11.561 -0.2756  0.2462 -0.1850
 3423W        W19684   3.279   4.020  11.776  0.1086 -0.4771 -0.0857
 3424W        W19685  18.798   9.286  12.643  0.2770 -0.0052 -0.0069
 3425W        W19686   4.673  12.015  14.153 -0.3475  0.1249  0.0765
 3426W        W19687  10.973  12.660  12.204  0.2558 -0.0734 -0.2405
 3427W        W19688  14.736   2.996   0.855 -0.3122  0.0806 -0.2733
 3428W        W19689   7.835  10.151   1.296 -0.1944 -0.0797  0.0731
 3429W        W19690   3.303   4.285  13.954 -0.0706 -0.1319 -0.2033
 3430W        W19691   3.839   6.588   0.186  0.2807 -0.1711 -0.0331
 3431W        W19692  13.357  17.060  10.673  0.5324  0.1467 -0.2254
 3432W        W19693  10.687   3.164  13.151  0.2496 -0.1505 -0.2967
 3433W        W19694   5.380  14.705  10.575  0.2461  0.1424  0.0860
 3434W        W19695   4.537   6.933  13.329 -0.0226 -0.1155  0.0796
 3435W        W19696  14.237  11.586  12.471  0.1754  0.1578 -0.0598
 3436W        W19697  13.630  15.632   4.146 -0.2220 -0.3424 -0.3299
 3437W        W19698  10.916  17.621  12.776 -0.0288  0.0493 -0.0914
 3438W        W19699   7.221   0.305  13.472  0.0713 -0.0648  0.0900
 3439W        W19700   9.933   3.442  10.724 -0.1233  0.2551 -0.0323
 3440W        W19701   4.829   0.713  12.774  0.1927 -0.0215  0.0815
 3441W        W19702  18.930   3.201   5.165  0.0312 -0.3609 -0.3342
 3442W        W19703  17.313  11.389   0.164 -0.2304  0.0740  0.0773
 3443W        W19704  15.078   6.208   3.384 -0.1117  0.0325 -0.2914
 3444W        W19705   0.553  10.888  12.351 -0.1212  0.0512 -0.0205
 3445W        W19706  11.643  19.305  11.254 -0.2986 -0.3372  0.1134
 3446W        W19707  10.824   9.823  11.599  0.0053  0.0011 -0.0794
 3447W        W19708   0.912  18.618  14.315 -0.2255  0.0636  0.2109
 3448W        W19709   2.689  14.037   0.814  0.4339  0.1335 -0.2778
 3449W        W19710   2.388   6.130   4.719 -0.0844 -0.0123 -0.0731
 3450W        W19711   6.257   5.764   4.945 -0.0937  0.3312 -0.3766
 3451W        W19712  14.515   0.718  11.276  0.0753 -0.2005  0.1929
 3452W        W19713  14.285  12.963  14.186  0.0940  0.0875  0.0750
 3453W        W19714  11.545   4.375  12.570 -0.2898  0.0491 -0.0829
 3454W        W19715   1.672   0.515  11.495  0.0209  0.0436  0.1082
 3455W        W19716   8.304   7.511   3.763 -0.3999 -0.2161  0.2636
 3456W        W19717  13.441  18.079  11.778  0.3965  0.0049 -0.2328
 3457W        W19718  17.649   8.741  11.604  0.2878 -0.1053 -0.3365
 3458W        W19719   1.136  18.255   1.250 -0.4436  0.3997 -0.3366
 3459W        W19720   2.770   2.226  13.476 -0.1848  0.0697 -0.0183
 3460W        W19721   8.930   1.244   1.540  0.0232  0.0844 -0.0129
 3461W        W19722  13.129  18.548   3.065  0.1766  0.1640 -0.3072
 3462W        W19723  10.181  13.545   2.373 -0.2027  0.1085  0.0899
 3463W        W19724   7.861  18.672   4.959 -0.2290 -0.1383  0.3023
 3464W        W19725   7.429  13.896   1.024 -0.2494 -0.0275 -0.0310
 3465W        W19726  15.586  13.803   4.698 -0.2661 -0.3990 -0.4885
 3466W        W19727  14.244   2.919  14.399  0.0679  0.1228 -0.1282
 3467W        W19728  10.440   9.414   2.056  0.0834  0.4302 -0.0094
 3468W        W19729  17.529   0.115  11.661  0.0619  0.3482 -0.1272
 3469W        W19730  16.673  13.933  12.660  0.2097  0.2366  0.1910
 3470W        W19731   0.325   6.673  13.503  0.0190  0.1308  0.0064
 3471W        W19732   9.374  16.823  14.460  0.1556 -0.2462  0.1663
 3472W        W19733  18.301  13.516  12.357 -0.4493  0.1608 -0.1386
 3473W        W19734  14.897   7.912  11.641  0.1247 -0.1739 -0.1105
 3474W        W19735  10.035  18.150   9.763 -0.1306 -0.2478  0.1364
 3475W        W19736  16.529   0.328   9.609 -0.0534 -0.1904  0.0359
 3476W        W19737   0.537  13.770  13.172 -0.0828  0.1405  0.0378
 3477W        W19738  18.617  15.134   3.274 -0.1624 -0.1871 -0.3862
 3478W        W19739  17.512   7.087   0.188  0.0392  0.0103 -0.3239
 3479W        W19740  12.080  11.565  14.830  0.1528  0.2843 -0.0990
 3480W        W19741  11.247   7.154  11.246 -0.3665 -0.1201  0.2174
 3481W        W19742  16.238   2.974  12.870 -0.0253  0.0136 -0.3399
 3482W        W19743   5.208   8.324   5.119  0.1471 -0.1118  0.3330
 3483W        W19744  17.141  14.526  12.610  0.0034  0.1318 -0.3606
 3484W        W19745   9.951   1.457   1.691 -0.1725 -0.0488  0.0637
 3485W        W19746   2.390   9.408  14.042 -0.1224 -0.2347  0.0403
 3486W        W19747   1.692  13.972   4.222  0.3196 -0.1804 -0.1856
 3487W        W19748  12.483  14.887  10.147  0.1046  0.1722 -0.2796
 3488W        W19749  14.815   5.407  13.594  0.0772 -0.1610 -0.0201
 3489W        W19750  13.629   5.131  11.973  0.0641 -0.0122 -0.1450
 3490W        W19751  12.138   8.344  10.637  0.2105 -0.1408  0.0911
 3491W        W19752  12.695   2.102  11.580 -0.4879 -0.1429 -0.0463
 3492W        W19753   7.165   9.707   0.958  0.0452 -0.2471 -0.0878
 3493W        W19754  16.937   9.742   2.242  0.0049  0.3234  0.0185
 3494W        W19755   5.351  18.249  12.928  0.2236  0.3543 -0.1145
 3495W        W19756   5.856   5.883  12.090  0.0405 -0.0779  0.0181
 3496W        W19757  18.968  14.767   3.137  0.4053  0.0254  0.1215
 3497W        W19758  10.313  16.103  12.020 -0.3859 -0.1152  0.3288
 3498W        W19759  18.750  12.095   2.632 -0.1798  0.2545 -0.2069
 3499W        W19760   7.061   2.317   1.212 -0.0672  0.0796 -0.1165
 3500W        W19761  15.961   3.568   5.562  0.0586 -0.2260  0.2513
 3501W        W19762  18.663   8.598   2.309 -0.2031 -0.0225  0.0663
 3502W        W19763  16.421  13.299   0.406 -0.0580  0.0029 -0.1409
 3503W        W19764   0.969  16.164  13.292 -0.1029  0.0286 -0.0057
 3504W        W19765   3.612   5.769   5.174 -0.0426  0.0879 -0.1399
 3505W        W19766   3.343  10.656  12.206 -0.0948  0.2731  0.3139
 3506W        W19767   3.267   7.256   5.746  0.1339 -0.1345 -0.1803
 3507W        W19768   3.660  14.717  12.880  0.1271 -0.5308  0.1327
 3508W        W19769  11.283   7.018   1.241 -0.0083 -0.1173 -0.3735
 3509W        W19770  16.156   8.067   4.687  0.1636  0.2924  0.1941
 3510W        W19771  12.872   1.150  14.529  0.4688 -0.1823 -0.2589
 3511W        W19772  12.516   0.813   3.774 -0.0215 -0.2333  0.0198
 3512W        W19773  12.253   1.479   0.685 -0.0321 -0.3790  0.1636
 3513W        W19774   5.368  18.095  11.120  0.0706  0.2081  0.0120
 3514W        W19775   2.336  13.289   0.164  0.1761  0.2856 -0.1082
 3515W        W19776   0.006  12.884  13.512  0.0336 -0.2194  0.1695
 3516W        W19777   5.793   5.738   0.781  0.2613  0.1453  0.0999
 3517W        W19778   0.920   3.531   5.776  0.2407  0.0435  0.1325
 3518W        W19779   7.698   6.563  10.729  0.2174 -0.0529  0.2053
 3519W        W19780   9.372  16.622  12.363  0.0369  0.1306  0.1753
 3520W        W19781  13.394   9.571   2.919 -0.0910  0.0675  0.0169
 3521W        W19782  13.632  14.526   2.544 -0.3134  0.1974  0.0276
 3522W        W19783   1.257  14.825  11.860 -0.4478  0.2308 -0.0868
 3523W        W19784  17.058   1.119   5.003  0.0716  0.2395 -0.2393
 3524W        W19785   2.705  13.505  11.044 -0.1055  0.2713 -0.2720
 3525W        W19786   8.433   0.915  13.971 -0.1730  0.2507 -0.1749
 3526W        W19787  15.295   3.051  12.456  0.0938 -0.1223  0.3111
 3527W        W19788  13.738   8.882  11.472 -0.2331 -0.0607  0.0019
 3528W        W19789  15.458  17.960  14.023 -0.2089  0.2286 -0.2634
 3529W        W19790  16.908  11.466   4.562  0.0671  0.3559 -0.2894
 3530W        W19791   5.576   0.453   5.412  0.0789  0.1644  0.1762
 3531W        W19792   5.930   2.119   4.878  0.0517  0.2507 -0.1360
 3532W        W19793  17.324  11.394   2.832 -0.1160  0.2011 -0.2211
 3533W        W19794  17.199  16.539  10.381 -0.0953  0.1071  0.0105
 3534W        W19795   1.645   8.861   4.074  0.1877  0.0822  0.2806
 3535W        W19796   5.003  14.366  12.689  0.1244 -0.1695  0.1433
 3536W        W19797  19.245  18.948   4.599  0.3660  0.0949  0.0583
 3537W        W19798   3.395   0.860   5.731  0.1056 -0.1406 -0.1587
 3538W        W19799   7.992   2.026  12.418 -0.2345 -0.3683  0.1797
 3539W        W19800  10.754   0.679   0.530  0.2411  0.1312 -0.1094
 3540W        W19801   6.264   5.033   2.693 -0.1459  0.0173 -0.0015
 3541W        W19802  16.588   7.365   1.393  0.1886 -0.0814  0.0050
 3542W        W19803   4.108  14.253   0.315 -0.1106  0.1637  0.1374
 3543W        W19804  13.048   1.045   3.039 -0.0752  0.1459  0.2837
 3544W        W19805   1.732  10.826  10.670  0.0278  0.2377 -0.0953
 3545W        W19806   0.959  17.198   4.913  0.4359  0.0703 -0.1147
 3546W        W19807  13.891   5.782  12.559 -0.2766  0.0157  0.2389
 3547W        W19808   7.953  14.564   1.877  0.2815 -0.2033 -0.1191
 3548W        W19809   1.031  17.684   3.819  0.1803  0.2207  0.3279
 3549W        W19810  13.685  18.354  12.070  0.0229  0.2556  0.1052
 3550W        W19811   3.515   0.725   1.611 -0.1772  0.0525 -0.2935
 3551W        W19812  11.009   9.464   5.286  0.0148 -0.0564  0.2011
 3552W        W19813  11.941  11.564   0.432  0.3223 -0.3781 -0.1524
 3553W        W19814  19.168   1.380  13.222 -0.1024  0.0132 -0.0812
 3554W        W19815   2.561   8.361   4.046 -0.2600  0.1115  0.0226
 3555W        W19816  14.224   5.983   2.601 -0.1150  0.1706  0.0864
 3556W        W19817  11.766   4.450  10.808  0.1303 -0.0734 -0.1886
 3557W        W19818  17.074  10.443  13.895  0.1172  0.3060  0.0468
 3558W        W19819   8.915  12.572   9.776  0.0855 -0.5343  0.1831
 3559W        W19820  16.552   8.777   2.307  0.0440  0.1394  0.0133
 3560W        W19821  17.666   0.857  13.279 -0.1366 -0.1748 -0.2579
 3561W        W19822  10.572  12.546  13.889 -0.0131  0.3104 -0.1449
 3562W        W19823  19.239   1.498   4.514 -0.1616 -0.0390  0.0207
 3563W        W19824  17.887  18.373  11.905  0.2266  0.0295 -0.0299
 3564W        W19825  15.671   7.409  13.447  0.0429  0.1796  0.2732
 3565W        W19826  14.578  17.345   2.382 -0.0477  0.1410  0.1334
 3566W        W19827  15.387   8.842  12.615 -0.1491  0.2520 -0.1424
 3567W        W19828   2.043  15.330  12.299 -0.0475  0.1334  0.2087
 3568W        W19829  12.542  13.430  12.428 -0.0045 -0.2198 -0.2532
 3569W        W19830  19.431   8.935   2.513 -0.2269 -0.0572  0.2317
 3570W        W19831   1.830   2.003   6.023 -0.2853  0.1083  0.1969
 3571W        W19832   4.429   7.514  13.220  0.2537  0.1894 -0.1251
 3572W        W19833   3.496   0.090   0.425 -0.1228  0.0513  0.1614
 3573W        W19834  17.428   8.473   3.546  0.0150  0.1506 -0.1911
 3574W        W19835   1.668  12.711  13.166  0.0562  0.0088  0.0660
 3575W        W19836  14.056   0.254  13.155  0.4971  0.0455  0.0707
 3576W        W19837   8.785  11.818  12.337 -0.1167  0.0140 -0.0505
 3577W        W19838  11.651  18.725  12.016 -0.2631  0.0333  0.0908
 3578W        W19839   4.991   2.509   4.969  0.1167 -0.0589  0.0300
 3579W        W19840  12.826   4.282  14.555  0.0521 -0.0334 -0.3297
 3580W        W19841   4.988  10.873   4.878  0.0778 -0.0291 -0.1950
 3581W        W19842  11.497   8.055  14.784 -0.2020  0.2789  0.1989
 3582W        W19843   0.265   3.789  12.831 -0.2681  0.2020 -0.1198
 3583W        W19844   2.005   2.943   5.299 -0.1735 -0.2291  0.0669
 3584W        W19845   2.981   7.003  13.719  0.1932 -0.2424 -0.2595
 3585W        W19846   4.908   1.213   0.757 -0.0105  0.0503  0.1004
 3586W        W19847   4.100  17.940  12.558 -0.0510  0.0270  0.0467
 3587W        W19848   4.547  17.321  10.836  0.2014  0.1264  0.0600
 3588W        W19849   0.192  12.267   4.028  0.0835  0.2796  0.3160
 3589W        W19850   8.980   0.035   3.659 -0.2453  0.2316  0.1309
 3590W        W19851   8.523   5.401  13.833 -0.2780  0.2713  0.3245
 3591W        W19852  15.931  14.835  11.708 -0.0413  0.1317 -0.0997
 3592W        W19853  11.787  14.524   2.204  0.0296 -0.3992  0.2117
 3593W        W19854  11.912  13.173   5.238 -0.0427 -0.1670  0.0390
 3594W        W19855   3.649   1.931  10.755  0.1875  0.0248  0.0022
 3595W        W19856  12.982   7.677   3.343 -0.0626 -0.2246  0.0598
 3596W        W19857  12.741   0.488  13.632  0.1602  0.0206 -0.3279
 3597W        W19858  19.043   1.085  14.038  0.0820 -0.1118 -0.3754
 3598W        W19859  10.149  11.680   1.353  0.0993 -0.0258  0.4132
 3599W        W19860   9.894  15.315   2.748 -0.0691 -0.2755 -0.1781
 3600W        W19861  11.300  16.166   3.295 -0.1988  0.1847  0.0620
 3601W        W19862   3.868  19.001   2.506 -0.0975  0.1026 -0.2407
 3602W        W19863   9.720   5.065   5.165 -0.1831  0.0213 -0.0206
 3603W        W19864   0.162   9.785   0.018 -0.4015 -0.0497  0.0551
 3604W        W19865   1.376   2.306  11.512  0.1379 -0.0198  0.1739
 3605W        W19866   0.982   5.249   3.138 -0.2214 -0.1290 -0.4115
 3606W        W19867  15.628  14.451   3.876  0.0446 -0.1726 -0.6693
 3607W        W19868   9.802  10.193   3.846  0.2556 -0.1253 -0.1655
 3608W        W19869  10.097  18.134  14.795  0.0640  0.2275 -0.0297
 3609W        W19870   1.793  10.327  11.973 -0.1259 -0.0631  0.0900
 3610W        W19871   1.364  15.919   4.368  0.2678 -0.0732  0.2557
 3611W        W19872   1.758  14.408   2.888 -0.0901  0.1912  0.2209
 3612W        W19873   6.556   3.130   3.597  0.1436  0.0388 -0.1487
 3613W        W19874   5.925   4.961   3.604 -0.0727  0.3236  0.3272
 3614W        W19875  15.828   5.550   9.819  0.3139  0.3578 -0.6123
 3615W        W19876   5.584   6.177  10.698 -0.2408 -0.2384 -0.1551
 3616W        W19877   0.901   8.369   0.368  0.3369  0.2462 -0.0369
 3617W        W19878   7.097  16.350   1.053 -0.0715 -0.0039 -0.3235
 3618W        W19879  15.475  10.223  11.771 -0.4803  0.0149 -0.2182
 3619W        W19880  10.733   8.955   2.289  0.1759  0.0422 -0.2208
 3620W        W19881   5.206  12.577  10.118 -0.2871 -0.0714  0.1871
 3621W        W19882   8.212   2.308  14.269  0.2671  0.2327 -0.0418
 3622W        W19883   7.172  15.279   1.057 -0.2106  0.0399  0.2248
 3623W        W19884  12.695   2.499  13.387 -0.0115 -0.2222  0.0675
 3624W        W19885   5.964   9.842  12.147  0.0338  0.0435  0.0524
 3625W        W19886  11.299   6.796   2.977 -0.0002  0.0297  0.4945
 3626W        W19887   0.948  10.785  14.223  0.2563 -0.0023 -0.3266
 3627W        W19888  11.367  17.290  12.188  0.2579  0.2628 -0.0995
 3628W        W19889  13.243   3.865  10.546  0.1474 -0.0615  0.1164
 3629W        W19890  15.459   1.698   0.236  0.0867 -0.2013  0.1240
 3630W        W19891  16.606  15.569   0.117 -0.2673 -0.2012 -0.2887
 3631W        W19892   0.897  18.418  12.523  0.0684 -0.0483 -0.0441
 3632W        W19893   9.146  12.498  13.630  0.0926  0.0541  0.1243
 3633W        W19894   2.168  15.950   3.789  0.0139  0.1931 -0.3147
 3634W        W19895  16.161   0.759  13.911 -0.0550  0.2024  0.0595
 3635W        W19896  12.529  10.935  12.762  0.1021 -0.2020 -0.4107
 3636W        W19897  17.292   1.420  14.242 -0.0480 -0.1471 -0.0023
 3637W        W19898   5.347   3.199  13.101  0.4683  0.0687 -0.0264
 3638W        W19899   0.649   7.375   2.162  0.1495  0.1233  0.1964
 3639W        W19900  12.051   8.294   0.137  0.1990 -0.0184 -0.1454
 3640W        W19901   7.508  13.366   4.029 -0.0368  0.2681  0.1099
 3641W        W19902  13.416  17.722   3.128  0.2256  0.0578  0.2303
 3642W        W19903   1.161   9.105  14.570  0.0697 -0.1368  0.1116
 3643W        W19904   6.008   0.406   0.112  0.3894 -0.0973 -0.1206
 3644W        W19905   8.897   7.439  14.424  0.0491  0.1261  0.1418
 3645W        W19906   0.623  12.744   1.082 -0.0702 -0.1605 -0.0269
 3646W        W19907  15.042  18.897   3.051  0.2461 -0.3649 -0.3810
 3647W        W19908  19.191   7.600   3.529  0.2651  0.3174  0.1803
 3648W        W19909  18.346   1.794   0.793 -0.1237  0.0407  0.3664
 3649W        W19910  11.724   5.450  12.651  0.2001 -0.2361  0.1164
 3650W        W19911  14.529   8.368   2.292  0.2585  0.2671 -0.0511
 3651W        W19912   3.099  14.329   0.801  0.0680  0.1818 -0.1412
 3652W        W19913  10.750  17.215   2.140 -0.0213  0.1686 -0.1738
 3653W        W19914  10.860   6.958   4.101  0.1178  0.0962 -0.0825
 3654W        W19915  12.156   5.536   4.749  0.1355  0.1600  0.1540
 3655W        W19916   5.657   0.785   0.018  0.0608 -0.3149 -0.1482
 3656W        W19917   2.656   8.738   1.676  0.2228  0.0872 -0.1173
 3657W        W19918   0.409   4.255  14.682 -0.0196  0.2511  0.0454
 3658W        W19919   5.671  17.994  13.892  0.2666  0.0233  0.2320
 3659W        W19920  12.206  19.211   3.798 -0.1305 -0.3784 -0.1116
 3660W        W19921  13.530  18.268   3.129  0.1265  0.1729  0.0129
 3661W        W19922   7.220   3.433  13.371  0.1723  0.0578 -0.0909
 3662W        W19923   4.245   5.690   5.107 -0.1275 -0.2248  0.0519
 3663W        W19924  15.790   7.727  12.191 -0.1059  0.1728  0.1734
 3664W        W19925  15.461  11.046  12.888 -0.0782 -0.0429  0.0168
 3665W        W19926  11.913   1.064  13.534 -0.0851  0.0354 -0.1751
 3666W        W19927   1.547   4.157   1.282  0.3718  0.0268 -0.3483
 3667W        W19928  15.977   9.092  13.293 -0.0885 -0.1225 -0.3518
 3668W        W19929   3.286   8.583   4.733 -0.1281  0.2454  0.0370
 3669W        W19930   4.238  13.431   2.026 -0.0707 -0.3456 -0.0649
 3670W        W19931  11.475   9.774  10.394 -0.2777 -0.3859 -0.0228
 3671W        W19932  15.678  15.059   0.162 -0.1214  0.2670 -0.3117
 3672W        W19933   6.816  15.702  13.793 -0.0844 -0.1269 -0.2281
 3673W        W19934  16.509   2.573  13.020 -0.0692 -0.0406  0.0087
 3674W        W19935  16.975  11.152  10.911  0.1289  0.3131 -0.0097
 3675W        W19936   5.987  11.764   3.450 -0.1798 -0.4376  0.0799
 3676W        W19937  13.757   0.125   9.661  0.1950 -0.0614 -0.1327
 3677W        W19938  12.015   0.716  14.111 -0.0971  0.3031 -0.1958
 3678W        W19939   1.511   6.054   5.281  0.1054  0.0475 -0.0352
 3679W        W19940  16.753   0.348  13.257  0.0038  0.0081  0.0725
 3680W        W19941  15.692  12.745  12.777  0.0866 -0.0850  0.0511
 3681W        W19942   6.764   8.066   0.834  0.0097 -0.0960 -0.1554
 3682W        W19943  16.710   2.819  12.458 -0.1177  0.0648  0.0109
 3683W        W19944  18.168  15.505  11.842 -0.3434  0.2471 -0.0262
 3684W        W19945  11.979   3.773  10.130 -0.1055  0.2548 -0.1273
 3685W        W19946  11.361  16.202   1.253  0.4106 -0.2506 -0.0000
 3686W        W19947  15.270   0.527  12.847 -0.3258 -0.2040 -0.2384
 3687W        W19948   0.232   6.219  14.797  0.3839 -0.0515  0.0960
 3688W        W19949  16.567  17.585   1.462  0.0078  0.3380 -0.1563
 3689W        W19950  14.851  16.881   3.589 -0.0295  0.0973 -0.2311
 3690W        W19951   5.153   4.074   3.920  0.0515  0.3052 -0.0215
 3691W        W19952  18.031   1.425   0.704 -0.2759 -0.2634 -0.2345
 3692W        W19953  14.440  14.615  12.585  0.1680 -0.2527  0.1896
 3693W        W19954   4.113  10.334  12.526 -0.0081  0.1503  0.1065
 3694W        W19955  18.428   0.414   3.894 -0.1326 -0.0292 -0.2091
 3695W        W19956  10.120   8.108   4.890 -0.0049  0.1922 -0.3297
 3696W        W19957   2.423  10.915   1.703  0.0012 -0.1352 -0.0232
 3697W        W19958   0.841   5.293   0.338 -0.3897  0.1623 -0.3239
 3698W        W19959   3.874   7.880   4.056 -0.2929  0.1327  0.1048
 3699W        W19960  18.463  13.298   4.195  0.0851 -0.1138 -0.0464
 3700W        W19961  16.345  14.095   0.096 -0.2489  0.0448  0.2046
 3701W        W19962  18.908   2.479  14.526 -0.0784  0.1597 -0.1933
 3702W        W19963   4.105   0.848   4.388 -0.1535 -0.4248  0.2944
 3703W        W19964   9.438   3.433  11.425 -0.3587  0.2272 -0.0705
 3704W        W19965   1.636  13.203   3.631  0.4026 -0.0903 -0.3772
 3705W        W19966   2.130  18.610  11.892 -0.1522  0.3346  0.3839
 3706W        W19967  17.850   5.325   5.299  0.0215 -0.0541  0.3614
 3707W        W19968  15.254  14.851  12.442 -0.0121 -0.0997  0.0244
 3708W        W19969   6.725   9.174  11.082 -0.0340 -0.0189  0.0998
 3709W        W19970  13.261  17.281  11.097  0.1146 -0.1999 -0.3289
 3710W        W19971  14.144   4.498  14.363 -0.0883  0.4164 -0.1556
 3711W        W19972  12.634   4.163  13.729  0.1360 -0.2079  0.0312
 3712W        W19973   0.226  18.978   4.952  0.1721 -0.1097 -0.2540
 3713W        W19974  15.511  16.353  14.495  0.3185 -0.1206 -0.3459
 3714W        W19975   4.227  12.135  11.139  0.1036  0.2883 -0.0537
 3715W        W19976  11.323  16.721   0.617  0.1897  0.0310  0.2242
 3716W        W19977  10.745  12.780   0.556  0.1933  0.0208  0.3256
 3717W        W19978  12.061   0.869   3.975  0.1460  0.1560  0.2126
 3718W        W19979   6.497   3.004   1.366  0.0440  0.1648  0.0069
 3719W        W19980   0.901  17.788  10.342 -0.2208 -0.2345 -0.0849
 3720W        W19981  16.974  16.779   1.870 -0.2753  0.1104 -0.2115
 3721W        W19982  16.671   2.454   1.889  0.1928  0.1744 -0.0282
 3722W        W19983   1.772   7.560  11.760  0.0208  0.0629  0.0124
 3723W        W19984  18.038  12.164   4.935  0.2047 -0.2719  0.0801
 3724W        W19985   7.179   1.249   0.289 -0.0363  0.0710  0.0862
 3725W        W19986   6.437  13.348  11.870  0.3065  0.3120  0.3033
 3726W        W19987  13.153   1.352   2.078 -0.1661 -0.0406  0.0854
 3727W        W19988   0.923   4.715  11.510 -0.1885 -0.0464  0.2766
 3728W        W19989  18.513  16.388  11.649 -0.2837  0.0368  0.2767
 3729W        W19990  11.528  19.110   1.188 -0.0462  0.1172  0.1202
 3730W        W19991  18.356  10.953   3.873 -0.2210  0.2411 -0.0440
 3731W        W19992  12.940  12.317  14.114 -0.0133  0.2679 -0.1327
 3732W        W19993  15.746   3.544   0.796  0.2310 -0.2076  0.0187
 3733W        W19994   4.161   0.173   3.616  0.4675  0.1471  0.1607
 3734W        W19995   4.960   3.045   0.547 -0.0332  0.1841 -0.1004
 3735W        W19996   9.473  16.205   1.296  0.2849 -0.0136 -0.1233
 3736W        W19997  17.978   0.570  13.598 -0.0538  0.3790  0.2975
 3737W        W19998  15.992   3.669  10.388  0.1923  0.0785 -0.1011
 3738W        W19999   0.187  18.939   2.037 -0.1338 -0.2496  0.1040
 3739W        W20000  14.755   3.359   4.023  0.0907  0.1204  0.0624
 3740W        W20001  11.271  10.215   1.051 -0.1801 -0.1843 -0.0699
 3741W        W20002   3.412  18.539   3.772 -0.2234  0.2328  0.0802
 3742W        W20003  16.228   1.052   5.528  0.1280  0.1065  0.3685
 3743W        W20004  10.095  11.186   4.283  0.1698 -0.3729  0.1332
 3744W        W20005  13.835   3.468  13.057 -0.2439 -0.0000  0.2906
 3745W        W20006  14.411  10.313  12.716 -0.1814 -0.0450 -0.1476
 3746W        W20007  10.538   8.572  12.334 -0.2091 -0.2109 -0.1040
 3747W        W20008   8.157  17.303  13.573 -0.0858 -0.1651 -0.0154
 3748W        W20009   7.056  13.574  14.429 -0.4581  0.0189 -0.3034
 3749W        W20010  14.598   4.565  14.622 -0.2145 -0.0006  0.0027
 3750W        W20011  16.866  17.055  13.208  0.1150 -0.2393 -0.0738
 3751W        W20012   4.619   9.851  14.631  0.1715 -0.1314  0.1019
 3752W        W20013   8.747  18.802   5.147 -0.0188 -0.5301 -0.1032
 3753W        W20014  13.105  18.825  12.525 -0.2299  0.1964  0.3773
 3754W        W20015   6.058  18.252   3.991 -0.0243  0.0987 -0.0414
 3755W        W20016   7.221  19.327   3.778  0.0019 -0.0485  0.0263
 3756W        W20017   1.443  13.849  12.162  0.2231  0.6097 -0.3126
 3757W        W20018   6.716  13.520  13.244 -0.1418  0.0141 -0.0951
 3758W        W20019   3.886  14.203   3.711  0.2405 -0.0203 -0.1204
 3759W        W20020  15.258   3.561   0.582  0.1704 -0.0210 -0.0467
 3760W        W20021   1.561  15.485   1.593 -0.0599 -0.2917  0.3214
 3761W        W20022  15.302   8.224   0.436  0.0905  0.0814  0.1251
 3762W        W20023  15.326   8.883  11.267  0.0408  0.1299 -0.1319
 3763W        W20024   0.492  18.290   4.226 -0.0867 -0.2074 -0.1327
 3764W        W20025   1.695  18.420   4.501 -0.0859 -0.3470  0.0342
 3765W        W20026   9.265   7.778  13.008  0.0080  0.1145  0.0162
 3766W        W20027   3.746   4.050   0.601 -0.1487 -0.1161  0.0746
 3767W        W20028   7.104   0.048   3.245 -0.0621 -0.0126 -0.1892
 3768W        W20029  13.000   8.112  14.700  0.0414  0.1211 -0.0666
 3769W        W20030   8.474  17.234   1.177  0.2855  0.0505 -0.0811
 3770W        W20031   5.607  18.752   1.450 -0.0047  0.1540 -0.1404
 3771W        W20032   0.871   0.788   4.464  0.0452 -0.0121 -0.1562
 3772W        W20033   1.346   9.170   4.425  0.1992 -0.3065  0.1121
 3773W        W20034   7.050  14.286  13.734 -0.1511  0.1486  0.2152
 3774W        W20035  17.237  14.176  11.614  0.2848  0.0187 -0.0629
 3775W        W20036   1.594  18.906   4.039 -0.4474 -0.0609  0.0976
 3776W        W20037  14.955  14.278   2.003  0.0320  0.0488  0.2490
 3777W        W20038   7.747   8.091   5.764  0.2720  0.0800  0.3475
 3778W        W20039  10.141  15.736   1.520  0.5138  0.1240 -0.2363
 3779W        W20040  13.887  10.102   0.470 -0.3198  0.0439  0.0797
 3780W        W20041  16.780  11.309  11.316 -0.1118 -0.0525 -0.0100
 3781W        W20042  14.418   3.875  13.614 -0.1101 -0.0401 -0.0096
 3782W        W20043   6.846  15.601   1.648  0.0478 -0.1372 -0.3046
 3783W        W20044  17.481  14.705   9.158 -0.0745  0.0361  0.2150
 3784W        W20045  11.378  12.787  10.802  0.2452 -0.0395  0.0208
 3785W        W20046  17.576  10.696  10.384  0.0439 -0.1893 -0.0749
 3786W        W20047  12.487  18.974   4.562 -0.0751 -0.1909  0.2557
 3787W        W20048  12.995  17.392   0.755  0.2074  0.0765 -0.0196
 3788W        W20049   8.044  10.763  13.827  0.5262  0.0991  0.1207
 3789W        W20050   7.052  15.905   2.012 -0.2202 -0.2890  0.0460
 3790W        W20051  15.142  10.378  13.353 -0.4479  0.1467  0.3586
 3791W        W20052   7.450  12.894   3.821  0.0532  0.0865 -0.4475
 3792W        W20053   6.306  19.062  14.087 -0.0400  0.0919  0.3834
 3793W        W20054  15.785   0.459  11.824 -0.2739  0.2108  0.1412
 3794W        W20055   7.166   8.698  11.921  0.4421  0.3465 -0.3564
 3795W        W20056  18.080  12.747   0.786 -0.3552 -0.0943 -0.1176
 3796W        W20057   8.721   8.172   4.889 -0.3801  0.1027 -0.1447
 3797W        W20058   4.030  12.061   4.933 -0.3529  0.1214  0.1921
 3798W        W20059  11.279   8.025  10.715  0.1727  0.0637 -0.1058
 3799W        W20060   2.523  14.936  10.924 -0.0396  0.3833  0.1001
 3800W        W20061  16.349  16.947  14.083 -0.0055 -0.2104  0.0370
 3801W        W20062   5.049  15.588  10.810 -0.0647  0.1507 -0.2321
 3802W        W20063  13.202   1.980  12.131 -0.4879  0.3622 -0.0868
 3803W        W20064  19.376   3.037  10.732 -0.1208  0.0676 -0.2007
 3804W        W20065   8.673   0.349   2.311 -0.0344 -0.1560 -0.0097
 3805W        W20066  15.408  18.959   2.252  0.2020  0.1784  0.0746
 3806W        W20067  16.159   9.365   3.282  0.1337 -0.0549 -0.3225
 3807W        W20068   7.566   4.293  11.788  0.0104  0.1357  0.2780
 3808W        W20069   6.154  18.151  14.064  0.0117 -0.5340  0.3404
 3809W        W20070   7.338   7.012   0.196  0.0120 -0.0369  0.0155
 3810W        W20071  17.739  17.561  10.504 -0.1332 -0.1287 -0.2330
 3811W        W20072   2.665   2.432  12.368  0.4392  0.5789  0.0130
 3812W        W20073   9.821  12.648   1.108 -0.0287  0.0205  0.0479
 3813W        W20074   3.753   1.238   2.518  0.1603  0.0651 -0.2528
 3814W        W20075   2.254  14.683   0.539  0.1384 -0.1292  0.0408
 3815W        W20076   6.246   0.703   1.157  0.2013 -0.0154  0.2161
 3816W        W20077   5.448   3.837  11.946  0.0737  0.2620 -0.2364
 3817W        W20078  12.802  13.429   3.346 -0.0324 -0.0182  0.2178
 3818W        W20079  16.770  10.683  11.133  0.0838  0.2021 -0.0454
 3819W        W20080   1.884  10.355   4.390 -0.0735  0.2028  0.0001
 3820W        W20081  16.742   4.691   9.439  0.0769  0.0438 -0.3507
 3821W        W20082   8.043   6.810   3.023 -0.0718 -0.0308  0.1915
 3822W        W20083   7.209  12.944   1.890  0.0680 -0.2880  0.0248
 3823W        W20084  19.338  16.684   2.573 -0.0985  0.0198 -0.1310
 3824W        W20085  12.314   2.568  13.072  0.1825  0.0529  0.0477
 3825W        W20086  17.710  10.018   0.721 -0.0275  0.1938  0.0866
 3826W        W20087  17.595   7.946   0.653 -0.0589 -0.1185  0.1047
 3827W        W20088   5.056   9.903  12.173  0.1722  0.3519  0.2128
 3828W        W20089  13.139  15.622  12.465 -0.1619  0.0137 -0.0538
 3829W        W20090  16.066  12.615  11.920  0.1563 -0.0399  0.3563
 3830W        W20091   0.844  18.417   0.815  0.2553 -0.0801 -0.1449
 3831W        W20092   0.570   7.759  14.608 -0.0276 -0.2470  0.2743
 3832W        W20093   5.418   1.958   4.799 -0.2407 -0.0222 -0.0949
 3833W        W20094  15.237  12.143  13.478 -0.0766  0.0504 -0.1694
 3834W        W20095  18.497  14.483   1.319  0.0802  0.2989  0.3517
 3835W        W20096  15.593   2.487  11.754 -0.1391  0.2043  0.6164
 3836W        W20097   0.829  17.842  12.647  0.0482 -0.2885  0.1166
 3837W        W20098  13.104   4.529  12.471  0.2149 -0.0038 -0.0230
 3838W        W20099   1.271  10.268  14.570 -0.1151  0.1414  0.2801
 3839W        W20100  16.891  12.851  13.409  0.0422 -0.2296  0.2056
 3840W        W20101   8.757   8.205  11.203  0.1748  0.2591 -0.2279
 3841W        W20102  12.258   7.371   4.519  0.0551  0.0749 -0.3527
 3842W        W20103   2.945   9.637   0.346  0.2815 -0.2203  0.1985
 3843W        W20104  14.885   2.472   3.699  0.0686 -0.0533  0.0120
 3844W        W20105  11.409   7.381  10.771  0.1507 -0.3224 -0.0275
 3845W        W20106  11.306  12.369   0.016 -0.0501 -0.0109  0.2720
 3846W        W20107   0.509   3.030   1.473  0.0054 -0.2003 -0.2149
 3847W        W20108   2.265   7.924   1.837  0.0906  0.0004 -0.1643
 3848W        W20109   0.677   2.968   3.792 -0.1003  0.0322 -0.0923
 3849W        W20110   9.468   1.708  14.308  0.0704  0.1062  0.1009
 3850W        W20111  15.161  10.480   3.591 -0.1155 -0.2297 -0.2111
 3851W        W20112  17.816  12.237   0.374 -0.2095 -0.3018  0.0073
 3852W        W20113  16.064  10.161   9.473  0.1073 -0.3799 -0.0224
 3853W        W20114  11.138  16.504   3.713  0.1345  0.2889 -0.0230
 3854W        W20115  12.964  14.024  10.255  0.2022  0.0444 -0.2028
 3855W        W20116  14.203  19.029   0.191  0.2691  0.1441 -0.0155
 3856W        W20117   8.628  17.675  13.651 -0.1135 -0.4794  0.1034
 3857W        W20118  13.028  17.414   3.832  0.3301 -0.2919 -0.1373
 3858W        W20119  13.682  14.054  10.302 -0.2150 -0.1932  0.1470
 3859W        W20120  13.971  13.497  10.513  0.2065 -0.3562 -0.2327
 3860W        W20121  11.721   9.906   0.152 -0.3383 -0.0495  0.4912
 3861W        W20122  13.408  12.250   3.675 -0.2243  0.1647 -0.0745
 3862W        W20123  16.211  14.553   3.806  0.2647 -0.3767  0.0718
 3863W        W20124  11.589  10.715  14.265 -0.1744 -0.1787  0.1333
 3864W        W20125  11.317  13.033  12.080  0.0988  0.0057  0.1606
 3865W        W20126   1.685  19.193   3.044  0.0569  0.2966 -0.2402
 3866W        W20127   0.121  10.845   1.547 -0.1590  0.0432  0.1590
 3867W        W20128  11.428  10.303   0.536 -0.1585  0.1250  0.1823
 3868W        W20129   4.640  15.115   1.973  0.4314 -0.0320 -0.1538
 3869W        W20130  14.586   6.726   0.865  0.2385  0.1428  0.4164
 3870W        W20131   3.011   6.077   2.143 -0.0937  0.2332  0.1885
 3871W        W20132  16.093   6.080  14.190  0.1636 -0.2882  0.1905
 3872W        W20133   6.909  12.356  13.779  0.3105  0.0987 -0.0897
 3873W        W20134   9.207   8.273  11.371 -0.1772  0.0170 -0.0349
 3874W        W20135  10.012   1.996  12.851 -0.1840  0.3624  0.0607
 3875W        W20136   6.761   8.753  12.627  0.1426  0.1986 -0.1351
 3876W        W20137   9.509  10.476   0.254 -0.2883  0.3028  0.0198
 3877W        W20138  18.102   5.328  13.097 -0.3270 -0.2670 -0.3422
 3878W        W20139   4.736  13.699  13.584 -0.3016  0.0188  0.0227
 3879W        W20140   5.017  18.560  12.779  0.0848 -0.2484 -0.0398
 3880W        W20141  15.128   5.108  10.899  0.1190 -0.1558 -0.1765
 3881W        W20142   3.659  10.399  14.014 -0.3923  0.0878 -0.1627
 3882W        W20143  13.703   5.043  10.950 -0.1381  0.1453  0.1749
 3883W        W20144   2.169   1.218  11.623 -0.0572  0.0078 -0.0088
 3884W        W20145  16.210   0.914   2.827  0.3129 -0.3478 -0.0914
 3885W        W20146  11.839   8.418  14.063 -0.4504 -0.0731 -0.0247
 3886W        W20147   7.100  17.366  14.565  0.0125  0.0899  0.0725
 3887W        W20148   2.996  14.243   4.045  0.0074  0.0077 -0.3656
 3888W        W20149  13.660  16.551   2.812  0.0250  0.0906  0.0968
 3889W        W20150  17.854  18.635   1.279  0.0382 -0.0248  0.0388
 3890W        W20151  18.399  19.012   1.585  0.3153  0.0988  0.0874
 3891W        W20152  10.254   8.676   2.373  0.4333  0.0386 -0.3976
 3892W        W20153  10.836  15.689   3.449  0.0817  0.0443  0.0908
 3893W        W20154  12.434  18.078  10.146 -0.2253 -0.2737  0.0323
 3894W        W20155  12.993   6.464   0.024  0.3387  0.3095 -0.2103
 3895W        W20156   4.706   3.304  11.246  0.3201  0.3024  0.2495
 3896W        W20157  11.287   0.095   4.137  0.2615 -0.1048  0.2812
 3897W        W20158   5.538   6.325  13.530  0.0972 -0.0284  0.0008
 3898W        W20159   4.431   2.085   4.431 -0.0776  0.2089 -0.2044
 3899W        W20160  16.956   7.794   4.485 -0.0770  0.4827 -0.0060
 3900W        W20161   7.554   4.749  12.751 -0.1328  0.1084  0.4451
 3901W        W20162   5.993   4.115  12.268  0.0315  0.0068  0.5559
 3902W        W20163  17.726   5.489   2.152 -0.0104 -0.1913 -0.3879
 3903W        W20164  17.497   1.700   3.005 -0.1762  0.0294 -0.1685
 3904W        W20165   7.288  11.042   0.696  0.0441  0.0148 -0.2474
 3905W        W20166   3.424   4.208  11.118  0.0284 -0.2663 -0.2291
 3906W        W20167   7.245  19.379   5.021  0.0925  0.0092  0.1079
 3907W        W20168   2.886  17.821   5.706 -0.3329 -0.0111 -0.1097
 3908W        W20169   3.951  17.287  14.261  0.1627 -0.2517  0.1229
 3909W        W20170  18.852  16.047  11.603 -0.1093  0.0379 -0.1232
 3910W        W20171  19.190  17.072   2.900  0.1503 -0.1466  0.0975
 3911W        W20172   0.694  10.798  13.335 -0.3253 -0.3068  0.2144
 3912W        W20173   8.932   9.698   2.590 -0.2443  0.0310  0.0966
 3913W        W20174   1.291   8.270   0.014 -0.1033 -0.2396 -0.0034
 3914W        W20175  15.773   1.926  10.831 -0.0034  0.0439 -0.0262
 3915W        W20176   5.079   0.110  10.603  0.0679 -0.0088 -0.0627
 3916W        W20177   4.586   6.303   1.666  0.1920 -0.3576  0.2160
 3917W        W20178  15.447   0.633  11.427  0.1623 -0.0105 -0.0791
 3918W        W20179   3.859   5.544   2.192 -0.2740  0.2070  0.0558
 3919W        W20180  14.182   7.693   4.924 -0.3437 -0.0874 -0.0749
 3920W        W20181  10.949  12.281   1.957 -0.4380 -0.4300 -0.2020
 3921W        W20182   3.359  14.556  10.742 -0.2895  0.1129 -0.2848
 3922W        W20183  16.357  11.654   3.891 -0.0739  0.3542  0.0700
 3923W        W20184  12.583   1.612   4.401 -0.0327 -0.1947  0.1738
 3924W        W20185   2.165   6.007   6.192  0.1423 -0.1117  0.1536
 3925W        W20186   5.982   1.517   2.648 -0.3521 -0.0597 -0.0628
 3926W        W20187  12.857  19.408  14.652 -0.0461  0.1280 -0.2507
 3927W        W20188  10.511   8.615   0.627  0.2135  0.0680 -0.0582
 3928W        W20189   0.970   0.834  11.835  0.0429 -0.0045 -0.2720
 3929W        W20190  10.637   9.109   0.425  0.4203 -0.0538  0.1825
 3930W        W20191  16.255  17.695  13.102  0.0856  0.0866  0.2331
 3931W        W20192  11.089   7.607  12.513 -0.0043  0.1188  0.0944
 3932W        W20193   9.198   1.674  10.727 -0.1472 -0.0198 -0.4326
 3933W        W20194  10.829   4.169   4.538  0.0226  0.1883 -0.2843
 3934W        W20195   6.550  19.348   0.957  0.3159  0.0397  0.2704
 3935W        W20196   9.181  18.112  12.682  0.1234  0.0554  0.1544
 3936W        W20197   8.243  16.781  10.744  0.1392  0.2012  0.3283
 3937W        W20198   5.467   9.092   0.752  0.1708 -0.0993 -0.0539
 3938W        W20199  16.852  12.997   1.398  0.0001 -0.3157 -0.1227
 3939W        W20200   4.541   7.346  12.747  0.0125  0.1666  0.0608
 3940W        W20201  18.376   6.741   4.429  0.0820 -0.0722  0.2000
 3941W        W20202   8.411   7.616  11.063 -0.2768 -0.1232 -0.0526
 3942W        W20203  15.781  19.428   5.124 -0.1612 -0.0806 -0.2102
 3943W        W20204   7.995   0.037  11.246 -0.1494  0.1973  0.0457
 3944W        W20205  12.720  13.376   3.888  0.2376  0.1873 -0.1198
 3945W        W20206   9.953   0.850   9.734 -0.2859 -0.1524  0.0477
 3946W        W20207   1.666   4.512  13.827  0.0895 -0.0251 -0.0081
 3947W        W20208   3.848  18.486   4.663  0.1320 -0.1155  0.0130
 3948W        W20209  16.586  15.987   9.900  0.0689  0.0179 -0.1219
 3949W        W20210   5.973   6.336   4.653 -0.2686  0.0433  0.0370
 3950W        W20211  12.660  12.403   1.640 -0.0005 -0.2368 -0.1700
 3951W        W20212   8.804  16.681   4.367 -0.0846 -0.3499 -0.2679
 3952W        W20213  10.666   4.991  11.973 -0.1916 -0.4919 -0.0287
 3953W        W20214  10.314  14.590   1.030  0.0007  0.0413  0.1322
 3954W        W20215  18.545  11.353   4.188 -0.3278  0.0330  0.1494
 3955W        W20216  13.903  15.979   2.518  0.0271  0.0116  0.1281
 3956W        W20217  12.995  14.814  10.977 -0.0777  0.2057  0.2334
 3957W        W20218   2.727  16.598   1.487  0.0296 -0.0902  0.3645
 3958W        W20219  13.154   6.940  10.594 -0.1402  0.1314  0.4071
 3959W        W20220   6.852  12.639  10.812  0.0212  0.0376  0.1765
 3960W        W20221  19.246  13.076  14.776  0.3574  0.0774 -0.0184
 3961W        W20222  16.546  14.904   3.625  0.0589  0.0974 -0.0250
 3962W        W20223   4.883   0.873   0.097 -0.0390  0.0610 -0.1014
 3963W        W20224   8.541   9.930  13.472 -0.0974  0.1176 -0.0569
 3964W        W20225  17.515   0.111  14.020  0.0033  0.0587 -0.0877
 3965W        W20226  17.300  13.853   1.414  0.0581 -0.0383  0.0303
 3966W        W20227   8.964   3.649  11.129 -0.2055  0.2658  0.2975
 3967W        W20228  18.623   1.862   4.359  0.1477  0.1372  0.4856
 3968W        W20229  16.787   9.842   0.477  0.2711 -0.3790  0.0353
 3969W        W20230  11.722   2.130   4.510  0.1239  0.0578 -0.1960
 3970W        W20231   1.450   7.990   3.955  0.5518  0.0550 -0.0507
 3971W        W20232  12.209  16.719   0.293  0.1574  0.1207  0.1750
 3972W        W20233  13.510   4.333  10.324 -0.3910  0.3039  0.3537
 3973W        W20234   2.226  14.224   0.736 -0.1184 -0.0985  0.3248
 3974W        W20235  18.500   8.817  13.700  0.1805  0.0291  0.1756
 3975W        W20236   2.938   5.340   4.545  0.2778  0.1569  0.4787
 3976W        W20237   5.466   8.027   2.804  0.1288 -0.3381 -0.1590
 3977W        W20238  17.133   4.034   0.377  0.0171 -0.1876  0.1338
 3978W        W20239  18.056   8.980   1.523 -0.1213  0.1108  0.1442
 3979W        W20240   8.634   0.237  11.556  0.0032 -0.1329 -0.0997
 3980W        W20241   1.213   4.506  14.121 -0.0134 -0.3687  0.1648
 3981W        W20242  16.484   5.619  12.161 -0.1814  0.3207 -0.0775
 3982W        W20243   8.382   6.486   0.636  0.0755 -0.0167  0.0990
 3983W        W20244  15.821   9.430  14.138  0.1512 -0.1435 -0.2207
 3984W        W20245  16.988  14.011   9.903  0.0480 -0.0478 -0.0037
 3985W        W20246   4.388   8.258   2.767 -0.1077 -0.0890  0.0305
 3986W        W20247  10.693  11.019   0.572  0.0018  0.1898  0.1179
 3987W        W20248  19.043  16.150  14.855  0.0376 -0.1875  0.3000
 3988W        W20249  12.277  12.756   3.532  0.1647  0.2508 -0.0894
 3989W        W20250  16.192  14.049  12.496  0.0251  0.0834  0.0516
 3990W        W20251   9.859  11.662   0.964  0.0710 -0.1926 -0.2224
 3991W        W20252   4.364   3.349   1.949  0.0034  0.2232  0.2987
 3992W        W20253   7.938  16.266   5.341  0.0696  0.3305  0.0605
 3993W        W20254  18.054   8.768   0.626 -0.0460 -0.0024  0.1081
 3994W        W20255   9.923   7.841   0.355  0.1560  0.0548  0.3514
 3995W        W20256   4.474   2.442   4.805 -0.2340  0.4187  0.2088
 3996W        W20257  11.446  15.740   1.451  0.1583 -0.2548  0.0342
 3997W        W20258   6.403   8.532  11.511  0.2006  0.0232 -0.0606
 3998W        W20259   1.672  15.912   0.616 -0.3738 -0.1295 -0.1225
 3999W        W20260   2.277  18.735  11.441  0.1738  0.1119  0.0906
 4000W        W20261   6.511   4.436   4.787  0.0460  0.0355  0.1699
 4001W        W20262  14.427   4.451  11.384  0.1186  0.2782  0.0759
 4002W        W20263   7.253  19.425   5.567  0.0231  0.2952 -0.0417
 4003W        W20264  17.566   3.110   4.028 -0.1804 -0.2004  0.3992
 4004W        W20265  17.097  10.207   4.875  0.0409  0.2538 -0.2221
 4005W        W20266   5.356  14.789  14.120  0.0635  0.0075  0.2219
 4006W        W20267   0.334   4.458   0.263 -0.0511  0.0246  0.3553
 4007W        W20268  15.142  15.457  11.748 -0.2249 -0.3261 -0.3590
 4008W        W20269   1.345  17.824  10.770  0.1479  0.2746  0.1442
 4009W        W20270   2.279   3.421   1.243 -0.3729  0.0069 -0.0933
 4010W        W20271  12.278   7.728   4.033 -0.2027 -0.1356  0.3253
 4011W        W20272  10.704   9.636   0.258 -0.1813 -0.2570 -0.0341
 4012W        W20273  16.809   6.596   3.233 -0.1628  0.1211 -0.1229
 4013W        W20274  18.713   9.325  14.288  0.0021  0.0088 -0.1243
 4014W        W20275  14.262  10.177  11.967 -0.2348  0.1938 -0.1634
 4015W        W20276  13.758   2.162   0.178  0.1084 -0.3066  0.0212
 4016W        W20277   2.444   6.122   2.201 -0.1651 -0.0830  0.3142
 4017W        W20278   3.142  12.722   3.310 -0.0525  0.0780 -0.1232
 4018W        W20279   7.464  19.012  14.156 -0.0310  0.1633  0.4023
 4019W        W20280   7.748   7.376  12.914  0.3388  0.0387 -0.1096
 4020W        W20281  13.123   5.684   1.212  0.0291 -0.2419 -0.4779
 4021W        W20282  15.817  15.497   2.239 -0.4193  0.2759  0.3383
 4022W        W20283  18.510   7.164  10.911  0.0893 -0.2009 -0.0335
 4023W        W20284   7.899   2.813  14.427  0.2611  0.1177 -0.0239
 4024W        W20285  13.084   9.830  14.861 -0.0453 -0.0640  0.1029
 4025W        W20286   5.027  15.004   1.164 -0.1767  0.1377  0.3932
 4026W        W20287  10.520  10.175   3.860  0.1860  0.1733 -0.0815
 4027W        W20288  16.864   1.233  10.963 -0.2620 -0.2284 -0.1683
 4028W        W20289   6.621  11.793   2.815 -0.1823 -0.0188 -0.2858
 4029W        W20290  12.865  12.091   1.938 -0.0570 -0.0230  0.0534
 4030W        W20291   6.989  18.012  11.642 -0.0878 -0.0797  0.1567
 4031W        W20292   1.349  11.119   0.359  0.0113  0.0589 -0.0910
 4032W        W20293  12.395   8.834  11.716  0.2049 -0.0287 -0.0050
 4033W        W20294   4.143   4.628  14.772 -0.1010  0.4845 -0.3007
 4034W        W20295   9.907  13.908   0.578  0.3563  0.1184 -0.0278
 4035W        W20296   2.267   4.183   4.774 -0.1584 -0.0767  0.1813
 4036W        W20297   7.523   6.403  13.084  0.3906 -0.5042  0.1443
 4037W        W20298  13.645   9.713   3.363  0.0938 -0.1245  0.0429
 4038W        W20299  12.837   3.545  10.449  0.0163  0.0238  0.0150
 4039W        W20300   2.649  17.713  10.839 -0.0964 -0.0737 -0.3073
 4040W        W20301   9.262   7.802   2.601 -0.1633 -0.1351  0.0311
 4041W        W20302  19.288  11.008  10.670 -0.0270  0.0674 -0.0931
 4042W        W20303   6.653  18.819  14.598  0.0245  0.1071  0.1837
 4043W        W20304   8.861   7.483   3.722  0.0318  0.0670 -0.2376
 4044W        W20305  11.970  15.849   4.407 -0.1149 -0.1648 -0.4195
 4045W        W20306  17.612   3.101  12.881  0.0832  0.0291  0.2276
 4046W        W20307  15.381   2.272  10.596 -0.1556 -0.1546  0.2774
 4047W        W20308   9.920  17.961   0.869  0.0173  0.0745  0.0953
 4048W        W20309   1.034  13.713  11.797 -0.0782 -0.3990 -0.2655
 4049W        W20310  18.509  11.081   2.653 -0.0450  0.2993 -0.1713
 4050W        W20311  18.352  15.498   4.956  0.0340  0.1685  0.2357
 4051W        W20312   7.946   2.182   4.592 -0.2603  0.2255 -0.2482
 4052W        W20313  15.438  13.843  12.067  0.1009  0.0666  0.1532
 4053W        W20314   1.142  14.753   1.641  0.0716 -0.2312 -0.0373
 4054W        W20315   4.154  18.920  13.389 -0.1409 -0.0106 -0.0512
 4055W        W20316  15.963  10.372   0.738  0.3393  0.0064 -0.2146
 4056W        W20317   7.941   6.470   0.917  0.2008 -0.0051  0.0031
 4057W        W20318   5.832   3.660   4.414 -0.1712 -0.2027  0.2560
 4058W        W20319   7.684  10.342  10.542 -0.2864  0.2920 -0.1503
 4059W        W20320  11.296  10.251   5.252 -0.0193 -0.2622 -0.2058
 4060W        W20321  15.625  13.004   2.801  0.2283 -0.5823 -0.0604
 4061W        W20322   7.664  17.960   3.408 -0.2526 -0.2259 -0.6245
 4062W        W20323  15.950  13.487   1.495  0.0075 -0.1831 -0.1407
 4063W        W20324  17.009  12.657  14.829  0.0423 -0.2220 -0.0064
 4064W        W20325  10.990   4.475  11.190 -0.2548  0.0414  0.1535
 4065W        W20326   3.673  13.881  11.168  0.2222  0.0963 -0.2273
 4066W        W20327  13.539   0.896   1.228  0.0369  0.0951 -0.0292
 4067W        W20328  18.716  18.651   6.001  0.0661 -0.3274  0.0055
 4068W        W20329   2.863   3.277   2.061  0.2010 -0.0158  0.2972
 4069W        W20330   0.498  17.732  14.396 -0.2314 -0.0657  0.0635
 4070W        W20331  11.068   7.790   2.047 -0.0021 -0.2073  0.0964
 4071W        W20332  16.301   9.108  11.643  0.2467 -0.0715  0.0327
 4072W        W20333   3.298  14.867  14.012 -0.0417 -0.1510 -0.1808
 4073W        W20334   6.664   8.487  13.990 -0.2320 -0.0223 -0.2411
 4074W        W20335   3.522   6.657  10.745  0.2414 -0.4389  0.1397
 4075W        W20336   8.037   3.077  12.035 -0.2506  0.0000 -0.0741
 4076W        W20337   5.091  11.383   0.454 -0.0900  0.3023 -0.0685
 4077W        W20338   0.289   8.326   4.882 -0.0901  0.1426  0.0076
 4078W        W20339  12.335  11.759  13.019 -0.0614  0.1623 -0.2006
 4079W        W20340   0.949  16.792  12.759  0.0151  0.2767 -0.0244
 4080W        W20341   7.535   3.642  13.025 -0.0902  0.0124 -0.2085
 4081W        W20342   1.740   7.352   0.041 -0.3301  0.1258 -0.2074
 4082W        W20343  11.769   9.647   3.668  0.0320 -0.1126 -0.0809
 4083W        W20344  15.145  16.124   2.858  0.1102  0.0705 -0.1065
 4084W        W20345   3.196   0.530   2.981  0.3732 -0.0924  0.1490
 4085W        W20346   9.142  12.260   0.597 -0.0006 -0.0591 -0.1845
 4086W        W20347  12.720  13.047   2.359  0.0797  0.2503  0.0750
 4087W        W20348  12.299   8.244  12.886  0.1661 -0.1022  0.1660
 4088W        W20349   6.587   1.881   4.014 -0.1549 -0.4168  0.1639
 4089W        W20350  13.170  14.989  13.913 -0.2307  0.0326  0.1010
 4090W        W20351   1.264   5.947  14.634  0.1203  0.1828 -0.0294
 4091W        W20352   0.443   6.263   0.657  0.1270  0.2999 -0.0720
 4092W        W20353  10.752   1.308  11.779 -0.0289 -0.1950  0.2354
 4093W        W20354   0.324  17.097   0.399  0.0076  0.0702  0.3165
 4094W        W20355   0.850   3.535   1.368  0.2986  0.0175 -0.5085
 4095W        W20356  17.818   9.582  13.335  0.2624  0.3118 -0.1864
 4096W        W20357   5.266   0.898   3.309  0.2334 -0.2816  0.0084
 4097W        W20358  11.496   3.113   2.091  0.0706 -0.3251  0.0086
 4098W        W20359  18.423   7.364   2.993 -0.2484  0.1775 -0.0886
 4099W        W20360  11.573  16.098   2.000  0.1529 -0.1398 -0.1680
 4100W        W20361  10.858   5.791  14.636 -0.0249 -0.1719  0.1067
 4101W        W20362  17.099   2.444  12.414  0.0901 -0.1623  0.0470
 4102W        W20363   2.402  13.348  10.610 -0.0348 -0.0879  0.0927
 4103W        W20364   9.074   0.069  10.658  0.0331 -0.0392  0.0328
 4104W        W20365   5.238  16.747   0.659  0.1242  0.0178 -0.3624
 4105W        W20366  11.444   4.155  11.130  0.0719  0.1256  0.0310
 4106W        W20367  13.883   3.516   0.110  0.1047 -0.0706  0.1873
 4107W        W20368  14.917   8.642  11.173  0.1870  0.1643 -0.1517
 4108W        W20369  14.227   1.784  11.356 -0.0607 -0.1031 -0.1294
 4109W        W20370  16.423   5.000   3.357  0.0373 -0.2169  0.1709
 4110W        W20371   8.867  15.772   2.217 -0.1469 -0.2414  0.1539
 4111W        W20372   1.201  14.294  11.014  0.5007 -0.0697 -0.3058
 4112W        W20373   5.528   0.191   0.021 -0.1848  0.1918  0.6808
 4113W        W20374   6.122  18.619   0.739  0.1805 -0.3148  0.1102
 4114W        W20375   6.824  17.711   4.001 -0.0153 -0.1191 -0.2918
 4115W        W20376   7.554  16.704  10.241  0.1425 -0.0910 -0.3555
 4116W        W20377  10.178   1.151   0.517  0.0949 -0.2087  0.2937
 4117W        W20378  18.414  17.948  14.515  0.2163 -0.1330  0.3807
 4118W        W20379  14.851   5.931   0.342 -0.1169  0.0343 -0.3735
 4119W        W20380   5.699  16.319  11.924 -0.0445 -0.1228  0.0868
 4120W        W20381   7.977   4.512   2.193  0.0989 -0.2020  0.0476
 4121W        W20382   5.959  16.238   3.638 -0.0186  0.0615 -0.3747
 4122W        W20383   9.158  11.135  13.308  0.3173 -0.0028 -0.5579
 4123W        W20384  15.759   1.848   3.761 -0.0326  0.3086 -0.0784
 4124W        W20385  11.126   0.794   0.203  0.2900  0.0873  0.0968
 4125W        W20386   7.991   5.428   0.511 -0.1007 -0.0006  0.3467
 4126W        W20387   2.873  13.802   4.254  0.0280 -0.0545  0.1179
 4127W        W20388  15.529   1.256  13.415  0.2520 -0.0455  0.0871
 4128W        W20389   0.040   0.612   6.011  0.1336 -0.4211 -0.0060
 4129W        W20390  10.232  17.149   5.086  0.1448  0.0244  0.4143
 4130W        W20391   4.242   6.313  14.857  0.0182 -0.2771 -0.0306
 4131W        W20392   7.200   4.291   3.044 -0.1304  0.0794 -0.0874
 4132W        W20393  13.974  13.366   0.070  0.1266 -0.0817  0.0812
 4133W        W20394  12.958  16.988  11.919 -0.1245  0.0548 -0.3675
 4134W        W20395  13.106   0.226   0.069 -0.1518  0.0661  0.4572
 4135W        W20396  10.502  18.210  14.393  0.1118 -0.0957 -0.2392
 4136W        W20397   1.323   6.435  12.597 -0.1703  0.0360 -0.2688
 4137W        W20398   5.472   9.436  13.718 -0.1176 -0.0364  0.0241
 4138W        W20399  19.173  13.282  13.655 -0.2105 -0.1779  0.2664
 4139W        W20400   1.751   6.621  13.010  0.2588  0.4036  0.1716
 4140W        W20401   1.729   4.504  13.280 -0.1205  0.3145  0.1978
 4141W        W20402   0.656   2.926  11.145  0.1187  0.1694 -0.3305
 4142W        W20403   3.868   9.144   3.746  0.0416  0.1822  0.0554
 4143W        W20404   5.560   9.943   5.397 -0.3439  0.0242 -0.0865
 4144W        W20405  15.005  13.757  10.737  0.1493 -0.1411  0.2137
 4145W        W20406   7.017   1.518   5.339 -0.1220 -0.2019 -0.0938
 4146W        W20407  13.938  17.783   1.929 -0.3634 -0.0596 -0.2019
 4147W        W20408  16.508  10.375   2.729 -0.1195  0.0800 -0.1375
 4148W        W20409   1.052  15.268  10.890  0.2186  0.0062  0.1601
 4149W        W20410  14.595   1.157  12.362  0.2554 -0.0562 -0.1567
 4150W        W20411  18.987  16.598  11.467  0.0867 -0.3146  0.0851
 4151W        W20412   1.868   5.677   2.548 -0.1302  0.1070  0.0191
 4152W        W20413  11.766   7.933   2.467  0.3355  0.2209  0.3322
 4153W        W20414   9.217  18.791   5.366 -0.4256 -0.0884  0.0517
 4154W        W20415   4.376  14.429  10.935  0.4761  0.0523  0.1971
 4155W        W20416  10.762   9.037   1.712 -0.0291 -0.4784 -0.0815
 4156W        W20417  17.078   3.281   3.964 -0.1267  0.0233  0.0034
 4157W        W20418   4.125  15.610  13.891 -0.0207  0.1315 -0.0157
 4158W        W20419   0.679   2.023   0.263 -0.0872  0.1822 -0.1030
 4159W        W20420   0.884  17.086   2.271 -0.2673 -0.1486  0.0055
 4160W        W20421   9.151   0.220   4.068 -0.0125  0.0502  0.2818
 4161W        W20422   4.176   8.578  12.634 -0.3050  0.1083  0.0587
 4162W        W20423  12.818   3.048   2.861  0.2010  0.0577 -0.0812
 4163W        W20424   5.322   9.756  11.581 -0.1842  0.0877  0.0308
 4164W        W20425   0.854   8.609   2.131 -0.0492  0.0345  0.0431
 4165W        W20426  15.127  17.070   3.149 -0.2801 -0.1955 -0.3387
 4166W        W20427  15.835  13.736   5.313 -0.2735  0.0710 -0.3255
 4167W        W20428   5.568   9.360  14.222  0.1168 -0.0329 -0.1471
 4168W        W20429  14.262  12.237  13.591 -0.2094 -0.2096  0.0909
 4169W        W20430  13.453   3.048   0.488  0.0434 -0.1458 -0.0348
 4170W        W20431   5.961   9.454   3.821  0.1749  0.0223  0.2445
 4171W        W20432  14.204   6.773   2.064 -0.0750 -0.2383 -0.0061
 4172W        W20433  11.139  10.287  14.257  0.1210  0.1783  0.1704
 4173W        W20434  14.780  16.189   9.903 -0.0185  0.0616 -0.0855
 4174W        W20435   1.712  15.870   2.550 -0.0750  0.0372 -0.0789
 4175W        W20436  18.987   9.700   2.547 -0.0202  0.0188  0.1424
 4176W        W20437  11.198  17.455   4.789 -0.1709  0.0031 -0.1987
 4177W        W20438  14.004   3.341  11.390  0.1815  0.1444 -0.1027
 4178W        W20439  16.083   5.932   4.878  0.3698 -0.1936  0.1300
 4179W        W20440   4.171  14.379  12.018 -0.3002  0.1414 -0.3423
 4180W        W20441   6.734   8.656  11.059  0.5315 -0.0356  0.2518
 4181W        W20442  19.295   3.204  13.209  0.1782 -0.1361  0.2055
 4182W        W20443  13.484   1.199   8.988  0.2677 -0.1295 -0.0106
 4183W        W20444   6.659  18.989   3.843 -0.1404  0.2990 -0.1863
 4184W        W20445   1.131  12.706   1.769  0.0951  0.0458 -0.1857
 4185W        W20446  15.774  10.083  12.574  0.0858  0.2490  0.0951
 4186W        W20447  11.177   0.214   1.145 -0.2614  0.0122 -0.0943
 4187W        W20448  17.090  14.807   2.245  0.4495  0.0710  0.1810
 4188W        W20449  11.580  17.418   2.704  0.2130  0.3876 -0.0606
 4189W        W20450  15.588  17.393   0.407 -0.1915 -0.1948  0.1554
 4190W        W20451   7.199   1.642  14.699  0.0270 -0.0249 -0.0480
 4191W        W20452  16.007  17.162   0.452  0.1253  0.1490 -0.0754
 4192W        W20453  14.050  19.243   4.649  0.0871 -0.3145 -0.0309
 4193W        W20454   1.504   9.100  13.329  0.5294 -0.1805 -0.1027
 4194W        W20455   8.811  15.719  14.194 -0.3500  0.0065 -0.0936
 4195W        W20456  10.795  18.108  13.046 -0.0367  0.0135 -0.1533
 4196W        W20457  12.528   3.331  12.616  0.2522  0.1807  0.0047
 4197W        W20458   9.062   3.253  13.218  0.1761  0.1194 -0.1876
 4198W        W20459  16.752  13.376  13.487 -0.0301  0.0390 -0.0910
 4199W        W20460  10.229   5.065  11.687 -0.0659  0.2272  0.0342
 4200W        W20461   4.953   5.233   4.660  0.3274 -0.3299 -0.0011
 4201W        W20462   3.741   9.749   1.027 -0.2370 -0.0605  0.1401
 4202W        W20463  13.126   6.739  12.431  0.1119  0.5028  0.0075
 4203W        W20464   0.246  16.052   1.374 -0.1294  0.1639 -0.1127
 4204W        W20465   7.875   1.622  11.962  0.0224  0.1739  0.1114
 4205W        W20466  10.461  11.950   9.837 -0.0869 -0.1558  0.2733
 4206W        W20467  14.925  18.728  12.978  0.1343  0.0322  0.3240
 4207W        W20468  18.095  16.256  10.491 -0.0017  0.1366  0.0634
 4208W        W20469  13.394   2.742   4.135 -0.1883 -0.1907  0.5723
 4209W        W20470   4.294   0.424  11.936 -0.0187 -0.0420  0.1349
 4210W        W20471   7.462  14.953   1.580 -0.2520 -0.1581  0.1257
 4211W        W20472   9.555   6.020  13.599  0.1243 -0.1248  0.0610
 4212W        W20473   6.603   7.835  11.987 -0.2025  0.3018 -0.2015
 4213W        W20474   2.781  17.304   2.309 -0.2645 -0.1329 -0.2125
 4214W        W20475  14.269  12.064   1.548 -0.0633 -0.0218 -0.2039
 4215W        W20476   0.117  17.406  14.551 -0.1836  0.0114 -0.1966
 4216W        W20477   9.340   6.955   0.048  0.1114  0.0610 -0.3898
 4217W        W20478  12.297   4.259  12.301 -0.3368  0.1335  0.0453
 4218W        W20479   4.872  12.299  13.189  0.1382 -0.1172 -0.1380
 4219W        W20480   2.917  12.431   1.325  0.0147 -0.1792  0.0619
 4220W        W20481   2.959  16.247   0.462 -0.0069 -0.1736  0.0922
 4221W        W20482   3.748   9.259   6.019  0.1364  0.2675 -0.1953
 4222W        W20483  13.913  13.768   1.586  0.0163 -0.0471 -0.0443
 4223W        W20484   6.746  11.332   1.964  0.0240  0.0282 -0.5299
 4224W        W20485  15.236   6.630  11.845  0.1344  0.0353  0.0827
 4225W        W20486  19.176  19.450   1.080  0.2062  0.1323 -0.1721
 4226W        W20487  14.712  18.164   9.183  0.0496 -0.1502 -0.2843
 4227W        W20488   9.289  19.045   1.639 -0.1461  0.0303 -0.1016
 4228W        W20489   4.132  15.559   4.166  0.0290 -0.0906 -0.1368
 4229W        W20490   5.685  15.008  14.514 -0.0750 -0.0244  0.1462
 4230W        W20491   9.967   0.419   2.410 -0.1512  0.1027 -0.1508
 4231W        W20492   5.217   4.224   1.290  0.1898  0.4234 -0.4693
 4232W        W20493   6.793   5.426   3.307  0.0305  0.1273  0.0690
 4233W        W20494   6.678  19.113   0.164 -0.4586  0.0906 -0.2054
 4234W        W20495  17.372   7.841  12.816 -0.1625  0.3127  0.2651
 4235W        W20496   3.843  10.780   0.348  0.3328  0.0978  0.0453
 4236W        W20497   7.505   3.791  13.566 -0.1062  0.1015 -0.1834
 4237W        W20498  14.973   9.568  13.792  0.0988  0.0018 -0.1623
 4238W        W20499  10.854  15.143   1.270  0.1141 -0.3158  0.1304
 4239W        W20500  15.651   6.995  13.737 -0.1608  0.1513 -0.0917
 4240W        W20501  18.048   6.942   5.715 -0.1049  0.0565 -0.0176
 4241W        W20502  11.872  10.354   0.343  0.0300 -0.1060 -0.1503
 4242W        W20503  18.467  11.409  11.894  0.0440  0.0107 -0.0915
 4243W        W20504   9.669  13.736  12.413  0.0917  0.1664 -0.3233
 4244W        W20505   0.508  15.602  13.633 -0.2045 -0.2416 -0.1385
 4245W        W20506   1.257  14.062   3.975 -0.1421  0.0774 -0.0564
 4246W        W20507  14.692   1.545   1.828  0.2318 -0.0879 -0.1975
 4247W        W20508   1.690  10.164  12.980  0.0566  0.1716 -0.3476
 4248W        W20509  12.850   4.826   0.958 -0.1439 -0.1715  0.1392
 4249W        W20510   6.893  11.561   0.043  0.3794 -0.1330  0.0121
 4250W        W20511  15.948   1.115   1.661 -0.0596  0.0247 -0.4155
 4251W        W20512   3.951   0.441   1.895  0.2884  0.3412  0.0135
 4252W        W20513   7.129   2.547  11.648  0.0254  0.0449  0.0396
 4253W        W20514  18.621   6.499   0.959  0.3504  0.1299  0.1820
 4254W        W20515  13.913   1.791  14.223  0.3150 -0.0220 -0.2334
 4255W        W20516   6.406  10.864  14.672  0.0810  0.0407  0.1602
 4256W        W20517   3.613   8.128  12.548  0.1659 -0.0782  0.1487
 4257W        W20518   0.065  16.430  14.124 -0.3475 -0.1308  0.0214
 4258W        W20519  14.481  17.040  10.452  0.1259 -0.3682  0.0993
 4259W        W20520   0.617  12.790  14.142 -0.1387  0.4423 -0.2911
 4260W        W20521   5.013  16.187   2.895  0.2977 -0.0274 -0.3721
 4261W        W20522   9.153  13.603   0.179 -0.0960  0.0369 -0.2486
 4262W        W20523   5.940  10.930   4.583  0.0858 -0.1966 -0.0353
 4263W        W20524  19.299  14.168  10.390  0.1570 -0.1225 -0.0362
 4264W        W20525   3.619   0.011   3.709  0.4545 -0.0669 -0.0809
 4265W        W20526   5.766   9.128  10.004 -0.2431 -0.1905 -0.2417
 4266W        W20527   4.124   7.625  12.833  0.1435 -0.3145 -0.1293
 4267W        W20528  13.373   4.320   4.068  0.0668  0.2681 -0.1255
 4268W        W20529   5.628   9.094   3.659 -0.1866 -0.2548  0.2762
 4269W        W20530   8.868  18.714   3.078  0.0768 -0.2129  0.1430
 4270W        W20531   0.016  12.117  13.746 -0.0738  0.2208  0.0248
 4271W        W20532  13.557   5.697  10.300  0.0629  0.1612 -0.2982
 4272W        W20533  10.128   0.818  10.283 -0.1017  0.0232  0.2118
 4273W        W20534  16.096   8.170  12.196  0.1050  0.1197  0.2022
 4274W        W20535   5.201  11.378   4.281 -0.2123 -0.1118  0.1479
 4275W        W20536   1.006  14.046  13.570 -0.2205 -0.2554 -0.0427
 4276W        W20537   0.332   7.755   3.642 -0.3899  0.0105  0.1066
 4277W        W20538  10.051  17.658   2.737 -0.0127 -0.0479  0.0310
 4278W        W20539  17.125  17.347   3.713 -0.3193 -0.1244 -0.3521
 4279W        W20540  15.209   2.261   2.030  0.1997 -0.0087  0.2712
 4280W        W20541  18.162   4.062   0.407  0.1003  0.1379  0.0069
 4281W        W20542  19.368  16.158  10.246 -0.0245  0.4325 -0.2870
 4282W        W20543  11.690   5.190   4.815 -0.1510 -0.1315  0.0495
 4283W        W20544   2.917  13.110  11.352  0.2843 -0.0279 -0.3504
 4284W        W20545  18.875  14.068  14.671 -0.0788 -0.0495 -0.2557
 4285W        W20546  11.637   6.789   3.403  0.0590  0.1201 -0.1631
 4286W        W20547   0.357  12.214   1.140 -0.2579  0.0639  0.0324
 4287W        W20548   9.613   0.411  14.248  0.1092  0.0098 -0.2059
 4288W        W20549  11.045  18.194  12.606 -0.3624  0.0327  0.1290
 4289W        W20550  17.269  11.503  10.182  0.4245  0.1346  0.0225
 4290W        W20551   3.599   4.887   1.492 -0.0078  0.1990  0.0975
 4291W        W20552  18.110   8.883  14.696  0.0874 -0.0412 -0.1613
 4292W        W20553  17.497  14.327   3.038  0.2904  0.0576  0.1493
 4293W        W20554  12.765  10.345   4.355  0.0412 -0.0301  0.1662
 4294W        W20555   5.749   5.415  14.553  0.1739  0.0980 -0.0413
 4295W        W20556  11.213   9.184  10.891 -0.1292 -0.1060  0.1412
 4296W        W20557  15.966  10.291  12.125  0.3335 -0.1052 -0.4660
 4297W        W20558   5.601  12.726   2.821  0.1110  0.2379  0.0193
 4298W        W20559  13.121  10.792  12.118  0.1868  0.3191  0.0111
 4299W        W20560   7.794   0.794   4.955 -0.1622  0.1820  0.0099
 4300W        W20561  18.404  13.261  14.277 -0.3141 -0.4331  0.2711
 4301W        W20562   0.774  15.472  11.751 -0.1952  0.1345  0.1017
 4302W        W20563  15.887   9.119   0.586  0.0054  0.1236 -0.3419
 4303W        W20564   8.441   9.270   3.357 -0.1987  0.0311 -0.2418
 4304W        W20565  13.243  15.016   1.704  0.0570  0.2296 -0.2900
 4305W        W20566   1.775   5.926  12.309  0.0082  0.0160 -0.2791
 4306W        W20567  14.456   5.871  11.137  0.2220 -0.0598 -0.1075
 4307W        W20568   5.352   0.219   0.560 -0.1517  0.2250 -0.0098
 4308W        W20569  17.929  10.974   4.267 -0.0185  0.2418 -0.0982
 4309W        W20570  11.262   1.236  11.901 -0.0026  0.3389  0.0551
 4310W        W20571   3.416   5.090  10.213  0.0137  0.0398 -0.0205
 4311W        W20572  10.262  17.681   4.492  0.0369 -0.0440 -0.1890
 4312W        W20573  17.350   5.018  12.697 -0.7579  0.0680 -0.1312
 4313W        W20574   0.119  16.225   4.869  0.3726  0.0130  0.0896
 4314W        W20575   3.019  18.714   0.795 -0.0334  0.5984  0.2179
 4315W        W20576  10.579   4.069  14.873  0.1596 -0.1504  0.1623
 4316W        W20577  12.194   5.358  12.376  0.0907 -0.2083 -0.1479
 4317W        W20578   4.420   8.806   3.033 -0.0505  0.0474 -0.0543
 4318W        W20579   0.294   1.209   4.208  0.1387 -0.1005  0.1503
 4319W        W20580   1.839   7.722   2.876  0.0080  0.1790  0.1747
 4320W        W20581  10.054  10.521  13.632 -0.2863 -0.2149 -0.0115
 4321W        W20582  18.132  14.159   4.354 -0.1182  0.1242 -0.0662
 4322W        W20583  18.762   7.853  12.679 -0.0684 -0.2015  0.0608
 4323W        W20584   4.816  14.624   3.533 -0.3889 -0.0893 -0.1498
 4324W        W20585   7.334   9.661  11.762  0.2004  0.0510 -0.0287
 4325W        W20586   2.340   6.180   0.117 -0.3503 -0.1839  0.2192
 4326W        W20587  12.966  17.436  11.647  0.2779  0.1571  0.0680
 4327W        W20588  15.880   6.385  10.052  0.0316 -0.0608 -0.0980
 4328W        W20589  12.056   3.417  13.368  0.1376 -0.0354 -0.3136
 4329W        W20590   4.372  17.921  10.908 -0.0384 -0.4022  0.1508
 4330W        W20591   3.388   6.976  13.324 -0.1720  0.0280  0.1658
 4331W        W20592   9.589  10.552   1.181 -0.2756  0.2365  0.2635
 4332W        W20593  12.852  18.176   4.222 -0.1059 -0.2295 -0.2485
 4333W        W20594  10.353   4.183   3.717  0.1667 -0.1462  0.3097
 4334W        W20595  10.284  14.183  11.177 -0.1077  0.1799  0.0576
 4335W        W20596  17.838  11.774  12.895 -0.0713  0.1411  0.0445
 4336W        W20597   4.494  16.014  10.983  0.0211 -0.0243  0.1585
 4337W        W20598   3.514  15.004   3.475 -0.1198 -0.2418 -0.1390
 4338W        W20599   0.844   3.464  12.856  0.0549 -0.2772 -0.1156
 4339W        W20600  15.921  14.490   2.862 -0.1297  0.1269  0.0445
 4340W        W20601   8.203   1.436   3.953  0.1972 -0.2570  0.3801
 4341W        W20602  13.512   0.708  12.017 -0.1938  0.2102  0.0326
 4342W        W20603  14.591  15.670   4.025  0.1855  0.2769 -0.2786
 4343W        W20604  18.265   5.579  11.266  0.0907 -0.0503  0.2790
 4344W        W20605   6.565  14.749  10.415  0.0386 -0.3928  0.2459
 4345W        W20606   0.045   1.390  11.999  0.2794 -0.0376 -0.1538
 4346W        W20607   3.534  10.815   1.715 -0.0521 -0.2750  0.0543
 4347W        W20608  10.885   5.844   0.292 -0.2204  0.2035  0.0694
 4348W        W20609   7.112  16.945  10.041  0.0357  0.2086 -0.2869
 4349W        W20610   0.549   3.524   6.313  0.0431 -0.2249  0.2012
 4350W        W20611  15.507  15.685   1.379 -0.1872 -0.4846  0.1310
 4351W        W20612   9.157   2.476   4.458 -0.2252 -0.0254  0.3458
 4352W        W20613   3.313  11.234   3.377 -0.0471 -0.1242  0.0178
 4353W        W20614   2.782   5.405   3.692  0.0167  0.1264  0.1199
 4354W        W20615   6.977  16.956   2.242 -0.2164  0.3107 -0.3373
 4355W        W20616  14.942   5.775  12.388 -0.0369 -0.1163  0.1318
 4356W        W20617   8.134   4.182   3.545 -0.0289  0.2312  0.2136
 4357W        W20618   9.728   2.690   1.361 -0.2297 -0.0872  0.1154
 4358W        W20619   0.264  17.158  11.343  0.3934  0.0213  0.1839
 4359W        W20620  17.068   1.510  11.889 -0.0841  0.0828 -0.0807
 4360W        W20621   0.231   5.376  10.813  0.0239  0.4504  0.0636
 4361W        W20622   4.538  12.221   3.732 -0.0869  0.0027  0.0871
 4362W        W20623  18.110  18.267   5.461  0.2441  0.1217 -0.0701
 4363W        W20624   9.194   0.379  12.438  0.1561  0.2006 -0.0531
 4364W        W20625  17.337  18.920   0.562 -0.0683  0.1361  0.1042
 4365W        W20626  12.521  16.880  12.128  0.2158 -0.1548  0.0852
 4366W        W20627   8.628  12.557   3.201 -0.1742  0.0960  0.1135
 4367W        W20628  18.570   8.798   2.736  0.3171  0.0338 -0.0029
 4368W        W20629   8.686  10.097   2.278 -0.2369 -0.0762 -0.2365
 4369W        W20630  17.436   6.107  12.472 -0.2805 -0.1881 -0.0123
 4370W        W20631  16.993   7.403  13.011  0.3337  0.0643  0.0717
 4371W        W20632   6.007   7.789   0.472 -0.1259 -0.0494  0.0531
 4372W        W20633   3.964  15.643   5.614  0.1002 -0.3117 -0.2242
 4373W        W20634  10.666  11.781  14.550 -0.1220 -0.0892 -0.0452
 4374W        W20635  13.619   6.605   1.287  0.0056  0.3127  0.2251
 4375W        W20636  17.563   8.422  13.207  0.1196 -0.0841  0.1215
 4376W        W20637   4.016   7.972   2.978 -0.0174  0.1551 -0.0908
 4377W        W20638   5.993   0.694   5.420 -0.1222  0.2098  0.3232
 4378W        W20639   7.016   4.383   3.520  0.1037 -0.2948 -0.2835
 4379W        W20640  15.771   5.974  11.302  0.0746 -0.2707  0.2148
 4380W        W20641  11.969  11.793  12.179 -0.2313 -0.0573 -0.2014
 4381W        W20642  11.181   1.269   1.615  0.1450 -0.3483  0.0435
 4382W        W20643  14.367   1.489  13.317 -0.2083 -0.0841 -0.2918
 4383W        W20644   7.343  16.390   4.101 -0.0386 -0.2768  0.1011
 4384W        W20645  19.426  16.369   9.612  0.3227  0.0015  0.1082
 4385W        W20646   5.540   2.460  14.529  0.2710  0.0055  0.0724
 4386W        W20647  11.700   0.821   1.839 -0.1112  0.1696 -0.0701
 4387W        W20648   3.080   1.742  12.256  0.1715  0.0473  0.0727
 4388W        W20649  13.219   0.970   1.691  0.0606  0.0160 -0.3590
 4389W        W20650   8.234  12.834  13.715  0.0690  0.2722 -0.0088
 4390W        W20651  16.604   9.199  13.213 -0.1747 -0.2250  0.0207
 4391W        W20652  17.467  12.537  13.803  0.0693  0.2519 -0.0409
 4392W        W20653  11.711  18.419  11.613 -0.0757  0.1001  0.1063
 4393W        W20654  16.585  12.630  13.098 -0.0852 -0.3012  0.1435
 4394W        W20655   2.147   9.989  10.151 -0.1926 -0.0849  0.2501
 4395W        W20656  17.224  11.040  11.985 -0.0104 -0.3541  0.0783
 4396W        W20657  13.231   6.586   1.907 -0.1711 -0.5110  0.2835
 4397W        W20658   9.723   9.207  12.368 -0.0495  0.2248 -0.0509
 4398W        W20659   6.183  10.336   5.299  0.0850 -0.1476  0.0338
 4399W        W20660  10.148  12.471   2.478  0.0563  0.1040  0.0559
 4400W        W20661  18.428   2.712   4.644  0.1876  0.1451  0.1141
 4401W        W20662   8.194   1.378   0.393  0.3787  0.0185 -0.0646
 4402W        W20663   9.066  13.305   1.087 -0.0285 -0.0417  0.3403
 4403W        W20664  15.175  17.825   2.433 -0.0646 -0.2149 -0.2818
 4404W        W20665   7.160   6.114  13.184  0.1246  0.1669 -0.1610
 4405W        W20666  17.606  15.625   2.076  0.3345  0.3140 -0.3546
 4406W        W20667   5.995  14.576  11.100  0.0295 -0.0985 -0.2434
 4407W        W20668   9.419   7.430  11.842  0.2011  0.2507 -0.0015
 4408W        W20669   4.473   4.768  13.731  0.1601 -0.0392  0.2806
 4409W        W20670   9.368   6.439  13.055 -0.0767  0.1013 -0.0772
 4410W        W20671   3.083   3.963  11.329 -0.0287  0.2631  0.1270
 4411W        W20672  10.179   9.785   2.277 -0.2030 -0.3481  0.2179
 4412W        W20673  13.699  18.097  10.996  0.1995 -0.1699  0.1869
 4413W        W20674  15.641  19.049  14.673 -0.1080 -0.2531  0.0070
 4414W        W20675   4.612  17.278   4.958  0.5534 -0.0899  0.0652
 4415W        W20676   9.447   6.216   5.528 -0.1702 -0.1958 -0.2084
 4416W        W20677   2.171   0.023   3.083 -0.0333  0.2931  0.1923
 4417W        W20678  17.742  13.900   2.800 -0.1729  0.2870 -0.0672
 4418W        W20679   4.217   4.171   4.373  0.0584  0.0753 -0.3734
 4419W        W20680   7.497   4.030  14.020  0.0888  0.0921 -0.1610
 4420W        W20681   7.664   1.651  11.521  0.2540  0.1614  0.0576
 4421W        W20682   1.848  15.652   9.839  0.0001 -0.0222 -0.0872
 4422W        W20683  12.938  14.363  13.474  0.2537 -0.0015 -0.0205
 4423W        W20684  11.438   9.649   1.915  0.4088 -0.2727  0.2707
 4424W        W20685  13.730   6.304  10.834 -0.1392 -0.2935  0.1972
 4425W        W20686  11.207  12.537  12.605 -0.0863 -0.0659 -0.0615
 4426W        W20687  19.151  17.883   1.354 -0.1070 -0.1011  0.0239
 4427W        W20688   4.665   6.751  11.532  0.0947  0.3111  0.1782
 4428W        W20689   0.273  10.099   0.351 -0.0926  0.2464 -0.2813
 4429W        W20690   6.508  17.472  10.540 -0.2439  0.1254  0.0973
 4430W        W20691   4.048  15.597   1.275 -0.1250 -0.2886 -0.1145
 4431W        W20692   1.313  10.026  13.689 -0.2836  0.0604  0.1237
 4432W        W20693   3.512  17.199   4.204  0.0284 -0.0466  0.4612
 4433W        W20694   6.225   8.327   5.591  0.0055  0.1574 -0.1572
 4434W        W20695   6.604   2.929   2.449  0.2462  0.3424 -0.0836
 4435W        W20696  18.981   2.583   0.947  0.0417 -0.0332  0.0942
 4436W        W20697   7.434  15.626  13.209  0.1521  0.3159  0.1809
 4437W        W20698   4.336   7.681  12.392  0.1018 -0.1608 -0.0699
 4438W        W20699   2.065   8.994   2.779  0.1567 -0.0651 -0.0198
 4439W        W20700  13.515  15.729  10.363 -0.0725  0.0738 -0.2719
 4440W        W20701   4.518   2.813  12.683  0.3626  0.1125  0.2556
 4441W        W20702  15.581   1.656   3.219 -0.2142 -0.1013  0.2763
 4442W        W20703   6.542   8.755  10.096 -0.0049  0.0384 -0.0183
 4443W        W20704   6.241   9.364  14.832 -0.1506  0.0364  0.0493
 4444W        W20705  14.812   3.576   4.946  0.1354 -0.2552 -0.1150
 4445W        W20706  18.982   2.930  11.719  0.0494  0.5674  0.1392
 4446W        W20707   5.371  16.268  12.354  0.1790  0.0189 -0.0721
 4447W        W20708  15.291   0.214   2.620  0.0263 -0.2020  0.1200
 4448W        W20709  14.583   6.080   5.561 -0.2498 -0.0959  0.0506
 4449W        W20710  15.398  17.639   1.517  0.1981  0.0952  0.1405
 4450W        W20711  17.540   2.656   4.226  0.0646 -0.2830 -0.1516
 4451W        W20712   6.691  17.114   0.695  0.0921 -0.1163 -0.0648
 4452W        W20713  10.387  10.950   3.650  0.1773  0.0992  0.1252
 4453W        W20714  10.725  12.077   1.554 -0.1436  0.1472  0.0885
 4454W        W20715  14.752   3.696  12.419  0.0736  0.1071  0.0077
 4455W        W20716  10.087  11.783  10.514  0.1547  0.1231 -0.0208
 4456W        W20717   9.759   0.469   0.742  0.0529 -0.0332 -0.0192
 4457W        W20718   3.213  10.266  13.751  0.0519 -0.1291  0.1587
 4458W        W20719   9.990  11.527  12.408 -0.0941  0.0930 -0.3213
 4459W        W20720   7.741   9.045  11.278  0.0151 -0.1742  0.1310
 4460W        W20721   5.739   1.724  14.637 -0.2328 -0.1912  0.0990
 4461W        W20722  17.034   5.994  14.336 -0.0907  0.0401 -0.0452
 4462W        W20723   6.950   8.281   4.237 -0.0229 -0.0617 -0.1150
 4463W        W20724   1.398   5.925  13.828  0.2120 -0.5645 -0.1043
 4464W        W20725  18.729   1.157   1.950 -0.2726  0.2398  0.4318
 4465W        W20726   5.301  10.071   3.618  0.0290  0.1668 -0.2742
 4466W        W20727  12.381   7.565  14.832  0.0390  0.0320  0.0454
 4467W        W20728   9.387   5.350  13.881 -0.2759 -0.2248  0.1528
 4468W        W20729  13.065  10.452   3.412  0.0758 -0.2955  0.0425
 4469W        W20730  12.107   8.613   1.498 -0.2993 -0.0694  0.0664
 4470W        W20731  16.604  13.338  12.463  0.0978 -0.1172 -0.1901
 4471W        W20732   4.268  16.604  10.338  0.1696 -0.3425 -0.1456
 4472W        W20733   8.879  14.590   3.129  0.1635  0.0783 -0.0003
 4473W        W20734  19.425   1.428   1.653 -0.2936 -0.0091  0.0928
 4474W        W20735   2.923  12.051  10.569  0.2052 -0.1970 -0.0029
 4475W        W20736  18.858   0.821  11.924  0.0526 -0.2080  0.3732
 4476W        W20737  12.119  16.579   0.745 -0.2439  0.0149 -0.0537
 4477W        W20738   2.587  18.995  12.319 -0.0313 -0.2855 -0.0545
 4478W        W20739  16.177  13.641  11.719  0.2537 -0.0405 -0.0230
 4479W        W20740   1.006   2.465   2.843 -0.1167  0.1017  0.0462
 4480W        W20741  10.822   0.833  11.993  0.0394  0.2051  0.0534
 4481W        W20742   9.442  17.204   0.286  0.0820  0.2201  0.0392
 4482W        W20743  14.664  12.670  14.811  0.2278  0.0389 -0.2918
 4483W        W20744  18.844   3.146   0.083  0.0177 -0.0972  0.2131
 4484W        W20745  12.859   9.319   1.069 -0.0633 -0.2557 -0.1067
 4485W        W20746   5.038  15.538   1.608  0.3848  0.0720  0.1793
 4486W        W20747  18.799   6.626   1.440 -0.1250  0.1189 -0.1380
 4487W        W20748   1.679   4.090  14.153  0.4113  0.0253  0.1844
 4488W        W20749  18.153  14.199  11.743 -0.3626  0.0776 -0.1285
 4489W        W20750   1.396  10.439   9.689  0.1870 -0.2739  0.3117
 4490W        W20751   0.442   5.238  12.819 -0.3805  0.0499 -0.1716
 4491W        W20752  14.095   0.299  13.984  0.0380 -0.0656  0.0235
 4492W        W20753  16.203  14.164  12.990 -0.0375 -0.1442  0.1693
 4493W        W20754  11.922  19.314  12.946  0.3198 -0.1274 -0.0035
 4494W        W20755   6.912  12.646   4.962  0.1277 -0.1902  0.1841
 4495W        W20756  10.400   7.852   0.135 -0.2881 -0.1764  0.0330
 4496W        W20757   5.470   0.172  12.806 -0.3031 -0.1174  0.0031
 4497W        W20758  18.404   7.839   1.004  0.1422  0.1300  0.0647
 4498W        W20759  11.797   3.428   0.228  0.4593  0.1295  0.2776
 4499W        W20760  17.788   2.582   1.149 -0.2844  0.1334 -0.1257
 4500W        W20761  17.518   6.869  14.274 -0.2882  0.2549 -0.0874
 4501W        W20762   7.738  13.614   2.017 -0.0360 -0.0961 -0.0391
 4502W        W20763   1.162  11.931  10.632  0.0855  0.1735 -0.0419
 4503W        W20764   1.586  14.495  12.856  0.0733 -0.1483  0.2206
 4504W        W20765   9.279   7.269   1.027 -0.2639 -0.0125 -0.3272
 4505W        W20766  16.344  13.225  11.195 -0.1268  0.1893  0.0659
 4506W        W20767  12.040  14.730   3.236  0.0415 -0.0720  0.5499
 4507W        W20768   1.471   6.854   1.293  0.0598  0.0360 -0.0872
 4508W        W20769  17.158   2.108   1.661 -0.0882 -0.1410 -0.3032
 4509W        W20770   8.979  17.401   1.218  0.1458  0.0297  0.0423
 4510W        W20771  18.227  13.186   3.719  0.1518 -0.2222 -0.3059
 4511W        W20772   2.123   3.231  12.600  0.1831  0.4961  0.3494
 4512W        W20773  18.983   0.042   0.586  0.1814 -0.0804 -0.3882
 4513W        W20774  18.978   0.515   0.753 -0.0442 -0.0213 -0.3023
 4514W        W20775   8.620   1.831  10.431  0.1053  0.4430 -0.1119
 4515W        W20776  12.293   6.258   2.432  0.4170 -0.0423 -0.2056
 4516W        W20777  14.751  14.181  12.681  0.1178  0.2973  0.2514
 4517W        W20778   2.380  17.771  14.313 -0.3145 -0.0189  0.0586
 4518W        W20779  11.219  12.979   4.698 -0.2133 -0.1680 -0.1310
 4519W        W20780   5.748  16.359   4.076  0.0792 -0.0617 -0.1782
 4520W        W20781   0.580   3.787   3.305  0.0338  0.0314  0.2520
 4521W        W20782  18.209  11.048   0.688  0.1279 -0.2799 -0.0292
 4522W        W20783  11.027   3.862   4.242  0.1527  0.0062  0.0847
 4523W        W20784   4.971  17.122   4.378  0.0653  0.1567 -0.0438
 4524W        W20785  14.714  18.734   3.467  0.0029  0.0481  0.2534
 4525W        W20786   6.650   0.178   1.743  0.1001 -0.2792 -0.0560
 4526W        W20787  16.336   8.936   1.519 -0.3283  0.1427  0.1628
 4527W        W20788   1.549   0.031  14.346  0.1750  0.2577  0.6195
 4528W        W20789   1.305  18.770  12.521 -0.1277  0.0417  0.0653
 4529W        W20790  11.136   4.631  13.976 -0.1333 -0.2023  0.0020
 4530W        W20791  17.918   7.622   1.873  0.0986 -0.1102 -0.0591
 4531W        W20792   2.752   6.491   2.442 -0.1921 -0.4251  0.0177
 4532W        W20793   7.295  17.337   3.274  0.2085 -0.2469  0.3746
 4533W        W20794  11.489   5.186   2.440 -0.3082 -0.0982 -0.0382
 4534W        W20795   6.191   7.683   3.698  0.1485 -0.1287 -0.1054
 4535W        W20796   4.831  18.429  12.349 -0.0956 -0.0704 -0.0224
 4536W        W20797   2.256  15.244   3.120 -0.3673  0.5358 -0.3543
 4537W        W20798  15.272   1.703   0.713 -0.0194  0.0826  0.0603
 4538W        W20799   9.334  10.172  12.018 -0.0429  0.0043  0.1155
 4539W        W20800   8.340  16.120  11.870 -0.1894  0.0364  0.1716
 4540W        W20801  18.252   4.687  11.470  0.1801 -0.0305 -0.2374
 4541W        W20802   0.414   0.774   2.060  0.3349 -0.3023 -0.5356
 4542W        W20803  10.191  15.298   1.992 -0.1965 -0.0365 -0.0525
 4543W        W20804  10.751   0.800   4.512 -0.1642  0.0734  0.0164
 4544W        W20805  14.651   5.387   1.842 -0.1444 -0.3440  0.2838
 4545W        W20806   7.732  16.975  12.674 -0.1100  0.0836  0.1994
 4546W        W20807  14.265   2.039  12.974 -0.0815  0.1862 -0.2480
 4547W        W20808   2.309   9.160  11.439 -0.1865 -0.2169 -0.3994
 4548W        W20809   5.085   7.382   4.353  0.0790  0.0681  0.0065
 4549W        W20810   6.566  12.331  14.609 -0.1170  0.2435 -0.3280
 4550W        W20811   1.058  16.306  14.210 -0.0875  0.3667  0.0693
 4551W        W20812   7.058   3.048  12.461 -0.0267 -0.1191  0.2272
 4552W        W20813  10.940   7.167  10.722 -0.0786 -0.0490 -0.1329
 4553W        W20814   5.556   8.152   0.262 -0.0573 -0.1174  0.0581
 4554W        W20815   6.863  11.128   0.287 -0.1035  0.4119  0.0416
 4555W        W20816   1.568  18.432  14.237  0.0286  0.2144 -0.4442
 4556W        W20817   8.739   9.992  13.009  0.0853  0.0588 -0.0942
 4557W        W20818  11.666  16.813  14.164 -0.0354 -0.0616 -0.1235
 4558W        W20819  10.574  16.973  10.027  0.0256 -0.2079 -0.1030
 4559W        W20820   8.046   0.340   0.573  0.0998 -0.0300 -0.4019
 4560W        W20821   6.021  14.987  14.102  0.1757 -0.0241  0.3742
 4561W        W20822  15.030   8.866   4.603  0.0446  0.0442  0.2648
 4562W        W20823   9.137  16.981   3.911  0.4355  0.0004 -0.2177
 4563W        W20824  16.741   6.631   3.977  0.0229  0.3595  0.1327
 4564W        W20825  17.462  13.847   4.749 -0.2830  0.0728  0.2271
 4565W        W20826  13.187   3.860   5.647 -0.1411 -0.3249  0.1380
 4566W        W20827  15.362   7.221  14.229 -0.0232  0.2318 -0.1922
 4567W        W20828  11.070   5.382   2.286 -0.3715 -0.3583 -0.0025
 4568W        W20829  17.471  11.984   0.910 -0.2492 -0.0152  0.2182
 4569W        W20830   0.267   8.512   1.432  0.0967 -0.2162  0.0004
 4570W        W20831  12.068   4.858  13.262  0.1374  0.5404 -0.1882
 4571W        W20832  16.302  18.539   2.990  0.0835 -0.2267  0.0265
 4572W        W20833  15.117  11.459  12.839 -0.2604 -0.3796 -0.3094
 4573W        W20834  15.841   9.619  11.340 -0.1371 -0.0199  0.2586
 4574W        W20835  16.248   4.753   1.710  0.1521  0.0541 -0.2382
 4575W        W20836  18.860  13.650   4.290  0.0342  0.1062  0.0662
 4576W        W20837  12.080  12.906   0.278  0.0206  0.1892  0.0065
 4577W        W20838   3.367   7.427   4.463  0.1663  0.0472  0.0318
 4578W        W20839   9.656   8.177  13.852 -0.3495  0.0122  0.0198
 4579W        W20840   5.456  17.023   5.492  0.0034 -0.1513 -0.0037
 4580W        W20841   0.205  16.854   3.878  0.1710 -0.0030  0.3139
 4581W        W20842   0.788   5.896  14.395 -0.1229  0.2269  0.3005
 4582W        W20843   4.590  16.808  10.720  0.0478  0.0393 -0.2745
 4583W        W20844   2.721  15.243  11.671 -0.1818  0.0949  0.1660
 4584W        W20845  11.051  12.446  13.849  0.0214 -0.0785 -0.2083
 4585W        W20846   7.653  16.266  11.420 -0.2588  0.2242  0.1144
 4586W        W20847   6.198   2.299  12.183  0.1186  0.2469 -0.0490
 4587W        W20848   9.560   2.470  11.436  0.6146 -0.1169  0.3958
 4588W        W20849  14.918   5.160  11.757  0.1847  0.3760  0.0683
 4589W        W20850  13.864   2.758   4.406  0.0840  0.0222 -0.0540
 4590W        W20851   5.100  15.087   2.702 -0.3006  0.1818 -0.0891
 4591W        W20852   6.716  16.657  11.368  0.1668 -0.1012 -0.0692
 4592W        W20853  13.627  14.729  14.003 -0.2044 -0.1370 -0.5239
 4593W        W20854  18.416   7.877  13.031  0.0116 -0.2877 -0.2197
 4594W        W20855  17.427  10.808   3.096 -0.0063  0.0218  0.1053
 4595W        W20856   3.229   1.055   0.374 -0.2150 -0.4109 -0.0985
 4596W        W20857   2.467  14.551   9.982 -0.2326 -0.0990  0.1608
 4597W        W20858   7.493  11.829   3.102  0.0966  0.0369 -0.1847
 4598W        W20859  19.275  13.817   2.190  0.0022 -0.1273 -0.1854
 4599W        W20860   3.684   2.117  14.282 -0.0654 -0.3622 -0.1599
 4600W        W20861  19.249  15.127   1.008 -0.1249 -0.0873 -0.2362
 4601W        W20862  10.574   6.400   0.208  0.0360 -0.3414  0.0099
 4602W        W20863  16.852   8.686   2.682  0.1743  0.2867 -0.1241
 4603W        W20864   1.467  17.900   1.280 -0.0096 -0.1101 -0.1759
 4604W        W20865   5.258   9.159  13.293  0.0793 -0.3293  0.0146
 4605W        W20866   4.649   2.188  14.522  0.3431 -0.1198  0.0583
 4606W        W20867   7.496   2.221   0.365 -0.0388  0.1081  0.0982
 4607W        W20868   5.575   1.436   3.435 -0.0720  0.1293  0.0793
 4608W        W20869   0.957  12.186  11.041  0.4459 -0.2017  0.0070
 4609W        W20870  10.497   1.924   3.867  0.0401  0.0682  0.0025
 4610W        W20871  11.131   5.256   3.369 -0.2658 -0.2580 -0.1947
 4611W        W20872  13.877  19.083  13.996 -0.1097  0.0194 -0.3057
 4612W        W20873  18.656  15.507   0.498  0.0817 -0.1643 -0.3404
 4613W        W20874   8.757  12.893  12.764 -0.2226  0.0240 -0.2849
 4614W        W20875  17.037   3.073   1.813 -0.1283 -0.0586  0.0234
 4615W        W20876  12.396   6.083   2.935 -0.1103  0.1670 -0.0350
 4616W        W20877   8.043   1.797  12.850 -0.1454 -0.1036 -0.3114
 4617W        W20878   6.122   5.700  12.609 -0.0133  0.0635  0.3537
 4618W        W20879  14.080  16.933   1.549 -0.1652  0.3464  0.3967
 4619W        W20880   9.260  14.532   3.540 -0.0970 -0.0189 -0.0788
 4620W        W20881  14.766   5.645   3.048  0.0436  0.0571  0.0970
 4621W        W20882  18.936   8.274   3.469 -0.1868  0.0265 -0.1386
 4622W        W20883  17.283   9.480  10.624  0.0578 -0.3029  0.0752
 4623W        W20884   2.268  18.167   4.443 -0.0133 -0.5616 -0.1586
 4624W        W20885  11.679   4.266  13.557  0.0990 -0.3121  0.0523
 4625W        W20886  15.281   9.786   4.854  0.1512 -0.0169 -0.0605
 4626W        W20887   3.944  19.330   0.668  0.1555 -0.0720  0.0436
 4627W        W20888  11.057  14.002  12.721 -0.3756 -0.1434  0.2502
 4628W        W20889  17.565  18.242   0.497  0.3150 -0.1345 -0.2098
 4629W        W20890  12.269   7.254   2.311  0.2180  0.0848 -0.1738
 4630W        W20891   3.724  18.175   1.528 -0.3423  0.0867 -0.1421
 4631W        W20892   5.042  15.036   1.645 -0.0092 -0.2408 -0.0557
 4632W        W20893   9.773  12.271   3.718  0.2094  0.1814 -0.2178
 4633W        W20894   4.060   0.412   0.372 -0.1557  0.1171 -0.2823
 4634W        W20895  13.492  18.611   1.677 -0.2266  0.0168 -0.2470
 4635W        W20896   6.054  11.612   2.960 -0.3645 -0.0435  0.1686
 4636W        W20897  13.250   5.977  14.760  0.0319  0.0691  0.0263
 4637W        W20898   3.925   4.845   2.678  0.0300  0.0512  0.0868
 4638W        W20899  11.430   1.057   4.609 -0.0578  0.1125 -0.2807
 4639W        W20900  11.259  16.299  12.026  0.2462 -0.2732 -0.2531
 4640W        W20901  15.569   1.342   1.387  0.1181  0.0898 -0.4062
 4641W        W20902  12.029  14.114  14.453  0.1671 -0.0642 -0.0206
 4642W        W20903   1.431   2.259   1.849  0.1914  0.3791  0.0628
 4643W        W20904  15.456   5.232   2.783  0.0662  0.3564 -0.1159
 4644W        W20905   1.413  14.485  11.402  0.1689  0.0242  0.0662
 4645W        W20906  16.766  18.319   2.348 -0.1658  0.0329  0.2889
 4646W        W20907  12.589  12.149   4.839 -0.2176 -0.1568 -0.2364
 4647W        W20908  12.061  14.774  11.345  0.2269  0.0424  0.2662
 4648W        W20909   1.626  13.550   1.605 -0.1056  0.0989 -0.1945
 4649W        W20910   8.124  11.776  13.917  0.3071  0.1043 -0.1632
 4650W        W20911   1.468  14.774   3.055 -0.2631  0.1852 -0.0255
 4651W        W20912   5.888   6.089   2.671 -0.1136 -0.2831  0.0537
 4652W        W20913   6.481  18.049   4.182 -0.0339 -0.0087 -0.4827
 4653W        W20914  14.731  14.388   9.946  0.4310  0.0369 -0.0870
 4654W        W20915   8.469   6.098   3.080  0.0663  0.0558 -0.3262
 4655W        W20916   4.725   5.587   4.366  0.1803  0.3383 -0.1498
 4656W        W20917  17.072  16.178  11.851 -0.0664  0.1251  0.1738
 4657W        W20918   4.129  18.870  14.806 -0.2344  0.2499 -0.3388
 4658W        W20919  10.407  15.431   1.174  0.1232 -0.0102  0.0605
 4659W        W20920  16.222  18.355   2.521 -0.1976  0.0192  0.2800
 4660W        W20921   1.224   7.303  11.917 -0.0037  0.1969 -0.0789
 4661W        W20922   1.927   0.245   1.794 -0.0783 -0.0968  0.1109
 4662W        W20923   1.494   1.459  14.780 -0.1974  0.0424 -0.1929
 4663W        W20924   6.498  13.393  10.347 -0.2151  0.0099  0.0404
 4664W        W20925  16.069   6.226  14.800 -0.4519 -0.0900  0.2334
 4665W        W20926   3.051   9.584  10.704 -0.3645  0.0108 -0.0473
 4666W        W20927  11.693   5.218  14.639 -0.0431 -0.0885 -0.1586
 4667W        W20928   2.630  12.319  14.302  0.3492 -0.4218 -0.1560
 4668W        W20929   8.441   1.249   9.912 -0.1152  0.1548  0.2984
 4669W        W20930   0.497  18.666  12.707  0.0786 -0.2928  0.2211
 4670W        W20931  17.371   1.871  12.207  0.1296  0.3140 -0.1716
 4671W        W20932   9.798  10.088  10.415  0.1832  0.0386 -0.5988
 4672W        W20933   4.116   0.666  12.486 -0.1904 -0.1645 -0.2574
 4673W        W20934  16.026  12.348   1.250  0.3178  0.2267 -0.0473
 4674W        W20935  15.509   2.103  12.067  0.1711  0.3266  0.1427
 4675W        W20936   9.232  14.974  10.045 -0.2136 -0.2853 -0.1202
 4676W        W20937  16.757  18.883  13.758  0.2077  0.2665  0.0686
 4677W        W20938  18.838   9.901  12.222 -0.3089 -0.1968  0.2541
 4678W        W20939  11.277   8.798   2.463  0.2890  0.0194  0.0459
 4679W        W20940   5.655  17.275   5.119 -0.1281 -0.1081  0.0919
 4680W        W20941   5.633  17.131   4.622 -0.0153  0.1730 -0.1762
 4681W        W20942   1.550  13.484  11.786  0.2030 -0.2229  0.2173
 4682W        W20943   4.036  16.373   4.757  0.2258  0.1880  0.1398
 4683W        W20944  15.460  19.301  10.057  0.0544  0.1947 -0.0289
 4684W        W20945   3.956   9.680   2.281  0.0064  0.0279  0.4668
 4685W        W20946  16.881   7.907  12.806  0.1143 -0.3128  0.3608
 4686W        W20947  13.473  17.834   0.160 -0.2262 -0.0621 -0.2792
 4687W        W20948   8.270  10.744  14.238  0.2003 -0.0362 -0.0954
 4688W        W20949   2.994  11.782   5.433  0.2331  0.3412 -0.0208
 4689W        W20950   2.288  13.658  12.376  0.1980  0.0914 -0.4480
 4690W        W20951  14.328   3.655  13.147 -0.0608 -0.3716  0.3079
 4691W        W20952   2.701  18.984   2.205 -0.0408  0.1876 -0.1545
 4692W        W20953   8.315  11.779   3.208  0.0872 -0.1005  0.0939
 4693W        W20954   4.318  18.418   2.037  0.1895 -0.2883 -0.1397
 4694W        W20955  10.078   9.201   4.940 -0.2682  0.2251  0.1706
 4695W        W20956  14.140   9.138  14.132 -0.0249  0.0460 -0.1608
 4696W        W20957  17.061   2.727  11.266  0.1023 -0.2626  0.3310
 4697W        W20958   0.193  18.416  14.797 -0.1557 -0.2226  0.1098
 4698W        W20959  11.460  10.532  11.163 -0.1335  0.3415 -0.1140
 4699W        W20960  13.300   0.973  14.384  0.1154 -0.1161 -0.3351
 4700W        W20961   4.869  11.657   1.349  0.1452 -0.2339 -0.0274
 4701W        W20962  18.354  16.822   3.927  0.0875 -0.1007 -0.2959
 4702W        W20963  12.431  11.769   1.289 -0.2650  0.1575 -0.1270
 4703W        W20964  14.760  17.305   3.359 -0.5333  0.1211 -0.0911
 4704W        W20965   9.760   6.065   4.371  0.3107 -0.0941  0.3288
 4705W        W20966   0.007  13.056   2.840 -0.0520  0.1283  0.1377
 4706W        W20967  16.021   2.860  11.073 -0.0912 -0.2204 -0.1990
 4707W        W20968  11.985   4.452   4.879  0.1794 -0.4924  0.1323
 4708W        W20969  14.422  14.115   0.846 -0.2730 -0.1320 -0.0678
 4709W        W20970  18.891  11.841  13.761 -0.1294  0.0643  0.2113
 4710W        W20971   8.347  10.335  11.811  0.0558  0.3336  0.3052
 4711W        W20972   7.386  15.565  13.753  0.3939  0.3856 -0.2511
 4712W        W20973   0.919  12.956   9.095  0.1960  0.0479 -0.0596
 4713W        W20974   3.163   2.458   1.062 -0.1360 -0.0231  0.3998
 4714W        W20975  18.856  10.191   1.455 -0.1924  0.0978 -0.2153
 4715W        W20976  15.372  16.869  11.602 -0.2128 -0.2350 -0.3371
 4716W        W20977  11.513  13.468   1.537  0.1385 -0.2526 -0.0626
 4717W        W20978   1.425   3.208   1.407  0.2957 -0.0567  0.0872
 4718W        W20979  17.152   2.437   0.499 -0.5373  0.2551  0.0457
 4719W        W20980  13.996   0.215   4.233  0.1218  0.1589  0.2715
 4720W        W20981   2.986   1.932  13.075  0.0341  0.3301  0.1097
 4721W        W20982  13.968   0.001  11.697 -0.2744 -0.1967 -0.0886
 4722W        W20983  11.431   5.930  14.735  0.0667  0.0876 -0.0748
 4723W        W20984   1.254   4.655   1.941 -0.2393  0.1368 -0.1854
 4724W        W20985  10.187  12.790   9.279 -0.0659  0.0277  0.0456
 4725W        W20986   1.772   5.963   0.868  0.2651  0.1037 -0.2896
 4726W        W20987  12.551  12.728  11.814  0.0802 -0.1702 -0.0867
 4727W        W20988   9.250   2.553  13.775  0.0820 -0.0428  0.3392
 4728W        W20989  19.256  10.085   0.189 -0.1027  0.0196  0.0378
 4729W        W20990  10.272  18.906   3.179 -0.0293 -0.0396  0.2871
 4730W        W20991   3.020   2.496   0.539 -0.1171 -0.1876 -0.1798
 4731W        W20992   7.650  14.092  10.340 -0.1183 -0.2480 -0.2514
 4732W        W20993  16.081  14.617  10.824 -0.3097  0.1266  0.0225
 4733W        W20994  18.369   9.905  13.037 -0.1577  0.3516 -0.1196
 4734W        W20995   4.188   8.298  11.160 -0.0572  0.3084 -0.0514
 4735W        W20996  18.545   5.311  14.872 -0.0672  0.2596 -0.1533
 4736W        W20997   6.063   4.507  11.871  0.0805 -0.2354 -0.0298
 4737W        W20998  17.611   0.355   2.250 -0.0705 -0.1648  0.1984
 4738W        W20999   7.699  18.739  13.794 -0.5229 -0.0903  0.1536
 4739W        W21000   8.804   5.589  11.645  0.5574  0.0383  0.0201
 4740W        W21001  10.899  17.514  11.138  0.0204 -0.1112  0.1661
 4741W        W21002  14.811  15.000   1.213 -0.0722  0.0993 -0.1343
 4742W        W21003  19.294  18.635  10.681  0.1597 -0.1104 -0.0111
 4743W        W21004   8.435  16.299   1.271  0.0856  0.2755  0.3745
 4744W        W21005   3.343   7.965  14.766  0.0549 -0.0910  0.2568
 4745W        W21006  15.477  10.786  13.509  0.0668 -0.1605 -0.0873
 4746W        W21007   1.075   8.398  12.522 -0.1424  0.1723  0.0239
 4747W        W21008  10.103   2.394  13.313 -0.0143  0.0676 -0.0795
 4748W        W21009   9.415   6.413   1.987  0.0836 -0.2031 -0.4607
 4749W        W21010   1.709  16.596  13.697  0.5021 -0.0478 -0.1763
 4750W        W21011  15.031  13.822   9.779 -0.0474  0.3627  0.1075
 4751W        W21012   4.295  17.286   1.293 -0.1728 -0.1578  0.0846
 4752W        W21013   2.059   7.070   9.865 -0.0562 -0.2180 -0.3413
 4753W        W21014   6.237   0.825   0.538  0.1935  0.2025 -0.2437
 4754W        W21015   0.162   4.376   4.463 -0.3162  0.0645 -0.1694
 4755W        W21016   4.528   6.777  11.069  0.1406 -0.0788  0.1360
 4756W        W21017   0.124   7.035   1.186  0.3377 -0.1076 -0.1223
 4757W        W21018  15.325  16.606  12.096 -0.2427 -0.0680  0.0516
 4758W        W21019   1.082  13.223   0.719 -0.2509 -0.0885 -0.0511
 4759W        W21020  12.065   2.085  13.141 -0.1456 -0.2515  0.1961
 4760W        W21021   8.429   9.830   3.984  0.3068  0.0650  0.4184
 4761W        W21022  17.202   5.877  11.693 -0.0163  0.0095  0.2093
 4762W        W21023   2.221   6.548  14.615 -0.1581 -0.1265 -0.3996
 4763W        W21024   4.111   0.993   0.811 -0.0952 -0.0530  0.1513
 4764W        W21025  14.658  12.019  10.572  0.0527  0.0555 -0.0152
 4765W        W21026   4.747   3.170   1.210  0.0751  0.0445 -0.1380
 4766W        W21027  12.245  14.837   1.914 -0.1914 -0.0967 -0.2785
 4767W        W21028   8.027  16.749  13.847 -0.1120  0.1912  0.1843
 4768W        W21029   5.439   2.909  14.376  0.0777 -0.3856  0.5213
 4769W        W21030  15.346   9.514   3.116  0.2217  0.1287 -0.0191
 4770W        W21031   1.205  17.286   3.160  0.0620 -0.3312  0.0576
 4771W        W21032   4.818  17.994  13.073 -0.2575 -0.3087  0.0527
 4772W        W21033  19.088   6.494  11.726 -0.1955  0.1695 -0.1362
 4773W        W21034   8.258   9.883  10.325  0.0281 -0.1776  0.2006
 4774W        W21035   2.690   8.872   3.970  0.0979  0.1149 -0.1130
 4775W        W21036  13.192   8.014  12.940 -0.4402 -0.0072 -0.3985
 4776W        W21037  17.350   3.529   4.312  0.2516  0.0888 -0.3839
 4777W        W21038  14.424  17.617  10.037  0.1881 -0.0166  0.1330
 4778W        W21039   8.515  18.397   4.721  0.1893  0.0312  0.2210
 4779W        W21040   7.515   1.273  14.505 -0.0540  0.3960  0.1722
 4780W        W21041  17.908   7.407   4.607 -0.0336  0.2187  0.0415
 4781W        W21042  14.359  16.691  14.320  0.1055 -0.0685  0.1843
 4782W        W21043   8.705  11.021  10.807  0.1808  0.0541  0.4277
 4783W        W21044   5.601  19.309   1.122 -0.2611  0.2257  0.0238
 4784W        W21045   9.879   0.880   3.711  0.1543 -0.1884 -0.4436
 4785W        W21046   5.854  17.142  14.138  0.1307  0.0229  0.1570
 4786W        W21047  15.531   0.808   3.537  0.1868  0.0317  0.0570
 4787W        W21048   5.115   3.473   3.151 -0.1970  0.0668 -0.0647
 4788W        W21049  12.134  18.393   0.480  0.2354  0.2281 -0.3216
 4789W        W21050   9.193  11.974   1.391  0.4049  0.3642  0.0329
 4790W        W21051  12.257  11.441  11.821  0.4563 -0.0985  0.1202
 4791W        W21052  16.325   3.343  11.205  0.3236  0.2765 -0.1493
 4792W        W21053   3.212   5.795   3.649  0.2108 -0.1381 -0.0168
 4793W        W21054   9.133   4.009   5.526  0.1173 -0.1359  0.1286
 4794W        W21055   2.306  10.860  13.163  0.1083 -0.1647 -0.1351
 4795W        W21056   8.980   8.350   4.002  0.0144  0.0967  0.3130
 4796W        W21057  10.201   4.730   5.480  0.0321 -0.1535 -0.2273
 4797W        W21058   8.583  11.812  14.697 -0.0885 -0.1010 -0.1635
 4798W        W21059   2.935  11.088  12.345 -0.0948 -0.0901  0.0685
 4799W        W21060  10.569   4.193   0.440 -0.1529 -0.1544 -0.2072
 4800W        W21061   4.213  15.323   1.678  0.1483  0.0346 -0.1481
 4801W        W21062  14.046   3.932   0.315  0.0535  0.2165 -0.3236
 4802W        W21063  14.926   4.059  14.758 -0.1537 -0.3118 -0.4219
 4803W        W21064   8.582  19.095   9.918  0.1768 -0.0330  0.0409
 4804W        W21065   9.776   8.066   1.681 -0.1281 -0.0629 -0.0081
 4805W        W21066   7.022   4.335   4.010  0.4638  0.0876 -0.4191
 4806W        W21067   4.993   1.804  13.211 -0.0621 -0.1924 -0.2315
 4807W        W21068   2.781  12.586  11.544 -0.1156  0.0013 -0.0645
 4808W        W21069  10.163   9.136  10.994 -0.1005  0.0737  0.3049
 4809W        W21070  19.385   4.531  14.091  0.1152  0.0358 -0.0601
 4810W        W21071   6.444  15.423   5.446 -0.2175  0.3138 -0.3666
 4811W        W21072   4.615  12.190  11.505 -0.0927  0.3192 -0.0942
 4812W        W21073   0.699   7.513  13.760 -0.1169  0.0850 -0.1302
 4813W        W21074   0.624  19.237   2.071 -0.0205 -0.1508  0.0658
 4814W        W21075  19.406  11.215  12.116  0.5205 -0.0607  0.1733
 4815W        W21076   8.524  15.090  12.630 -0.0282 -0.1550  0.0793
 4816W        W21077   2.578   1.370  13.902  0.0978  0.0172  0.1822
 4817W        W21078   1.488  15.381  11.139 -0.1116 -0.0764 -0.1935
 4818W        W21079   6.686   8.393   5.767 -0.1143 -0.0290 -0.0582
 4819W        W21080   8.518   9.009   4.444 -0.5283 -0.0827 -0.2718
 4820W        W21081   7.335  10.674  13.200  0.1849  0.1134 -0.1333
 4821W        W21082  15.647   7.189   1.218  0.1388 -0.2794 -0.1622
 4822W        W21083  17.890  15.400  11.475 -0.0999  0.1658 -0.0085
 4823W        W21084  13.879   3.092  10.767  0.3440  0.1281 -0.1705
 4824W        W21085   5.077   1.519   1.093  0.1283  0.1427 -0.1148
 4825W        W21086   7.457  16.971  10.643  0.3295  0.2991 -0.2104
 4826W        W21087  14.817  15.623   9.654 -0.0200 -0.0541 -0.0477
 4827W        W21088  14.275  16.538   0.591 -0.2193  0.1714 -0.0725
 4828W        W21089   5.112   6.223  12.244 -0.1416  0.0231  0.0416
 4829W        W21090   5.102   1.688   3.425 -0.0057  0.3395  0.3769
 4830W        W21091  10.714   1.676   3.466  0.3189  0.1960 -0.0906
 4831W        W21092   6.109  19.071   1.636 -0.3167 -0.2186  0.0747
 4832W        W21093   0.297  10.767   2.858  0.1256 -0.0417 -0.4035
 4833W        W21094  17.776   6.462   2.245 -0.3848  0.3339 -0.2750
 4834W        W21095  11.845  13.495  13.245 -0.3077 -0.2413  0.0400
 4835W        W21096   4.803   8.545   2.682 -0.2761  0.0393  0.2039
 4836W        W21097   9.971   4.377  12.821 -0.3159 -0.0019  0.2861
 4837W        W21098   7.098  10.827   4.158  0.2185 -0.2964  0.1539
 4838W        W21099   5.224   4.665  11.418  0.0546 -0.0967 -0.0542
 4839W        W21100   6.357  11.982   3.801 -0.0058 -0.0596 -0.1257
 4840W        W21101  12.021  12.179   3.807 -0.1319  0.2384 -0.0992
 4841W        W21102   7.091   1.976  14.337  0.4399 -0.0150 -0.1804
 4842W        W21103  14.898   4.974   2.160 -0.0665 -0.3594  0.1913
 4843W        W21104   6.920  16.185  10.606  0.3762  0.4906  0.0765
 4844W        W21105   9.905  19.015   9.872  0.4461 -0.2212  0.3306
 4845W        W21106  17.921  15.890  12.132  0.1316  0.0049 -0.3437
 4846W        W21107   4.416  17.162   0.733 -0.1031 -0.0966 -0.0209
 4847W        W21108   1.142   1.463   1.522 -0.0065 -0.2860  0.0389
 4848W        W21109   9.620   1.927   2.366  0.1799 -0.4522 -0.4748
 4849W        W21110  16.445  14.682  13.165 -0.1647 -0.3140 -0.0768
 4850W        W21111   0.311   5.200   4.821  0.0932 -0.4122 -0.0794
 4851W        W21112  13.475   2.480   3.131  0.1010  0.1837 -0.0560
 4852W        W21113  18.563   9.261  14.745 -0.0276 -0.2472  0.0658
 4853W        W21114  15.302  12.218   1.535  0.0003  0.0543  0.0033
 4854W        W21115   1.010  12.958  14.343 -0.0982 -0.0813  0.2055
 4855W        W21116  12.000  11.604  11.196  0.4846  0.0510 -0.0407
 4856W        W21117   3.632   9.943  13.831 -0.0647 -0.1391  0.1015
 4857W        W21118   5.066  14.078  13.653  0.1412 -0.0619  0.2238
 4858W        W21119  16.002  11.847  12.948 -0.2205  0.0665  0.0572
 4859W        W21120  18.668  17.497  13.626  0.2091  0.3019  0.1092
 4860W        W21121   4.270  13.643   4.411 -0.1826  0.1576  0.1229
 4861W        W21122  18.642   6.553   9.738  0.1208 -0.2240  0.0811
 4862W        W21123  12.753  12.162   9.582  0.2493 -0.1453  0.1750
 4863W        W21124   1.770   7.899   3.489  0.3072 -0.0687  0.0980
 4864W        W21125  16.652   5.171  14.726  0.0657  0.0931  0.0595
 4865W        W21126   8.166   9.301  13.251 -0.2207 -0.1041  0.1175
 4866W        W21127   8.661   0.623  14.512 -0.1708 -0.1052  0.2719
 4867W        W21128  14.138  15.300   1.896 -0.1649  0.1768 -0.0657
 4868W        W21129   4.125   1.904  12.356 -0.0457  0.4073  0.3460
 4869W        W21130  12.859  15.986   1.041 -0.1402 -0.0086 -0.2695
 4870W        W21131  14.749  17.900   0.537 -0.1268 -0.1698 -0.0120
 4871W        W21132   7.742  14.862  12.454 -0.1700  0.0946 -0.1611
 4872W        W21133  15.107  11.537   4.842 -0.0451 -0.3914 -0.0612
 4873W        W21134   0.526  16.274   3.245 -0.1453 -0.0672 -0.2154
 4874W        W21135   4.010   1.870   3.663 -0.0499  0.2064  0.3128
 4875W        W21136  11.984   7.334  14.363 -0.1445  0.0055  0.1264
 4876W        W21137   2.704  18.326  13.848 -0.0116  0.1662 -0.1442
 4877W        W21138   5.292  10.703  12.400  0.1019  0.1717  0.2138
 4878W        W21139   6.760   6.033   3.200 -0.1988 -0.4441 -0.2872
 4879W        W21140   2.944   4.883  12.650 -0.2185  0.2777  0.3005
 4880W        W21141  11.798  15.574  14.239  0.0117  0.0718  0.0784
 4881W        W21142   9.375  15.499  11.473 -0.0793 -0.0901 -0.3895
 4882W        W21143   5.750   5.955   3.552  0.1894  0.1965  0.2295
 4883W        W21144   0.613  16.385  12.923  0.1873 -0.3849 -0.4371
 4884W        W21145   9.008  18.000   1.562  0.0740  0.0048  0.0684
 4885W        W21146   2.147  10.299  10.716  0.0874 -0.3407  0.1595
 4886W        W21147  16.564   2.453   2.354  0.0801 -0.2974  0.3003
 4887W        W21148   7.668  19.083   3.974  0.1153 -0.1060 -0.2346
 4888W        W21149  11.951  17.158   1.317 -0.0841 -0.0495 -0.1510
 4889W        W21150  18.827   5.759   3.446 -0.0804 -0.3910 -0.0368
 4890W        W21151   4.668  16.277  14.781  0.2734 -0.0370  0.1595
 4891W        W21152   8.651   7.156  11.092  0.0032  0.4090  0.2913
 4892W        W21153   7.953   8.261  14.426  0.4532 -0.1641  0.2439
 4893W        W21154  12.874  14.580   1.770 -0.2009 -0.0913 -0.0625
 4894W        W21155   6.726  17.084  12.678  0.1229  0.0722 -0.0904
 4895W        W21156  15.328   0.434  11.991  0.0401 -0.0182 -0.0180
 4896W        W21157   1.338  11.513   4.230  0.1398 -0.0230 -0.1025
 4897W        W21158   2.269  16.943   4.146  0.1317 -0.0459  0.0350
 4898W        W21159  12.904   5.304  14.044  0.1062 -0.0426 -0.1713
 4899W        W21160  16.240  13.857   2.246  0.3887  0.2572 -0.2298
 4900W        W21161  10.804   3.337  11.162 -0.0821  0.1906 -0.1476
 4901W        W21162  10.639   6.212   3.184 -0.1235  0.2652  0.2706
 4902W        W21163   9.368   3.766   2.217 -0.2314 -0.1279  0.1919
 4903W        W21164   5.963  10.517   4.239  0.1535  0.1856  0.3141
 4904W        W21165  15.967  10.525   2.558 -0.0936 -0.1928 -0.0849
 4905W        W21166   5.711  18.154  11.503  0.0064 -0.1564  0.2623
 4906W        W21167  16.497   0.978  11.683  0.1466  0.0851 -0.1134
 4907W        W21168  11.341  11.145  10.534  0.1182 -0.4681  0.4261
 4908W        W21169   8.986  14.533   1.824 -0.1288 -0.1097  0.0610
 4909W        W21170   2.294   4.243  13.194 -0.3067 -0.0476  0.3617
 4910W        W21171   3.306  17.333  12.224  0.0048 -0.2995 -0.2844
 4911W        W21172   2.792   7.440   4.461  0.0195  0.1106  0.1973
 4912W        W21173   4.409   6.883  14.249  0.3202 -0.3925  0.0363
 4913W        W21174   7.343  16.394  10.681 -0.1547  0.1308  0.0792
 4914W        W21175  12.851   1.853   2.708  0.1562 -0.0029  0.0039
 4915W        W21176  11.194  18.766   9.924  0.1688 -0.0114 -0.0524
 4916W        W21177   1.657  16.405   0.731 -0.0676 -0.1203 -0.0962
 4917W        W21178   1.660   3.584  11.164 -0.2980 -0.2586 -0.0895
 4918W        W21179   5.925   3.188  10.433 -0.0895 -0.0323 -0.1662
 4919W        W21180   8.132   7.134  12.508  0.3283  0.1242 -0.0122
 4920W        W21181   5.542   3.801   3.161  0.0130  0.2444  0.2394
 4921W        W21182   4.184  19.081  11.700  0.0165 -0.1008 -0.0624
 4922W        W21183  11.142   4.988  11.861 -0.0491  0.2577 -0.3162
 4923W        W21184   6.259   4.905   4.768  0.0656 -0.0770 -0.1071
 4924W        W21185   1.222   1.448   5.629  0.1626  0.1402 -0.3679
 4925W        W21186  13.007   4.785   2.439  0.0372  0.2033 -0.2847
 4926W        W21187  14.000   5.996   0.857 -0.0650 -0.1617 -0.4486
 4927W        W21188  14.745   3.507   2.641  0.0455 -0.0607 -0.3552
 4928W        W21189  14.431  19.336  10.940  0.0613  0.0058 -0.0844
 4929W        W21190  17.279  10.786  13.488  0.5945  0.0008  0.0631
 4930W        W21191  13.693   9.667  11.117  0.1172 -0.1026 -0.3618
 4931W        W21192   7.301   2.731   0.336  0.0691 -0.0270  0.1627
 4932W        W21193  18.069   2.154  12.891  0.0878 -0.0903  0.0660
 4933W        W21194   5.171   4.799   4.779 -0.1150 -0.1767 -0.1939
 4934W        W21195   3.816  18.233  11.444 -0.0060  0.0912 -0.0966
 4935W        W21196   7.879   5.259  12.316  0.0848  0.1308  0.2260
 4936W        W21197   4.425   7.437   1.270  0.2850 -0.1827  0.0972
 4937W        W21198   0.734   2.505   0.354 -0.1426 -0.1083 -0.1069
 4938W        W21199   7.628  19.449   3.500 -0.0114 -0.0722  0.0282
 4939W        W21200  16.626  17.765   3.931 -0.2549 -0.2220 -0.1331
 4940W        W21201   9.978  11.386  11.316  0.4537 -0.2881  0.0832
 4941W        W21202  15.651  15.947  13.854  0.2695 -0.0398 -0.2347
 4942W        W21203   1.686  16.965  11.616  0.0929 -0.0468 -0.0225
 4943W        W21204  16.080   7.066  12.071 -0.1576 -0.3214 -0.2612
 4944W        W21205   3.718  16.079   4.142  0.0092 -0.0317 -0.0016
 4945W        W21206  16.969   9.644   0.038  0.2688  0.1144  0.1427
 4946W        W21207   8.960  10.770  11.535  0.0257  0.0698  0.0100
 4947W        W21208  11.090   1.866   3.246  0.0539  0.3399  0.1862
 4948W        W21209   9.183   5.738   5.536 -0.1843 -0.0959  0.0368
 4949W        W21210   8.901  15.549  13.244 -0.0620 -0.3029  0.0157
 4950W        W21211   8.219  14.468  14.389  0.2820  0.1851  0.0539
 4951W        W21212  16.112  12.870  10.179  0.2260 -0.0902 -0.0726
 4952W        W21213   6.164   3.081  12.816  0.0765  0.1014 -0.0195
 4953W        W21214  18.052   9.373   0.020  0.3006  0.2667  0.2407
 4954W        W21215  10.237   4.033   2.685  0.1320  0.0720 -0.0723
 4955W        W21216  14.976  13.681   2.303 -0.1733  0.0320 -0.0067
 4956W        W21217   5.204   5.029   9.882  0.0328  0.0784  0.0607
 4957W        W21218   0.261   7.616   1.947 -0.2575 -0.0625  0.2497
 4958W        W21219   8.711   6.943   0.771  0.1198 -0.0779 -0.1388
 4959W        W21220   8.486  12.982   5.031 -0.0082 -0.0147  0.2186
 4960W        W21221   4.850  10.916  14.174 -0.2916  0.1356 -0.1379
 4961W        W21222  14.654   0.051   0.507 -0.0221 -0.1023 -0.0508
 4962W        W21223   5.368   0.477   0.968  0.0525  0.0343  0.0007
 4963W        W21224   3.609  16.676   5.979 -0.1649 -0.0672 -0.0395
 4964W        W21225   9.771  11.991  13.555  0.3532  0.0902 -0.3253
 4965W        W21226  12.460  15.275   0.577  0.1846 -0.1110 -0.2355
 4966W        W21227  11.406  15.386  11.890  0.0294  0.5615  0.1981
 4967W        W21228  18.029   0.658  12.991  0.0147  0.0902 -0.0710
 4968W        W21229  11.569   7.999   2.030 -0.1461 -0.2211  0.3339
 4969W        W21230  12.232   5.571   0.731  0.1051 -0.1622  0.0672
 4970W        W21231   0.454   5.835   1.826 -0.0706  0.0682 -0.0687
 4971W        W21232   1.898   1.002  12.740  0.0534 -0.1122  0.2606
 4972W        W21233   6.446  11.343   0.868 -0.0272 -0.1530 -0.0381
 4973W        W21234  17.247  16.789   2.685  0.4302 -0.0733  0.0953
 4974W        W21235   4.685   9.567  12.300  0.2914  0.0999  0.1709
 4975W        W21236  18.913   3.345   2.770 -0.1452 -0.4119 -0.2426
 4976W        W21237  18.061   5.203  10.966 -0.0677  0.0157  0.0113
 4977W        W21238   6.952  18.458   1.386  0.1728 -0.1787  0.0835
 4978W        W21239   9.643  11.303  12.647  0.0552  0.0066 -0.2751
 4979W        W21240   1.298   6.005   1.243  0.0773  0.0865 -0.0567
 4980W        W21241  15.898  11.470   0.005  0.0249 -0.0457  0.0096
 4981W        W21242  15.563   5.481  11.074 -0.1607 -0.0808  0.1700
 4982W        W21243  17.739   5.663  13.420  0.1653  0.2284 -0.2355
 4983W        W21244   6.421   8.404   0.706 -0.0332  0.0208  0.0484
 4984W        W21245  13.014  15.487   4.064 -0.3504  0.2633  0.2654
 4985W        W21246   0.653   4.326   3.047  0.0874  0.0067 -0.0714
 4986W        W21247  16.238  12.147   0.460  0.0699 -0.0447 -0.3298
 4987W        W21248  13.235  11.474   0.517  0.0645  0.1067 -0.0065
 4988W        W21249   9.978  15.694   2.292  0.0531 -0.1726  0.2529
 4989W        W21250  18.665  13.101   3.491  0.0428 -0.0945 -0.0123
 4990W        W21251  16.652  10.234   1.376 -0.2699  0.1222 -0.2143
 4991W        W21252   7.040  16.034  14.670 -0.0868 -0.1084 -0.0494
 4992W        W21253  14.375   9.682   0.871 -0.0448 -0.2154 -0.0307
 4993W        W21254  16.060  18.933  10.413  0.0062  0.1040  0.1377
 4994W        W21255  17.759   9.582  12.853  0.2739  0.1046 -0.2179
 4995W        W21256  12.469  18.262   3.204 -0.1465 -0.1133  0.2142
 4996W        W21257   5.991  10.895   2.485 -0.1062 -0.0938  0.1970
 4997W        W21258  18.822   8.837  11.766  0.0002 -0.1653  0.0404
 4998W        W21259  14.669   6.505   3.552 -0.0822  0.3310 -0.0278
 4999W        W21260   9.205   0.023  12.869  0.2059 -0.3617 -0.0627
 5000W        W21261  17.649  16.443   4.959 -0.0218 -0.1666 -0.1871
 5001W        W21262   6.573   0.506   2.168 -0.1860 -0.0543 -0.0952
 5002W        W21263  17.222  12.487   2.436 -0.1995 -0.1639  0.4242
 5003W        W21264  14.934   0.920   3.246  0.2103 -0.1042 -0.1691
 5004W        W21265  11.516  12.376   3.810  0.4499 -0.1204  0.0904
 5005W        W21266  17.745  19.433  12.272  0.2717 -0.3936  0.5315
 5006W        W21267   6.287   3.075   0.915  0.2174  0.2336 -0.0700
 5007W        W21268   7.140   0.770  12.159 -0.1156 -0.0717  0.1504
 5008W        W21269  16.651  13.963  13.740 -0.1617 -0.0444 -0.0645
 5009W        W21270  19.392   6.668   2.792 -0.2887  0.2309 -0.0945
 5010W        W21271  18.138   5.278   3.798  0.1165  0.0947  0.0319
 5011W        W21272   8.277  11.977   0.254 -0.2361 -0.3634 -0.0711
 5012W        W21273  14.605   5.333   0.521  0.3242  0.0616 -0.0428
 5013W        W21274  16.569   7.240   0.860  0.3536 -0.0438  0.2467
 5014W        W21275   6.747  15.688  10.859  0.3155  0.0349 -0.2087
 5015W        W21276  17.088   9.056   1.075 -0.0442  0.4912 -0.1671
 5016W        W21277   3.136   1.490  10.676  0.3679 -0.2359  0.1155
 5017W        W21278  14.408   9.948  13.744  0.2451  0.2229  0.0618
 5018W        W21279   6.736   2.301  14.522  0.0465 -0.0428  0.1012
 5019W        W21280  14.485   3.350  13.589 -0.1338  0.1930  0.0641
 5020W        W21281   0.623  16.159   4.571 -0.2408 -0.1096 -0.1075
 5021W        W21282   6.028  15.522  11.477 -0.3336 -0.0629 -0.1908
 5022W        W21283  13.626   4.791   1.902  0.0095  0.1112 -0.1350
 5023W        W21284   9.217   3.710  14.252 -0.0095  0.1626  0.1946
 5024W        W21285  19.260  11.175   3.746 -0.3672 -0.1202  0.5039
 5025W        W21286  13.584  14.248  14.282 -0.1129  0.0544 -0.0233
 5026W        W21287   6.436  17.977   1.600 -0.1453  0.0116  0.3712
 5027W        W21288  10.858   5.136   0.841 -0.0966 -0.1012  0.1550
 5028W        W21289   5.596  17.623   0.154  0.0218 -0.1675 -0.1726
 5029W        W21290  11.721   5.651   4.551 -0.0366  0.2260 -0.0279
 5030W        W21291  16.379  17.848   4.386  0.1251 -0.0476 -0.2062
 5031W        W21292   1.642  14.094   3.643  0.1771 -0.0234 -0.1986
 5032W        W21293   1.889   4.298  11.369  0.1183  0.0643 -0.1434
 5033W        W21294   6.759   9.107   4.854  0.1258  0.2495  0.1169
 5034W        W21295  13.135  18.240   1.356  0.2861  0.2079  0.0815
 5035W        W21296   1.822  17.706  13.927  0.3323 -0.1472 -0.2125
 5036W        W21297   4.873  15.709   0.542  0.1066  0.0108 -0.4871
 5037W        W21298  16.671   7.713   0.486  0.0591 -0.0637 -0.0732
 5038W        W21299  12.548  15.147   3.863  0.2051  0.0778  0.1691
 5039W        W21300  17.882  10.496   5.662 -0.1285 -0.1325 -0.0777
 5040W        W21301   0.667  17.018   3.093 -0.0793 -0.0359  0.1843
 5041W        W21302   5.117  14.525   0.274  0.0502 -0.0143 -0.0311
 5042W        W21303   5.324   6.363  12.703  0.2128 -0.0995 -0.1837
 5043W        W21304   9.234  18.486   4.475 -0.1531  0.1965  0.2160
 5044W        W21305   5.590   9.004   2.511 -0.0665  0.0494  0.3136
 5045W        W21306  18.751  10.088  13.644 -0.2306  0.2721 -0.0025
 5046W        W21307   5.308  12.401   3.220 -0.1577 -0.0978 -0.0663
 5047W        W21308  11.931   0.209  10.672 -0.1139  0.2352 -0.0654
 5048W        W21309  14.126   5.325   2.594  0.4348  0.0038 -0.0552
 5049W        W21310   4.828   4.892   5.297 -0.0909 -0.1311  0.4194
 5050W        W21311   8.318   2.221   3.240 -0.0704 -0.0563 -0.0125
 5051W        W21312  10.477   8.234   0.970 -0.3095  0.2292  0.1284
 5052W        W21313   7.969   8.270   1.993  0.2940 -0.0064 -0.1902
 5053W        W21314   4.337  15.728   3.212  0.2309 -0.0633  0.1028
 5054W        W21315  19.379  17.486   1.676  0.1399 -0.0251 -0.0308
 5055W        W21316  15.597  11.598  11.936 -0.1966  0.0452  0.1385
 5056W        W21317  15.410  10.530  14.530  0.0460 -0.2588  0.1357
 5057W        W21318  18.876  17.176   0.048 -0.4389 -0.0091 -0.0022
 5058W        W21319  15.695   8.808  11.611 -0.1048  0.2980 -0.3605
 5059W        W21320  15.753   6.523   3.406 -0.0068  0.0960 -0.1684
 5060W        W21321   7.184  17.985   2.543  0.0515  0.2166 -0.0994
 5061W        W21322   7.875   2.621   4.151  0.1783 -0.2245 -0.3498
 5062W        W21323   0.714  11.109  14.491  0.0290 -0.0080  0.2274
 5063W        W21324   8.245  19.022   5.003 -0.1133 -0.1375 -0.2070
 5064W        W21325  13.845   4.649   4.780  0.0909  0.0667 -0.0232
 5065W        W21326  13.193   1.226   0.925 -0.0003  0.0271 -0.1445
 5066W        W21327  12.771   6.548   4.812  0.1598 -0.0240 -0.2140
 5067W        W21328   6.319   9.011  11.602 -0.2169  0.4323  0.0169
 5068W        W21329  12.750  14.453  10.672 -0.0523 -0.2761 -0.0250
 5069W        W21330  18.099   8.874   2.627 -0.0349 -0.2152  0.1309
 5070W        W21331   2.768  16.904  12.501  0.0986 -0.2014 -0.1604
 5071W        W21332  15.739  10.747   4.056  0.1195  0.3282  0.2420
 5072W        W21333   5.481  11.241   1.682 -0.2147 -0.0919 -0.1058
 5073W        W21334  13.979   6.150   1.334  0.0230  0.2708 -0.0606
 5074W        W21335  14.509  14.913  13.006 -0.2152  0.0375 -0.0237
 5075W        W21336   6.956  14.233   1.051 -0.2032 -0.0569 -0.2524
 5076W        W21337  16.822  16.725  12.283  0.1145  0.2300  0.0632
 5077W        W21338  14.403   9.756  10.502 -0.1627  0.1142  0.0961
 5078W        W21339  11.409  17.447   4.277  0.1553  0.0111  0.0976
 5079W        W21340   7.161  14.439   4.762  0.0239 -0.2475 -0.0140
 5080W        W21341  18.464   8.585   0.363  0.0366 -0.2926  0.3059
 5081W        W21342  10.518   0.950  12.848 -0.2558 -0.3177  0.1086
 5082W        W21343  12.484   7.916  10.467  0.2462  0.1960  0.0358
 5083W        W21344   8.822  10.651  10.032 -0.0537 -0.2222 -0.3998
 5084W        W21345   9.919   8.800  11.844  0.0049  0.3827  0.2708
 5085W        W21346   6.674  16.897   3.198 -0.1059  0.2382  0.0525
 5086W        W21347  12.958  16.477  13.730 -0.2400  0.1452 -0.0923
 5087W        W21348  14.916   9.908  10.594  0.1389  0.2099 -0.0223
 5088W        W21349   4.446  15.454   3.665  0.2430 -0.0526 -0.0037
 5089W        W21350  14.948   6.911  10.829 -0.0681 -0.3217  0.1742
 5090W        W21351   3.661  11.921  14.613 -0.0687 -0.0767  0.0382
 5091W        W21352   7.887   1.740  13.483 -0.0752  0.3036 -0.2841
 5092W        W21353  10.111   5.374   3.363 -0.0648  0.0359 -0.0473
 5093W        W21354  13.654   6.645  13.452 -0.1877 -0.2497  0.0997
 5094W        W21355   3.500   5.729   0.283  0.4256  0.0771  0.1562
 5095W        W21356  18.626   3.176   3.673 -0.0281 -0.1341 -0.0574
 5096W        W21357   1.945   6.758   4.156  0.4116  0.2707 -0.0889
 5097W        W21358   7.831  11.275   3.799 -0.0113 -0.0428  0.0730
 5098W        W21359  16.264  15.847   3.694 -0.0625 -0.3124 -0.1187
 5099W        W21360  17.143   3.984   4.378 -0.0721  0.1273  0.0562
 5100W        W21361  16.413  13.016  13.426  0.2510  0.1036 -0.1196
 5101W        W21362  15.003   4.633  13.811 -0.0219  0.2066  0.5436
 5102W        W21363   3.623   1.235  14.629 -0.0487  0.0288  0.1713
 5103W        W21364  15.166   4.070   1.854  0.0994  0.1191 -0.2027
 5104W        W21365  11.713  16.076   5.471 -0.0873  0.2340 -0.0007
 5105W        W21366  16.462  17.515  14.047  0.3891  0.0487 -0.1602
 5106W        W21367  16.648   6.478  13.530 -0.2319 -0.1810 -0.0140
 5107W        W21368   0.876   7.218  12.435  0.1893 -0.3439 -0.1004
 5108W        W21369   8.916  15.889   0.663 -0.0282  0.2276  0.0248
 5109W        W21370   1.781  12.111   1.558 -0.1692 -0.1499  0.0094
 5110W        W21371  16.827   3.561   0.518  0.3315  0.1773  0.4202
 5111W        W21372   9.817   8.374   1.193  0.0103 -0.1640 -0.3647
 5112W        W21373   3.553   6.038   5.583 -0.0787  0.1189  0.0486
 5113W        W21374  18.298   1.561  14.146  0.2371  0.0797 -0.1118
 5114W        W21375   2.179   6.914   0.732 -0.0735 -0.2744  0.2702
 5115W        W21376   7.714   4.896   2.494 -0.0021 -0.0225  0.0250
 5116W        W21377   2.278   8.047   2.397  0.3352  0.1116 -0.1419
 5117W        W21378   3.197  16.350   3.772 -0.3337  0.0517  0.3753
 5118W        W21379   2.223  19.339   5.213  0.1827  0.1604 -0.2824
 5119W        W21380  12.758   9.327   3.376 -0.0542 -0.0505  0.1495
 5120W        W21381  18.275   1.755   3.976 -0.1944  0.0866  0.0278
 5121W        W21382   8.261  15.523   1.591 -0.2338 -0.0981 -0.0096
 5122W        W21383   4.389  15.819   0.385 -0.0486  0.1189 -0.2248
 5123W        W21384   6.156  13.153   0.823 -0.2280 -0.1994 -0.0077
 5124W        W21385   8.663   5.917   2.228 -0.3528  0.1820  0.2195
 5125W        W21386   2.512   9.482   4.886 -0.5484  0.2262 -0.0368
 5126W        W21387   6.084  16.136   4.773  0.1754  0.0549 -0.0216
 5127W        W21388  15.470   0.831   1.723 -0.1707  0.0692  0.1212
 5128W        W21389   5.035   2.532   0.439  0.5070  0.3780 -0.1092
 5129W        W21390  11.351  13.385   0.334 -0.0474 -0.2124 -0.2031
 5130W        W21391   3.577  17.924  12.561  0.0297 -0.2324 -0.0396
 5131W        W21392  14.158  15.624  14.607  0.2312  0.0593 -0.2222
 5132W        W21393   2.668   0.892  12.145 -0.2672 -0.1249 -0.0848
 5133W        W21394   2.937  10.021   3.086 -0.4410  0.5752  0.1366
 5134W        W21395   2.619   1.281  13.388 -0.3060 -0.2348 -0.2425
 5135W        W21396  18.937  12.237  10.228 -0.0625 -0.0628  0.0867
 5136W        W21397   6.968   8.034  11.148 -0.3973  0.0756 -0.2549
 5137W        W21398   9.793   8.273   3.413  0.1346  0.3568 -0.1208
 5138W        W21399  13.091  16.346   4.161  0.0268  0.4404  0.0623
 5139W        W21400   2.614  10.178  13.440  0.1107  0.1095  0.0255
 5140W        W21401   5.335   5.018   2.705  0.1060 -0.0447  0.0320
 5141W        W21402  14.150  18.289  11.128  0.0661  0.1433  0.3439
 5142W        W21403   9.359   8.667   4.232 -0.0236  0.0039  0.2308
 5143W        W21404   3.070  11.030  11.306  0.0945  0.0485  0.0335
 5144W        W21405   3.262   2.528  12.517 -0.0216  0.5808  0.2855
 5145W        W21406  12.469   4.657  14.680 -0.1288  0.3874  0.0068
 5146W        W21407  10.726   6.507  13.300 -0.0641 -0.1174  0.3788
 5147W        W21408  13.284  15.272   5.031  0.3853 -0.2211  0.0633
 5148W        W21409   0.276  14.369   9.455  0.2492 -0.4244 -0.0274
 5149W        W21410  13.761  13.713  12.816  0.3564  0.3382 -0.3946
 5150W        W21411  17.141   8.771   1.647  0.2562 -0.1797  0.1443
 5151W        W21412   5.904  16.917  11.179 -0.2244 -0.2752  0.0852
 5152W        W21413  16.550  15.612  10.678 -0.1234  0.2604  0.5415
 5153W        W21414   3.898   2.568   1.577 -0.3196  0.1131 -0.1032
 5154W        W21415   5.645  17.985  10.332 -0.1000 -0.2134  0.3561
 5155W        W21416  19.186   8.986   5.171 -0.2247  0.1064  0.0897
 5156W        W21417  10.358   1.689  14.011 -0.2367 -0.1180  0.2331
 5157W        W21418   4.523  12.951  10.756  0.0201  0.1861  0.0967
 5158W        W21419  18.708  15.469  11.809  0.2235 -0.0757 -0.0540
 5159W        W21420  10.465   7.280  10.932 -0.0436  0.1197  0.0192
 5160W        W21421   6.815   3.826   0.069 -0.1399 -0.0811 -0.1017
 5161W        W21422   0.082  17.283  10.860  0.3314  0.1521  0.2304
 5162W        W21423  17.016  17.866  12.575  0.0320  0.1948  0.0898
 5163W        W21424  19.042   5.291   0.358  0.0304  0.1329 -0.1762
 5164W        W21425   6.437   0.234  10.928 -0.2818  0.0158  0.1259
 5165W        W21426  11.733  10.572  10.687 -0.0166 -0.3146 -0.0047
 5166W        W21427   4.746  15.227   2.966 -0.2151  0.1444 -0.1474
 5167W        W21428   2.203   7.746  11.578 -0.2749  0.0766  0.3687
 5168W        W21429   8.105   2.320  11.119 -0.1952  0.0005 -0.0532
 5169W        W21430  16.742   3.252  12.203 -0.3697 -0.0590  0.2462
 5170W        W21431  12.158   7.753  13.912 -0.0290 -0.0408  0.2724
 5171W        W21432  12.904   6.953   3.419 -0.1069 -0.1138  0.0582
 5172W        W21433   1.221   2.602  14.704 -0.0799  0.0173 -0.0126
 5173W        W21434  16.285  14.109  14.012 -0.0020  0.4405  0.2799
 5174W        W21435   8.838  16.126   1.735 -0.2017 -0.3648  0.0913
 5175W        W21436   5.160  13.764  11.845 -0.3517 -0.1094 -0.1535
 5176W        W21437  17.605   2.991  10.727  0.0100 -0.3333 -0.0886
 5177W        W21438  13.906  13.669  10.980  0.1002  0.1049 -0.0907
 5178W        W21439   0.931  18.592   4.239 -0.1733  0.3644 -0.1784
 5179W        W21440   3.995  15.040  13.429 -0.1006  0.1576  0.1687
 5180W        W21441  11.859   3.242   2.777 -0.0913 -0.0062 -0.3322
 5181W        W21442   0.812  19.365   3.164 -0.1358 -0.2809  0.0115
 5182W        W21443   7.917   8.338   0.673 -0.2149  0.0260  0.2212
 5183W        W21444   4.071   9.557  10.276 -0.2856 -0.0953 -0.0841
 5184W        W21445   7.223  12.188  12.932  0.0179 -0.0532  0.0639
 5185W        W21446  14.027   2.094   3.592 -0.0470  0.3185 -0.0650
 5186W        W21447   1.393   4.530  11.384  0.1632 -0.0619  0.3771
 5187W        W21448  16.372  16.644   0.708 -0.0834  0.3383 -0.3219
 5188W        W21449  16.547   2.096   1.544 -0.3939  0.0543  0.2439
 5189W        W21450  12.759   9.515  12.507 -0.1337 -0.0395  0.2063
 5190W        W21451   3.428  15.213  11.145 -0.2051 -0.0174  0.4264
 5191W        W21452   5.695  13.272   5.631  0.0943 -0.1161  0.0956
 5192W        W21453  13.775   7.311  12.898 -0.0575  0.0550  0.0089
 5193W        W21454   4.994  12.879  10.803 -0.3865  0.1454 -0.1468
 5194W        W21455   5.198  13.232   5.757 -0.2041 -0.1858 -0.0218
 5195W        W21456  13.902  11.753  14.179  0.0530  0.0284  0.1885
 5196W        W21457   8.354   3.454  12.962  0.0453 -0.0383  0.0877
 5197W        W21458  14.529   0.962   0.324  0.5123  0.0124  0.1837
 5198W        W21459  18.440  14.917  13.124 -0.0392 -0.0273 -0.2422
 5199W        W21460  13.391  12.668  10.111 -0.5301  0.1732 -0.1381
 5200W        W21461  15.702   7.861  11.381  0.1961  0.1475 -0.2344
 5201W        W21462  10.018  14.840  14.166  0.1202 -0.2250  0.3466
 5202W        W21463  15.346  11.952   4.776 -0.0077 -0.0730  0.4404
 5203W        W21464  19.058  17.670  10.590 -0.0780 -0.0012 -0.1192
 5204W        W21465  17.636  12.288   4.678  0.1624 -0.1721 -0.1565
 5205W        W21466   0.496  18.672   1.215 -0.0047 -0.0271 -0.0376
 5206W        W21467   6.952   0.121   2.172 -0.0834 -0.1043 -0.0510
 5207W        W21468   9.254   9.956   8.753 -0.1258  0.2406  0.0143
 5208W        W21469   9.518  17.999  13.936 -0.0977  0.2892  0.0712
 5209W        W21470   0.598   3.806   5.525 -0.2200 -0.2856  0.0172
 5210W        W21471   5.812  16.416   0.758 -0.3756  0.4219 -0.0396
 5211W        W21472  19.342  16.212   0.335  0.4356 -0.0552  0.0125
 5212W        W21473   6.958   9.261  13.718 -0.0856  0.1410 -0.2277
 5213W        W21474  13.336   2.472   3.696  0.1947  0.5387  0.0941
 5214W        W21475  11.572   9.956  11.917 -0.1312  0.0475  0.1462
 5215W        W21476   4.485  16.185   1.775  0.2331 -0.0767 -0.1632
 5216W        W21477  19.332   4.747   1.828 -0.0855 -0.0141 -0.0160
 5217W        W21478  15.500  18.078  10.710  0.0959 -0.0278 -0.0988
 5218W        W21479   2.584   2.366   0.725 -0.1210 -0.3346 -0.0048
 5219W        W21480   7.558  15.686  11.226  0.0497 -0.1309 -0.1781
 5220W        W21481   4.427  11.552   3.545  0.0692 -0.1324  0.0059
 5221W        W21482   7.941   1.902  14.002  0.0751  0.2026 -0.1650
 5222W        W21483  10.201   0.424  10.058 -0.0746 -0.1182  0.2368
 5223W        W21484  11.310  18.928  10.967  0.1812 -0.0550  0.3387
 5224W        W21485  19.265  18.105  14.607 -0.0046  0.2134  0.3551
 5225W        W21486   0.630  15.961  14.726  0.0392 -0.3430  0.0328
 5226W        W21487  13.686  11.524  13.074  0.2168  0.1176 -0.1170
 5227W        W21488  16.278   0.593   4.681 -0.1732  0.0674  0.1192
 5228W        W21489   6.042  13.488  10.557  0.1038  0.2226  0.2421
 5229W        W21490  14.740  15.161   0.321 -0.0106  0.0132  0.0632
 5230W        W21491  18.031   9.173  11.293  0.4683  0.5121  0.0697
 5231W        W21492   9.630  11.661   0.469  0.2618 -0.2601  0.0918
 5232W        W21493  10.010  19.425  14.414 -0.3088  0.1145 -0.2035
 5233W        W21494   6.853   5.724   1.965  0.3123  0.0108 -0.4064
 5234W        W21495  10.687   3.928   0.841 -0.0728 -0.0373 -0.6053
 5235W        W21496   6.456   4.201  12.766 -0.0898  0.2442  0.1944
 5236W        W21497   0.019   7.997   3.272 -0.2371  0.1651  0.3448
 5237W        W21498  11.475   1.531   4.670 -0.0220  0.2957  0.2409
 5238W        W21499   5.651   5.106   3.988 -0.1013  0.0831  0.5370
 5239W        W21500  12.118  16.766  12.434 -0.2485  0.0307 -0.2818
 5240W        W21501   3.300  11.237  13.428  0.1848 -0.1441 -0.0128
 5241W        W21502  18.415  14.265  13.000  0.0753 -0.2065  0.2373
 5242W        W21503   9.405  17.095  11.860  0.0322  0.0413 -0.1549
 5243W        W21504  15.392  11.416  12.414  0.2238 -0.1911  0.1319
 5244W        W21505   8.188   2.096  14.833  0.1886 -0.1655 -0.0926
 5245W        W21506  12.808   8.324  13.135  0.4252  0.0663  0.0643
 5246W        W21507  14.108   9.826  11.412  0.2269 -0.0048 -0.1136
 5247W        W21508  18.973   9.651  13.800 -0.0683  0.4427  0.1374
 5248W        W21509   0.036   3.100  13.948  0.4473 -0.2594  0.3183
 5249W        W21510   9.596  19.397  10.054 -0.1209  0.3875  0.3146
 5250W        W21511  17.515   2.776   0.740 -0.0485 -0.1016 -0.1213
 5251W        W21512   7.072   1.055  11.020 -0.2155  0.1166 -0.1815
 5252W        W21513  10.066   7.167   1.704 -0.1143  0.0257  0.1222
 5253W        W21514  12.230   6.156  10.552  0.1491 -0.0965 -0.0242
 5254W        W21515  18.473  13.922   4.009  0.1575 -0.1702  0.0842
 5255W        W21516   6.661  12.421   0.296 -0.3509  0.0329  0.1025
 5256W        W21517   3.844  13.212  11.626 -0.1300 -0.3189 -0.0716
 5257W        W21518  15.479  12.650  12.151 -0.3322  0.1141 -0.1906
 5258W        W21519   7.684   5.522   0.041 -0.1868  0.2481  0.0838
 5259W        W21520  17.955  17.577   9.622  0.0974 -0.2974  0.0491
 5260W        W21521   5.318  12.394   0.775  0.2028  0.1791  0.1904
 5261W        W21522   7.188   0.860  14.844 -0.0754 -0.0254 -0.1397
 5262W        W21523   6.226  17.366   4.918  0.2192 -0.1474  0.0498
 5263W        W21524  11.306   0.138   4.952 -0.2945 -0.2511 -0.1321
 5264W        W21525   9.670  19.087   1.285  0.0741 -0.0664  0.2247
 5265W        W21526   3.887  15.054   4.322 -0.1314 -0.2941  0.1373
 5266W        W21527  15.408  17.763  10.360 -0.1305  0.1456 -0.2951
 5267W        W21528  13.803  11.888   0.032 -0.0963 -0.1289  0.3316
 5268W        W21529  17.168  18.701  13.984 -0.0161  0.2090 -0.1993
 5269W        W21530   2.476   2.881   5.412 -0.0449  0.0763 -0.3722
 5270W        W21531  16.281   4.158  11.194 -0.0524  0.0013 -0.0844
 5271W        W21532   1.895  10.076   5.550  0.0161 -0.0397 -0.2328
 5272W        W21533   4.437   7.198   2.831  0.2248 -0.0092 -0.2619
 5273W        W21534  13.119   3.908   4.038 -0.0016  0.1659  0.1730
 5274W        W21535   2.906   4.779   1.370  0.0582 -0.0324 -0.0841
 5275W        W21536  19.278   0.694  13.853 -0.1994  0.1856  0.0679
 5276W        W21537  10.629  18.418   4.017 -0.1250  0.1925  0.0738
 5277W        W21538   9.085   0.527   2.054  0.0123 -0.0280  0.1498
 5278W        W21539   5.171   0.453  13.106 -0.1906  0.0579 -0.0565
 5279W        W21540   5.734  15.065   2.248 -0.0598 -0.1855 -0.1965
 5280W        W21541  15.838   2.960   2.836 -0.0052  0.1529  0.3126
 5281W        W21542   4.794   5.489   0.629 -0.1854  0.1450 -0.0873
 5282W        W21543   8.797  12.119  11.942  0.3681  0.2421  0.1962
 5283W        W21544   9.898  14.631  12.287 -0.1636 -0.0590  0.1377
 5284W        W21545   0.245   6.624   2.354  0.0573  0.3741 -0.0327
 5285W        W21546   7.547   0.359   1.303  0.0150 -0.0515  0.6251
 5286W        W21547  15.355   6.038  10.611  0.2282  0.0615  0.0181
 5287W        W21548   3.938  18.094   2.332  0.0832 -0.0413 -0.1667
 5288W        W21549   5.879  17.585   2.680  0.3787  0.3461  0.0816
 5289W        W21550   0.500   2.484  14.242 -0.0861  0.1743  0.0905
 5290W        W21551  17.606  11.393  13.374  0.0402 -0.2470 -0.1754
 5291W        W21552   2.302  17.653  12.577 -0.0612 -0.1607  0.4159
 5292W        W21553  14.077  14.118  14.155 -0.0861  0.1974  0.1116
 5293W        W21554  18.783   6.939   0.404  0.1918 -0.1119 -0.2404
 5294W        W21555  16.804   8.623   1.344 -0.1212 -0.0607 -0.0946
 5295W        W21556  18.784  11.117  12.802  0.0416 -0.2966 -0.1513
 5296W        W21557  19.404   3.726   2.779  0.0643 -0.1188 -0.1453
 5297W        W21558  12.063  18.895   9.994  0.1778 -0.4101 -0.0399
 5298W        W21559  13.015   8.292  11.623  0.2796  0.0710  0.2953
 5299W        W21560  15.243   6.651  12.395 -0.0973  0.4095 -0.2750
 5300W        W21561  17.326   3.442  14.544 -0.3978 -0.0662 -0.1847
 5301W        W21562   1.982   1.875  14.799  0.1023 -0.2400 -0.0718
 5302W        W21563   0.392  17.642   3.097 -0.1388 -0.0845  0.3274
 5303W        W21564   2.794   0.163   5.036  0.1949  0.4200 -0.1640
 5304W        W21565  16.677  11.353  14.829  0.1078  0.0162  0.1863
 5305W        W21566  12.979   7.724   5.547 -0.0882 -0.0556  0.0227
 5306W        W21567   6.994  13.254   0.534 -0.2005  0.2670  0.0586
 5307W        W21568   2.157   1.613   5.266 -0.2039  0.1517  0.0861
 5308W        W21569   4.325   1.951  12.850  0.0958  0.1260  0.0050
 5309W        W21570   4.625  16.862  11.269  0.2380 -0.0938  0.2696
 5310W        W21571   4.731   3.537   1.586  0.2080 -0.4251 -0.1870
 5311W        W21572  15.217   2.417  14.147 -0.2557  0.1966  0.2652
 5312W        W21573   9.770   2.422   3.767  0.4421 -0.0713  0.4317
 5313W        W21574   2.646  14.248  11.511  0.4048  0.3540  0.2533
 5314W        W21575   5.822  10.087   4.482 -0.0306  0.1710  0.2837
 5315W        W21576   4.557  11.310  14.483  0.3792  0.1577  0.0025
 5316W        W21577   6.213   3.209  13.502  0.2049  0.2288 -0.0216
 5317W        W21578   3.293   6.700   4.822 -0.0749 -0.0792  0.0584
 5318W        W21579  19.077   1.519   3.124  0.0029 -0.1903 -0.1197
 5319W        W21580  18.435  12.702  14.659  0.0084  0.0092  0.0854
 5320W        W21581  12.808   6.358  13.204 -0.1057  0.0342  0.0904
 5321W        W21582  19.151  16.859  14.112 -0.0801 -0.1415  0.3120
 5322W        W21583   4.661  16.565  12.483  0.1470  0.1255 -0.0672
 5323W        W21584   7.203  11.966  11.160  0.1162 -0.1612 -0.0332
 5324W        W21585  13.249  12.223  11.800 -0.2081  0.1561 -0.2507
 5325W        W21586  14.075   0.404  11.415 -0.1211 -0.0328 -0.1392
 5326W        W21587  13.753   7.304   3.316 -0.0437  0.1158  0.1915
 5327W        W21588   8.400  19.015   2.962  0.1352  0.0137  0.1241
 5328W        W21589  15.489   3.889   4.358  0.1849 -0.1181 -0.2169
 5329W        W21590   2.601   8.251   1.514  0.3838 -0.4376  0.0069
 5330W        W21591   9.743   9.551   1.505  0.3332 -0.1408  0.1971
 5331W        W21592  11.717   1.700  11.933 -0.0839 -0.0681  0.0131
 5332W        W21593   1.677  11.706   3.809 -0.0236  0.0926 -0.1066
 5333W        W21594   8.692   8.513  13.681 -0.1821  0.1530  0.0148
 5334W        W21595   8.834   3.690   4.701 -0.1964  0.1643  0.0690
 5335W        W21596  18.052  11.631  14.792 -0.2070 -0.0233  0.2478
 5336W        W21597  11.056  13.075  11.598 -0.2642 -0.2100 -0.1633
 5337W        W21598  13.974   3.649   1.855 -0.5933 -0.2713  0.2419
 5338W        W21599  16.472  10.984   0.411 -0.1093  0.2019  0.0848
 5339W        W21600   1.495  17.752   2.010  0.1872  0.1573 -0.1616
 5340W        W21601  15.384  14.082  10.573 -0.0933  0.1829 -0.4309
 5341W        W21602   8.856  18.832   3.615 -0.2706  0.2987  0.2822
 5342W        W21603  16.817  15.491   4.304 -0.1375  0.0291 -0.1620
 5343W        W21604  12.846   8.653  14.564  0.1144 -0.0118  0.1592
 5344W        W21605  12.725   6.310  10.643  0.1092 -0.0603 -0.1428
 5345W        W21606   8.916  10.181   3.094  0.0380 -0.1361  0.2892
 5346W        W21607   8.018  10.421   3.654 -0.1487 -0.0479  0.0998
 5347W        W21608  15.168   7.133  13.404 -0.3522 -0.3075  0.0857
 5348W        W21609  15.037  16.425   1.449 -0.3612  0.0557 -0.1658
 5349W        W21610  14.511   1.046   4.388  0.2149  0.0604 -0.3183
 5350W        W21611   6.310  16.652  11.011 -0.0332  0.2797 -0.1301
 5351W        W21612  16.574  11.914   2.184 -0.3293 -0.0158  0.0031
 5352W        W21613   8.622  10.140   0.284 -0.4110 -0.1250 -0.0296
 5353W        W21614   6.731   3.329  10.663  0.3084  0.1373  0.0352
 5354W        W21615   3.866  12.150   4.467  0.0072  0.1778  0.0336
 5355W        W21616  16.659  10.779   3.068  0.0912  0.0545 -0.1611
 5356W        W21617   9.495   4.175   3.958  0.1169 -0.3085  0.1819
 5357W        W21618  10.751   2.853  12.092  0.1384  0.0767 -0.1710
 5358W        W21619  11.534   6.772  12.489  0.1346  0.1997 -0.2496
 5359W        W21620  19.256  18.881  14.723  0.1664  0.0082  0.2283
 5360W        W21621  11.708   7.163   2.575 -0.3592  0.1355 -0.2461
 5361W        W21622   8.314   8.531  13.067 -0.0921 -0.3631  0.1272
 5362W        W21623   3.777  12.187  13.780 -0.0867 -0.1060 -0.1411
 5363W        W21624   4.371  11.949   1.006  0.0232  0.0429  0.0539
 5364W        W21625   8.313   7.775   4.453  0.1694  0.1379 -0.2981
 5365W        W21626   9.811  11.956  14.060  0.2679 -0.1440 -0.4435
 5366W        W21627   5.650  16.441   0.268  0.0503 -0.2318 -0.0439
 5367W        W21628   7.625  17.992   2.046  0.2483 -0.1696  0.2422
 5368W        W21629   2.326   3.096   0.062 -0.1406 -0.0565  0.2301
 5369W        W21630  10.734   5.314   0.304  0.0603 -0.1064  0.3602
 5370W        W21631   1.729   1.277  13.717  0.0594  0.3802  0.0481
 5371W        W21632   7.177  13.879  10.144  0.0036 -0.1869 -0.2551
 5372W        W21633   8.015  14.065   1.746  0.0787  0.2447  0.2172
 5373W        W21634   2.120  11.078  13.572 -0.2372  0.1431  0.1363
 5374W        W21635  18.000  14.211   2.360 -0.3371 -0.1186  0.3705
 5375W        W21636   2.523   4.277   1.483 -0.2026 -0.1748  0.2714
 5376W        W21637   2.751  14.144   1.892  0.0379 -0.3562  0.0246
 5377W        W21638   6.275   2.693   3.552 -0.0067  0.1485  0.1193
 5378W        W21639  12.305  10.783   1.994  0.1211 -0.0861  0.1409
 5379W        W21640  17.117   0.989   4.487  0.2557 -0.0124  0.0393
 5380W        W21641   4.788   8.112   0.001  0.0891 -0.0133  0.1655
 5381W        W21642   6.262   3.608   0.909  0.3145 -0.2098  0.0425
 5382W        W21643  17.827  14.415  12.763  0.2441  0.1004 -0.2231
 5383W        W21644   8.445  10.790   4.373  0.0321 -0.0057  0.1103
 5384W        W21645  17.116  11.652   3.286 -0.2562  0.0256 -0.1651
 5385W        W21646   2.691   3.800  13.142  0.4807  0.1430  0.2635
 5386W        W21647  19.437   8.419   2.983  0.1791 -0.1082  0.1675
 5387W        W21648  18.360   1.870   3.469  0.0204 -0.0324  0.0315
 5388W        W21649  10.502   2.954   4.105 -0.0412  0.0759  0.0028
 5389W        W21650   4.759  17.638  13.948 -0.1536  0.0950 -0.0728
 5390W        W21651  11.453  17.774   1.580  0.0397  0.1117 -0.1412
 5391W        W21652   3.920  10.168  11.050  0.1052 -0.1832  0.0929
 5392W        W21653   4.195  12.498   3.430  0.2653  0.0012 -0.1772
 5393W        W21654  16.779   0.289  11.315 -0.0381  0.0637 -0.0468
 5394W        W21655   5.155  12.974  13.745 -0.3367 -0.1676  0.0336
 5395W        W21656  14.737   1.531   0.791 -0.1060 -0.2739 -0.0404
 5396W        W21657   9.971   4.472   4.056 -0.0302  0.0410  0.2490
 5397W        W21658  11.402  11.551   0.435 -0.3124 -0.1026  0.3186
 5398W        W21659  18.738  10.673   4.692 -0.2779  0.0395  0.1320
 5399W        W21660  11.905   7.555  11.121 -0.1789  0.0081  0.0185
 5400W        W21661  15.117  16.770  14.806  0.1981 -0.0929 -0.1344
 5401W        W21662   0.248  15.830   4.560 -0.0861  0.1487 -0.4615
 5402W        W21663   9.452   1.870  12.034  0.1076  0.0176  0.2857
 5403W        W21664   8.080  18.545   1.317 -0.0354  0.2091 -0.0294
 5404W        W21665   1.350   6.743  13.394 -0.3651  0.0529  0.1842
 5405W        W21666  18.311  17.990  11.072  0.0572 -0.0223  0.2867
 5406W        W21667   0.236  12.450  10.730 -0.2147 -0.1058  0.3023
 5407W        W21668   8.124   7.215  11.108 -0.1205  0.2320 -0.0509
 5408W        W21669  15.110   4.904   0.502 -0.1786 -0.2174  0.3408
 5409W        W21670  11.435   3.789   4.763  0.5402  0.2999 -0.0630
 5410W        W21671  14.365   4.445  11.971 -0.1830  0.0557 -0.2583
 5411W        W21672   1.045  10.836   1.144 -0.1558 -0.1166  0.0796
 5412W        W21673   7.814   2.818   1.087  0.1025 -0.1087 -0.0210
 5413W        W21674   5.617   3.843  12.455  0.3434 -0.0838 -0.0580
 5414W        W21675  10.954  10.794   1.943 -0.1501  0.2231 -0.1069
 5415W        W21676  15.923   7.060  11.241  0.1056  0.4412  0.0147
 5416W        W21677   0.246   7.063  12.795  0.2649  0.0153 -0.2073
 5417W        W21678  12.475   5.198   0.989  0.0351 -0.0166 -0.3744
 5418W        W21679  14.617  18.524  10.642  0.2131 -0.0193 -0.0592
 5419W        W21680  12.135   4.524   3.826  0.1380 -0.0050  0.0700
 5420W        W21681   6.749  19.230  13.988  0.2652  0.1284 -0.0230
 5421W        W21682  12.672  16.185   1.970  0.0355 -0.2154  0.1587
 5422W        W21683   3.337   8.012  10.838  0.2142  0.1124  0.0678
 5423W        W21684   2.593  18.619   3.752  0.1618  0.2017  0.1047
 5424W        W21685   9.972   0.774  11.560  0.0762  0.0558  0.1835
 5425W        W21686   7.363  15.538   0.176 -0.1040 -0.5758  0.3040
 5426W        W21687  14.546   8.720  13.598  0.1519 -0.4500  0.2744
 5427W        W21688  12.865   9.073   2.806 -0.3255  0.2959 -0.1047
 5428W        W21689   9.953   5.650   2.927 -0.2140  0.2777  0.0112
 5429W        W21690   5.440   3.399   3.579 -0.0995 -0.1303 -0.2083
 5430W        W21691   9.222   0.553  12.908 -0.1093  0.1476  0.0568
 5431W        W21692   9.115   1.667   2.469  0.4385  0.0704 -0.2447
 5432W        W21693  17.299  14.966  10.624  0.1334 -0.0973  0.1675
 5433W        W21694  18.990   2.827  13.982  0.1319  0.4633  0.3409
 5434W        W21695  17.005  18.648   2.733 -0.1864 -0.2808  0.1826
 5435W        W21696   6.263  13.749  13.282  0.0836  0.3550  0.1625
 5436W        W21697  18.572  18.135   2.781  0.0064 -0.2837 -0.2093
 5437W        W21698  13.040   6.879   3.923 -0.0687 -0.1470  0.0075
 5438W        W21699  10.711   4.078  12.222  0.3595  0.2489  0.1990
 5439W        W21700   0.903   1.928   1.563 -0.0423 -0.1442  0.0903
 5440W        W21701  19.061   4.661  11.000 -0.0772  0.1795  0.0421
 5441W        W21702  13.258   0.529   1.478  0.1673 -0.3709  0.0941
 5442W        W21703  12.236   4.164   2.086 -0.1020  0.2632 -0.0245
 5443W        W21704   6.836   1.145  14.684  0.2171  0.0628 -0.1010
 5444W        W21705  12.242   0.295   3.911  0.0451  0.1474  0.2734
 5445W        W21706  11.919  14.909   4.563 -0.0372  0.1417 -0.1236
 5446W        W21707   7.510   6.246  12.597  0.0370 -0.1810 -0.0310
 5447W        W21708   2.695   4.654  13.380 -0.2000 -0.0734  0.3885
 5448W        W21709   1.001  17.564  13.599 -0.0873  0.0007 -0.0711
 5449W        W21710  13.177  16.888   1.127  0.0754 -0.2600  0.0001
 5450W        W21711   8.837   5.634   5.059  0.1033  0.0993  0.0848
 5451W        W21712  14.978  13.741   0.102 -0.3045 -0.0869 -0.3305
 5452W        W21713   3.151   9.059   3.106  0.6155 -0.0473 -0.0123
 5453W        W21714  10.906  16.213  10.483  0.0863 -0.0197  0.0727
 5454W        W21715  12.084   0.740   2.992  0.4291 -0.2510 -0.3028
 5455W        W21716  15.286   5.064  13.645 -0.1089 -0.2743  0.2271
 5456W        W21717   2.401  17.213  10.438  0.1770  0.2042  0.3445
 5457W        W21718   9.898  14.476   4.161  0.1901 -0.0244  0.1056
 5458W        W21719  10.005   2.665   3.291  0.2154  0.1318 -0.0548
 5459W        W21720   0.867   4.769   1.153 -0.1379 -0.2196 -0.1398
 5460W        W21721   2.263  17.023   2.110 -0.3425  0.2502  0.1153
 5461W        W21722  14.520   3.743   1.251 -0.0189  0.0860  0.1830
 5462W        W21723   1.146   5.645  13.249 -0.1174  0.0647  0.1882
 5463W        W21724  13.889  19.247   2.885  0.1124  0.0008  0.1816
 5464W        W21725   9.950   7.524  14.577 -0.0464 -0.0625 -0.0411
 5465W        W21726   7.579   1.835   4.346  0.1307 -0.3940 -0.1788
 5466W        W21727  18.877  16.106   1.839  0.0539  0.1635  0.1239
 5467W        W21728   4.523  19.111   4.822 -0.0502  0.0092  0.0188
 5468W        W21729  17.193   3.065   4.425  0.1783  0.3878  0.1262
 5469W        W21730  15.613   1.196   4.816  0.0867 -0.2344 -0.2569
 5470W        W21731  17.937  14.243   9.967  0.4285 -0.0287  0.2263
 5471W        W21732  18.878  13.972   2.935  0.2662  0.0720 -0.1297
 5472W        W21733   0.485   0.511  11.136 -0.1216 -0.3421 -0.0243
 5473W        W21734   7.279   3.090   1.753  0.3266 -0.1855  0.0135
 5474W        W21735  12.934   4.010   0.460 -0.0345  0.1249  0.1057
 5475W        W21736   2.757  11.642  10.300  0.0239  0.1838 -0.0706
 5476W        W21737   7.618   7.505   0.919  0.0606 -0.1843  0.1104
 5477W        W21738  11.455  12.616   9.126  0.2285  0.3314  0.1527
 5478W        W21739  14.446   5.976   1.111 -0.1222  0.1040  0.1202
 5479W        W21740  18.352  17.324   1.181  0.3369 -0.3278  0.2239
 5480W        W21741  12.182   7.415  10.683  0.1350 -0.1588 -0.0171
 5481W        W21742  10.972  13.859  14.238 -0.1193  0.2520 -0.4784
 5482W        W21743  17.713  18.919   3.484  0.1130  0.0277  0.1273
 5483W        W21744  10.029  13.139   1.053 -0.3135 -0.1823  0.0762
 5484W        W21745   2.524   2.893   2.265  0.0305 -0.1631 -0.2506
 5485W        W21746  10.729   0.840  14.805  0.2053  0.0255 -0.1627
 5486W        W21747   4.426  12.701   1.440 -0.2889 -0.2650  0.2305
 5487W        W21748   7.532   1.828   3.483 -0.0105 -0.1996 -0.1745
 5488W        W21749   0.355   7.056   4.140 -0.1928  0.2292 -0.1637
 5489W        W21750   6.300  18.042   5.696 -0.0072  0.1174  0.0122
 5490W        W21751   1.695  18.006   5.290 -0.2129  0.0673  0.4143
 5491W        W21752   0.742  17.354  11.360  0.0159 -0.2152  0.0538
 5492W        W21753   1.647   4.658  14.880 -0.2220 -0.0667 -0.0104
 5493W        W21754  19.154   2.274  13.843 -0.2145 -0.1936 -0.3665
 5494W        W21755   1.604  10.809   1.830 -0.0150  0.2415 -0.0580
 5495W        W21756   0.825   3.956   1.737 -0.3117  0.0688 -0.0154
 5496W        W21757   4.423  13.988   2.097 -0.0142 -0.0837 -0.1286
 5497W        W21758   7.802  14.663   4.201 -0.0097 -0.1044 -0.1306
 5498W        W21759   0.338  19.397   2.897  0.1595  0.6100 -0.1128
 5499W        W21760   9.566  14.782  14.434  0.2831 -0.2202 -0.2029
 5500W        W21761   9.091  11.362  11.328  0.1026  0.4052  0.1854
 5501W        W21762  15.610   6.565   0.002  0.0216  0.1712  0.1223
 5502W        W21763  19.161  12.671  12.081 -0.2556 -0.3342  0.0106
 5503W        W21764   2.711  14.460   4.393 -0.1488  0.0661  0.0786
 5504W        W21765   0.176  17.577  11.778  0.0519  0.1099  0.0219
 5505W        W21766  14.431  10.319   1.736  0.1105  0.1300 -0.1283
 5506W        W21767   0.374   4.891  12.068 -0.0097  0.3297  0.0436
 5507W        W21768  11.691  13.115  13.492  0.0535 -0.3728  0.2917
 5508W        W21769   9.002   9.238   0.801 -0.0755  0.3944  0.0490
 5509W        W21770  14.547   1.853   0.500  0.1569 -0.2230  0.0057
 5510W        W21771  13.626   7.409  14.684  0.0821  0.2382 -0.0864
 5511W        W21772   4.290  16.480  14.513 -0.0530 -0.1554  0.0111
 5512W        W21773   7.591   8.473  12.161 -0.0109 -0.1863  0.3362
 5513W        W21774   6.005   4.474   4.989 -0.0664  0.4211 -0.2563
 5514W        W21775   3.650  17.427  12.603  0.1000  0.0395  0.0913
 5515W        W21776   4.825  19.372   9.550 -0.1044  0.1979  0.1312
 5516W        W21777   8.572   1.852   1.987  0.0217  0.1503  0.1048
 5517W        W21778  13.301   7.825   1.813  0.1012  0.0357  0.4247
 5518W        W21779  10.023  11.847   9.989  0.1868 -0.0624  0.0788
 5519W        W21780   3.834   5.924   4.377 -0.0806  0.2350  0.0286
 5520W        W21781  12.572   7.281   4.157 -0.2937 -0.4182  0.1433
 5521W        W21782  16.424  17.227  12.963 -0.4309 -0.2127  0.3207
 5522W        W21783  11.569  13.122  14.058  0.1160 -0.0424 -0.0713
 5523W        W21784  10.081  14.986   0.185 -0.1182  0.0809 -0.2083
 5524W        W21785   1.658  17.571  12.824 -0.0066 -0.0383  0.1631
 5525W        W21786   2.592   3.693   2.253  0.0311  0.1722 -0.1683
 5526W        W21787  11.667  10.060  12.392  0.2744  0.1422 -0.0497
 5527W        W21788   0.600  15.478  10.491 -0.0145 -0.0617  0.0750
 5528W        W21789   2.496   5.096   2.409  0.1990 -0.4749 -0.1968
 5529W        W21790   0.201  16.189  11.012 -0.0700  0.3669  0.1222
 5530W        W21791  14.585   1.236   3.669  0.2886 -0.1155  0.0557
 5531W        W21792   7.472   6.913   4.694 -0.1231 -0.2051 -0.2614
 5532W        W21793   1.472   1.501   2.954 -0.1561  0.2415 -0.2926
 5533W        W21794   5.403   2.363   1.870 -0.0937 -0.1668 -0.2948
 5534W        W21795  14.228  16.974   2.176 -0.5463  0.0965  0.0704
 5535W        W21796   7.860  12.311  13.797 -0.0286 -0.1857  0.0850
 5536W        W21797  11.630  12.793   2.043 -0.2285  0.0057  0.5858
 5537W        W21798   0.787   1.416   4.210 -0.2316  0.0224 -0.3539
 5538W        W21799  17.283   3.104   3.278  0.1259 -0.4167  0.1604
 5539W        W21800  12.327  13.940   1.963 -0.1081 -0.2579  0.3593
 5540W        W21801  17.909  17.966  11.660 -0.1434  0.2160  0.1143
 5541W        W21802  15.461   1.786   2.300 -0.1448 -0.1260 -0.2113
 5542W        W21803   9.385   6.091  11.397 -0.0486  0.0045 -0.0387
 5543W        W21804  19.377   6.049  12.628 -0.1854  0.3762  0.0141
 5544W        W21805   6.809   9.227   2.094  0.1476  0.1044 -0.1586
 5545W        W21806  14.270  10.588  13.968  0.1108 -0.1334 -0.2657
 5546W        W21807  14.564   7.983  11.249  0.5191 -0.0812 -0.1224
 5547W        W21808   4.388  14.195   5.772  0.0367 -0.1796  0.1750
 5548W        W21809   4.382   2.092  11.502 -0.0421 -0.1307  0.0590
 5549W        W21810  12.638  18.749  13.740  0.1562 -0.2650  0.0535
 5550W        W21811  16.552   8.151  13.464 -0.0159  0.0882 -0.0477
 5551W        W21812  10.722  13.422  11.730 -0.1188  0.1943 -0.0243
 5552W        W21813   2.032   6.992  12.676 -0.4371 -0.0145 -0.3637
 5553W        W21814   1.824  13.424   2.795 -0.1350  0.0411 -0.0122
 5554W        W21815  12.613   2.839  14.420 -0.0308  0.0130 -0.1968
 5555W        W21816  12.916  11.225   4.126 -0.2490 -0.0815 -0.0837
 5556W        W21817  18.250  14.662   2.584 -0.1537  0.3403  0.2606
 5557W        W21818  19.176   3.464   6.210  0.1121  0.0051  0.0665
 5558W        W21819   6.966   1.206   1.108  0.1090  0.0418  0.2019
 5559W        W21820  18.771  18.201   3.288 -0.1374 -0.2364 -0.2209
 5560W        W21821  18.025   9.286  14.266 -0.2014  0.0636 -0.0463
 5561W        W21822   6.621  16.989   1.219 -0.1648 -0.0724  0.4462
 5562W        W21823   6.447  13.053   2.965  0.1417 -0.0133  0.3438
 5563W        W21824  13.314   6.518   3.642 -0.4708 -0.1834 -0.1733
 5564W        W21825  18.341  19.229   0.258  0.0062 -0.2433 -0.0850
 5565W        W21826  11.211  14.400  11.806 -0.5862  0.0537 -0.1101
 5566W        W21827   2.964  13.568  14.480 -0.0169 -0.0475 -0.1009
 5567W        W21828  13.907   2.000   3.127  0.1120  0.3165 -0.0583
 5568W        W21829   7.747   0.249   0.156  0.0478 -0.1191 -0.1595
 5569W        W21830   5.142   5.483   1.132  0.2576 -0.1283  0.1237
 5570W        W21831   3.974  17.984   2.787  0.0142  0.0161  0.0109
 5571W        W21832   5.562   9.788   1.954  0.0831 -0.0964 -0.0718
 5572W        W21833  15.984  10.176   3.413 -0.1586  0.1250  0.0231
 5573W        W21834   8.714   1.669  14.106  0.1093 -0.2377 -0.1763
 5574W        W21835   5.892   8.383  13.705 -0.1745 -0.1872  0.2865
 5575W        W21836   0.135  14.950   1.334 -0.2509  0.0526 -0.0858
 5576W        W21837  11.841  18.177  10.464  0.0615  0.2538 -0.0253
 5577W        W21838  19.259   4.699  11.472 -0.0453 -0.1016  0.2953
 5578W        W21839  15.600  19.094  10.456 -0.0856 -0.2072  0.1265
 5579W        W21840   6.765  14.325   0.103  0.0241 -0.0117 -0.0537
 5580W        W21841   8.211  18.799   2.398 -0.1414 -0.2173 -0.0693
 5581W        W21842  13.660   1.609   4.879  0.2169 -0.0936 -0.0136
 5582W        W21843   9.981   7.214   2.317  0.0685 -0.1682 -0.0242
 5583W        W21844   1.536   0.340   3.102 -0.0942 -0.1398  0.0600
 5584W        W21845  16.247   0.511   2.535 -0.0729  0.1994 -0.1734
 5585W        W21846   0.903   2.779   0.732 -0.2195  0.0670 -0.1125
 5586W        W21847  12.867  13.031   1.045  0.0866 -0.1469 -0.3842
 5587W        W21848   9.649   0.083   1.101  0.0626 -0.0576  0.1908
 5588W        W21849   2.953  15.548   9.866  0.1167 -0.0624 -0.1070
 5589W        W21850  14.930   3.272  12.183 -0.0822 -0.3375  0.1015
 5590W        W21851   4.627  14.243   4.262 -0.1371  0.0123 -0.2296
 5591W        W21852  19.177   8.102  12.807 -0.0343 -0.0335 -0.0792
 5592W        W21853   4.225  11.414  12.232 -0.0438  0.0269  0.0759
 5593W        W21854   0.901  16.443  11.274  0.2784  0.0986  0.0184
 5594W        W21855   2.032   3.520   3.030  0.2629  0.0273  0.2340
 5595W        W21856  17.737  17.634  14.820 -0.2488  0.0407  0.3825
 5596W        W21857   4.253   6.484   2.050 -0.1174  0.1747 -0.1484
 5597W        W21858  14.778   0.333   2.961  0.1795 -0.2132 -0.2444
 5598W        W21859   2.107  10.737  13.922  0.0718 -0.1090 -0.0777
 5599W        W21860  19.087   4.573  12.810  0.2310  0.1721 -0.0927
 5600W        W21861  18.814  18.799   1.354 -0.0676  0.1869 -0.2676
 5601W        W21862   6.251  11.609  11.634  0.2034  0.0565 -0.0243
 5602W        W21863  11.797   1.738   2.012  0.3191 -0.1598 -0.0125
 5603W        W21864   0.888   1.088   1.900 -0.3333  0.1921  0.0693
 5604W        W21865  19.238   5.077   1.414 -0.0806  0.1269  0.0749
 5605W        W21866   5.733  17.430   5.636 -0.0608  0.1962 -0.0497
 5606W        W21867  18.766  18.588  11.828  0.1905  0.0747  0.3308
 5607W        W21868   9.437  14.762   0.906 -0.4774 -0.0805  0.2334
 5608W        W21869  12.376  15.166  11.522 -0.0056 -0.1602 -0.0367
 5609W        W21870   0.598   1.269   0.187  0.1429 -0.2051  0.0672
 5610W        W21871   6.663  17.191  11.605 -0.3177 -0.0172  0.0248
 5611W        W21872   1.963  19.065   1.053 -0.0430  0.3441 -0.0251
 5612W        W21873   0.739   4.917  13.815 -0.1340 -0.0117  0.0049
 5613W        W21874  14.547  18.735  11.604  0.1943 -0.3261 -0.5614
 5614W        W21875  14.462   8.837   2.312 -0.0960 -0.1760  0.4579
 5615W        W21876   7.279  12.314  10.861 -0.1849  0.4618 -0.4374
 5616W        W21877  19.169  14.250  11.354 -0.1871 -0.4003 -0.0776
 5617W        W21878  13.723  10.229   3.434 -0.0097 -0.3010  0.2798
 5618W        W21879  16.166   9.170  12.783  0.2377 -0.0339  0.0006
 5619W        W21880  19.097   7.002   4.881  0.0993 -0.0133  0.1903
 5620W        W21881   1.908  12.592   1.682 -0.2949  0.0512 -0.1117
 5621W        W21882  16.696  13.691   4.080  0.2588  0.1907  0.0140
 5622W        W21883   8.498   3.835  10.225 -0.1217  0.0802  0.0815
 5623W        W21884   3.810  14.722  13.845 -0.1935 -0.1029 -0.2230
 5624W        W21885   9.728   7.969  14.730 -0.2207 -0.1414  0.1885
 5625W        W21886   9.879   2.717   0.026 -0.0366 -0.0162  0.1401
 5626W        W21887  18.200  17.576  14.849  0.0001 -0.2308 -0.0453
 5627W        W21888  11.511  17.949  10.112 -0.0417  0.0530  0.0234
 5628W        W21889  15.733   5.302  13.373 -0.1563 -0.1361 -0.0715
 5629W        W21890   9.999  10.307   4.900  0.1213  0.0509 -0.1591
 5630W        W21891  17.651  13.743   0.272 -0.1209 -0.2262  0.0818
 5631W        W21892   1.616   8.487   1.759  0.0524  0.2672 -0.1720
 5632W        W21893  17.175   4.316   2.378 -0.0467  0.2236 -0.0293
 5633W        W21894   3.306   1.037   4.772 -0.0797 -0.3803  0.0228
 5634W        W21895   1.767   5.545  14.101  0.0615 -0.1940  0.2410
 5635W        W21896   1.710   9.641  11.420  0.2974  0.0930 -0.1737
 5636W        W21897  16.803  15.073   0.125 -0.0611 -0.1006 -0.0101
 5637W        W21898   5.444   9.750   4.371  0.1151 -0.1635  0.2894
 5638W        W21899  16.358  13.621   1.822 -0.0931 -0.3626 -0.0697
 5639W        W21900   3.481  14.574  14.448  0.0942 -0.0936  0.0814
 5640W        W21901  16.651  12.195  12.536 -0.0470 -0.0024  0.1538
 5641W        W21902   6.899  15.623   3.470 -0.2366 -0.0829  0.2512
 5642W        W21903   8.219   1.527  13.876 -0.1286  0.0312  0.3553
 5643W        W21904  12.273   0.338  13.369  0.0872  0.2881  0.5016
 5644W        W21905  16.494   9.121   0.962 -0.0646 -0.1677 -0.1805
 5645W        W21906  11.124  14.187   1.425  0.0315  0.2620 -0.1486
 5646W        W21907  18.716   1.992   0.526 -0.1203 -0.2158 -0.1109
 5647W        W21908   3.814  12.218   2.087  0.1306 -0.0707  0.1859
 5648W        W21909   4.131  16.223   2.688 -0.0848  0.1383  0.0546
 5649W        W21910   9.087   0.912  11.002 -0.0247  0.0370  0.2417
 5650W        W21911  12.263  15.311  10.350  0.2545 -0.0847  0.0535
 5651W        W21912   7.989  12.488  14.603 -0.1333  0.1615 -0.1526
 5652W        W21913  15.850   2.899  14.829 -0.2756 -0.1394  0.3839
 5653W        W21914   5.869   6.289   4.146 -0.2837  0.1282  0.0204
 5654W        W21915  12.394   0.060   2.355  0.0510 -0.2910 -0.3433
 5655W        W21916   4.310  12.544  14.566 -0.1660 -0.1433 -0.1219
 5656W        W21917   9.109  10.649   1.050 -0.4523 -0.2626  0.2330
 5657W        W21918  12.477   8.969   1.357  0.1029  0.1807  0.1095
 5658W        W21919   0.002   7.462  10.932  0.1521  0.0025  0.0192
 5659W        W21920   6.519  15.519   2.662  0.0389 -0.1005 -0.4524
 5660W        W21921   6.536  10.189   1.289  0.2397  0.0872 -0.2752
 5661W        W21922   0.590  10.514   1.519 -0.4951  0.3188 -0.2660
 5662W        W21923   1.084  14.412  12.821  0.0738  0.0912 -0.0688
 5663W        W21924  15.954   0.618   0.893 -0.1210  0.1359 -0.0486
 5664W        W21925   3.752  16.309  11.166 -0.3163 -0.0317 -0.1240
 5665W        W21926  18.093   6.533   0.970  0.1606 -0.0714 -0.2056
 5666W        W21927  10.326  12.775   0.963 -0.3185  0.2981 -0.0084
 5667W        W21928   0.623   6.384   1.214  0.1381  0.2224  0.1113
 5668W        W21929   3.061   4.883  10.641 -0.2225  0.2235  0.0044
 5669W        W21930   3.166   9.484  13.298 -0.4216  0.0793 -0.2386
 5670W        W21931   5.388   8.182  14.729 -0.2180 -0.0552  0.3862
 5671W        W21932  18.839  19.360  11.265  0.1940  0.1673 -0.0448
 5672W        W21933   9.702   7.162  11.459  0.0059  0.0741  0.3785
 5673W        W21934   7.249   7.139   2.640 -0.0942 -0.0544  0.0887
 5674W        W21935  14.661   6.966   9.423  0.1323 -0.2919  0.1178
 5675W        W21936   8.318   3.260   3.989  0.0785 -0.2660  0.0306
 5676W        W21937  15.618   9.233  10.994 -0.1790  0.3570  0.2996
 5677W        W21938  10.651   5.247  12.583 -0.1277  0.0008 -0.0152
 5678W        W21939   0.913  10.306   9.599  0.0446  0.0560  0.2515
 5679W        W21940  15.928   0.865   0.467  0.2744 -0.6030  0.1029
 5680W        W21941  11.950  18.360  12.294  0.1093 -0.0601  0.5083
 5681W        W21942  13.778   9.063  10.296 -0.2607 -0.1639  0.0507
 5682W        W21943   0.154  12.858  10.280  0.0341  0.1620  0.0391
 5683W        W21944   9.247  15.921  13.008 -0.3143 -0.2338 -0.2606
 5684W        W21945   5.172   2.516  11.370 -0.1554 -0.1950 -0.1247
 5685W        W21946  15.369   6.178   3.799 -0.0857  0.0844  0.0170
 5686W        W21947   4.001   7.347   0.974  0.3021  0.0036 -0.3367
 5687W        W21948   7.365  18.394   4.789 -0.1459  0.2562  0.1168
 5688W        W21949   6.981   2.139  13.082  0.0255  0.2881 -0.1092
 5689W        W21950   1.492   6.557   2.919  0.1042 -0.0915 -0.0490
 5690W        W21951  18.399   7.590  11.841  0.0426 -0.0660  0.0390
 5691W        W21952  18.775   3.519  12.734  0.0349  0.1968 -0.0382
 5692W        W21953   2.725   8.606   3.373 -0.0175  0.0372  0.1463
 5693W        W21954   4.319  13.157  13.642  0.0448 -0.3047  0.2056
 5694W        W21955  14.269   4.342  10.319 -0.1319  0.3766  0.1583
 5695W        W21956   5.646   0.957  13.423 -0.1462  0.0907 -0.3072
 5696W        W21957  14.570  14.420   4.851  0.0360  0.0874  0.1480
 5697W        W21958  11.004   3.114   3.306 -0.0411  0.3109 -0.0413
 5698W        W21959   7.133  16.449   1.977  0.2724 -0.1333 -0.0391
 5699W        W21960  10.805   9.809   3.424 -0.0446 -0.0870  0.1401
 5700W        W21961   7.335  11.844   4.555 -0.4427 -0.0360 -0.0650
 5701W        W21962  13.028   2.724   3.177 -0.1411 -0.1580  0.2373
 5702W        W21963  10.566  12.690   3.479  0.1097 -0.4138 -0.1518
 5703W        W21964   8.632   5.290   2.018  0.0724  0.0649 -0.0829
 5704W        W21965  11.796  17.981   0.691 -0.1366 -0.1387  0.1801
 5705W        W21966  16.843   2.168   0.236 -0.1713  0.4618  0.1166
 5706W        W21967  12.062   9.904  12.158  0.2408 -0.1076 -0.0811
 5707W        W21968   7.247  17.655   1.029 -0.1802  0.0780  0.0011
 5708W        W21969  13.626   7.705   2.663 -0.0330 -0.0899 -0.0305
 5709W        W21970   1.974   3.436   3.652 -0.0467 -0.0903  0.2503
 5710W        W21971   0.448   1.617  12.415  0.0555 -0.1521  0.3075
 5711W        W21972  12.609   7.412   1.592 -0.1864 -0.1277  0.4487
 5712W        W21973   8.090   6.587  11.675  0.3639 -0.0759 -0.0259
 5713W        W21974  14.503  17.096   9.862 -0.1257 -0.3113 -0.2075
 5714W        W21975   5.346  10.769  14.697 -0.2431  0.2725  0.0170
 5715W        W21976   0.862  12.048   2.355  0.3999  0.2263  0.1749
 5716W        W21977   1.078  13.174  12.550 -0.2159  0.1704  0.0586
 5717W        W21978  19.013  11.228   4.410 -0.0376 -0.0860 -0.1139
 5718W        W21979   2.610  17.396   2.781 -0.0152  0.3225 -0.2658
 5719W        W21980   4.096  18.638  11.907 -0.0751  0.1869 -0.0013
 5720W        W21981   4.476  18.842  13.928  0.0570  0.0875 -0.1557
 5721W        W21982  13.025  12.036  11.310  0.0727 -0.2454  0.1582
 5722W        W21983   2.117  16.871  13.448 -0.0698 -0.0143  0.1510
 5723W        W21984   2.107   0.776   1.805  0.0295  0.1134  0.0280
 5724W        W21985   1.122  18.051   0.529  0.1091 -0.1224  0.1187
 5725W        W21986  17.638  10.787  12.707  0.0220 -0.0146 -0.0998
 5726W        W21987   9.181  18.211  11.569  0.1123 -0.1941  0.4419
 5727W        W21988  11.084   3.538  11.607  0.0004 -0.0954  0.0744
 5728W        W21989  15.149   0.144  12.483 -0.1614 -0.2573  0.0584
 5729W        W21990   6.901   4.286   0.305 -0.0688  0.2720 -0.0080
 5730W        W21991   3.581  11.800  14.080 -0.3799  0.0517  0.0747
 5731W        W21992  16.399  15.429  11.567  0.1529 -0.1336  0.0982
 5732W        W21993   5.556  19.411  14.450  0.3041  0.0047 -0.1356
 5733W        W21994   8.729   3.027   3.671  0.3159 -0.0544  0.0245
 5734W        W21995   4.368   5.266   1.835 -0.0746 -0.1818  0.1393
 5735W        W21996  12.864  13.490   2.755 -0.0239 -0.2540 -0.5976
 5736W        W21997  14.915  19.435   3.941  0.1417  0.2271 -0.0330
 5737W        W21998   6.611  11.180  12.260  0.0274  0.0895 -0.1619
 5738W        W21999  14.960   4.302  14.257 -0.0240  0.1658 -0.2197
 5739W        W22000   3.481  18.515  13.546  0.2395  0.1723  0.2233
 5740W        W22001   8.001   4.622   0.984  0.0242 -0.0469  0.0927
 5741W        W22002   6.386  11.883  11.204 -0.3067  0.0293 -0.0358
 5742W        W22003  18.649   8.141  12.254  0.2052 -0.2504  0.0253
 5743W        W22004   8.987   5.437   0.635 -0.1319  0.2539  0.2320
 5744W        W22005   3.700   2.420  10.777 -0.0173 -0.0859 -0.0231
 5745W        W22006   6.636  14.381   4.714  0.3135  0.1735 -0.1719
 5746W        W22007   5.267   4.969   4.286 -0.0246  0.1198 -0.0475
 5747W        W22008   7.921   8.904  13.935  0.1883  0.0377 -0.1231
 5748W        W22009  14.574  18.915   0.564 -0.0124  0.0414 -0.1744
 5749W        W22010  14.573   1.114   9.211  0.2237  0.0045 -0.5909
 5750W        W22011  15.212   1.915  10.889 -0.0186  0.2203  0.1247
 5751W        W22012  12.001  16.549   3.177  0.0909  0.2842  0.0598
 5752W        W22013  10.153  14.080   4.351 -0.3149  0.2280 -0.0012
 5753W        W22014   3.226   8.264  13.730 -0.1804  0.1243 -0.0086
 5754W        W22015  13.516  12.767  11.626 -0.2570  0.2257 -0.1221
 5755W        W22016   8.340   7.257   4.550 -0.0956 -0.1583 -0.1327
 5756W        W22017   7.567  11.454  12.048  0.2671 -0.2460  0.1176
 5757W        W22018   7.611  14.103   3.033  0.3125 -0.3410  0.0786
 5758W        W22019   9.086  13.800   0.968 -0.0992  0.0265 -0.0872
 5759W        W22020   6.858   8.674   4.552  0.1019 -0.1861 -0.2205
 5760W        W22021  10.815   7.973  12.288  0.1015  0.0412 -0.1935
 5761W        W22022   4.169   7.726   1.857  0.0278  0.0557 -0.0827
 5762W        W22023   1.318   6.687   0.474 -0.0547  0.0088 -0.1470
 5763W        W22024   0.942   0.304   4.582  0.1903  0.0351 -0.0517
 5764W        W22025   0.682  16.288  12.431  0.0765 -0.1017 -0.0949
 5765W        W22026   7.241   9.574   3.001  0.4767  0.0700  0.1923
 5766W        W22027   3.679   0.261  14.874 -0.1126  0.1458 -0.3070
 5767W        W22028   2.827  18.210   1.178 -0.1774  0.3311 -0.1329
 5768W        W22029  16.386   8.068  11.191  0.1870 -0.2339  0.0366
 5769W        W22030   8.842  13.079   0.244 -0.0638 -0.0168  0.0663
 5770W        W22031   9.337  17.279   2.173  0.1125 -0.2914 -0.1550
 5771W        W22032  11.958   7.805   3.609  0.1960 -0.2047 -0.1268
 5772W        W22033   8.440  18.662   3.324  0.3237  0.1174 -0.2098
 5773W        W22034  10.965  13.886   5.347 -0.0012  0.0854 -0.0671
 5774W        W22035  14.070   9.722   3.050  0.1341 -0.2729  0.0230
 5775W        W22036   9.378  14.234  12.491  0.1502 -0.1905  0.1903
 5776W        W22037   4.864   1.458  14.107  0.0049  0.0480  0.0800
 5777W        W22038   7.045  14.773   2.863  0.2293  0.0151 -0.1002
 5778W        W22039  18.145  10.005  10.787 -0.4841  0.3204 -0.0352
 5779W        W22040  11.005  17.857   0.098 -0.0644 -0.1258 -0.1181
 5780W        W22041   6.687  18.337  12.057  0.1047 -0.1882  0.1712
 5781W        W22042   2.610   4.724   0.020  0.4280  0.4362 -0.1398
 5782W        W22043   4.412  15.689  11.857 -0.0119  0.0263 -0.0468
 5783W        W22044  11.727   7.549   5.705 -0.0264  0.3798 -0.1106
 5784W        W22045   4.311   0.143   2.151 -0.2944 -0.3346 -0.2623
 5785W        W22046  10.195  15.245  14.027 -0.1292  0.2494 -0.2402
 5786W        W22047  10.516   1.620   4.257  0.2402 -0.1090 -0.1595
 5787W        W22048  13.242  17.601  10.649 -0.0757 -0.1807  0.1118
 5788W        W22049   7.982  17.041   5.377 -0.3439  0.0534 -0.1516
 5789W        W22050   6.559  10.359   3.370  0.1907  0.0615  0.2167
 5790W        W22051  13.534  19.109  10.920  0.0169 -0.0558 -0.1414
 5791W        W22052   5.373  19.298   3.548  0.1771  0.0615  0.1231
 5792W        W22053  15.287  17.448   9.625  0.0822 -0.2165  0.0291
 5793W        W22054   1.308  19.019  12.978 -0.2008 -0.0823 -0.3379
 5794W        W22055  17.424   1.042  13.712 -0.0601 -0.4196  0.0015
 5795W        W22056   6.824  10.026   3.148 -0.0285  0.0915 -0.0449
 5796W        W22057  17.570   8.575  12.692  0.0729  0.0354  0.3081
 5797W        W22058   0.594   6.274  13.334 -0.0894  0.0996  0.1800
 5798W        W22059   3.371   3.128  14.775 -0.0418  0.1476 -0.0966
 5799W        W22060  10.157  14.055   2.673 -0.2640 -0.2002 -0.0709
 5800W        W22061   3.142   1.114   2.873 -0.2753 -0.1273  0.1299
 5801W        W22062  12.640  13.090   4.359  0.2117 -0.0136  0.0113
 5802W        W22063  11.827  17.345   3.977  0.2622  0.0876 -0.1359
 5803W        W22064  12.572  15.732  11.649  0.0476  0.1485  0.1677
 5804W        W22065   7.517   2.304  10.365 -0.3078  0.0426 -0.2915
 5805W        W22066   9.384  17.100  10.359 -0.1039  0.3103  0.2815
 5806W        W22067   5.474  12.367  12.413  0.0572 -0.2225  0.1808
 5807W        W22068  15.495  14.099   3.407  0.0223 -0.0535  0.0726
 5808W        W22069  18.096  12.295  10.704  0.1051 -0.0271 -0.2571
 5809W        W22070   6.240  11.301   4.378  0.1400 -0.0915  0.0875
 5810W        W22071  13.766   7.456  13.554 -0.1880  0.1632  0.1291
 5811W        W22072  17.959  10.788   0.268  0.0904  0.0417  0.0560
 5812W        W22073  17.071   9.454   9.326 -0.2060  0.0388  0.1595
 5813W        W22074   0.538  12.911  11.300 -0.1783 -0.3514  0.3004
 5814W        W22075  10.676   3.600  11.896 -0.0790 -0.2878 -0.2273
 5815W        W22076   3.507  17.192  14.536 -0.1002 -0.0538 -0.0484
 5816W        W22077   9.013  16.703   3.310  0.2860 -0.0362  0.1569
 5817W        W22078   3.912  14.274  10.968  0.0087  0.0693  0.0319
 5818W        W22079   3.423   9.093  13.511  0.3624  0.0871  0.2850
 5819W        W22080   3.845  14.326  11.542 -0.3122 -0.2379 -0.2521
 5820W        W22081  18.574  18.255  13.867  0.0023 -0.0598 -0.0721
 5821W        W22082  14.620  16.115   3.737 -0.0923 -0.3913 -0.1685
 5822W        W22083   6.737  10.467  13.980  0.0582 -0.3382  0.0706
 5823W        W22084   8.053  12.638   3.725 -0.0514 -0.1571  0.3279
 5824W        W22085  10.513   2.355  12.315 -0.1243 -0.3843 -0.3054
 5825W        W22086   7.440  17.694   1.562 -0.3079 -0.0211 -0.5430
 5826W        W22087  18.998   5.356  13.350 -0.1178 -0.3883 -0.3017
 5827W        W22088  10.272   5.008   9.999  0.1489 -0.2528  0.1086
 5828W        W22089   7.598   0.066  11.517 -0.0950 -0.1830  0.1700
 5829W        W22090   8.954   4.593   2.241  0.0563  0.1523 -0.2219
 5830W        W22091   1.515  18.198   0.858  0.0114 -0.1095  0.0652
 5831W        W22092   7.210  18.628  12.428 -0.2216  0.2078 -0.0471
 5832W        W22093  17.482   8.246  14.322 -0.4734 -0.1478  0.2282
 5833W        W22094  12.393   0.651  11.970  0.0333  0.0924 -0.0479
 5834W        W22095  11.265  12.301  13.071 -0.0700  0.1425  0.0614
 5835W        W22096   8.254  15.371   3.177 -0.2285  0.3290  0.0937
 5836W        W22097  12.111  19.319   0.913  0.0807  0.0330  0.0577
 5837W        W22098  15.764  10.538  10.716  0.1644  0.0254 -0.3485
 5838W        W22099   9.168   4.557  10.253  0.2534 -0.3243 -0.1836
 5839W        W22100  10.016   9.826   4.274  0.1017 -0.3151  0.0641
 5840W        W22101  11.776   9.735   4.624  0.3330  0.0296 -0.3408
 5841W        W22102   1.154   9.628   0.868  0.1055 -0.2777  0.1209
 5842W        W22103  18.901  12.248   0.637 -0.0832  0.2142  0.0188
 5843W        W22104   5.657  12.110   1.526  0.3133  0.1892 -0.1489
 5844W        W22105   6.973   5.455   9.697  0.0771  0.1586 -0.2529
 5845W        W22106   0.072  17.556  14.057  0.1225  0.0243 -0.0288
 5846W        W22107  12.832   3.023  11.398 -0.1911 -0.3406 -0.2787
 5847W        W22108   8.508   8.182  11.911  0.1695  0.1459 -0.2340
 5848W        W22109  17.039   5.290  12.944  0.0612  0.0828 -0.5403
 5849W        W22110  16.724   4.542   4.990  0.0130 -0.0480 -0.0448
 5850W        W22111   3.263   4.417  12.105  0.2441  0.2893 -0.0172
 5851W        W22112  11.166  19.280   0.673 -0.3559 -0.1111 -0.1160
 5852W        W22113   1.854  15.428  13.334 -0.1298 -0.2288 -0.0252
 5853W        W22114  18.439   2.287   2.140 -0.1703 -0.0088 -0.1379
 5854W        W22115  12.728  10.314  14.879 -0.0391 -0.0656  0.2806
 5855W        W22116   7.982  19.387   3.124  0.3272  0.2275 -0.0965
 5856W        W22117   5.594  19.392   4.779 -0.1213 -0.2492 -0.2471
 5857W        W22118   4.773  17.781   5.045  0.1153 -0.4436 -0.1639
 5858W        W22119   3.770  11.227   4.572 -0.2801 -0.2114 -0.1053
 5859W        W22120   3.723  16.039  12.353  0.1231 -0.1921  0.2043
 5860W        W22121  16.363  14.131  11.542 -0.0195 -0.1624  0.0371
 5861W        W22122   6.423  10.009  11.869 -0.2194 -0.3116  0.0256
 5862W        W22123   5.871  17.984   3.009  0.3164 -0.2168 -0.1177
 5863W        W22124   0.481   9.396   0.079 -0.1624  0.1911 -0.1274
 5864W        W22125   3.179  18.586   2.908  0.0031  0.0230  0.4450
 5865W        W22126   6.644  18.636   3.376  0.2538 -0.0308 -0.2156
 5866W        W22127  15.416   2.842   0.256  0.1877 -0.1385 -0.3169
 5867W        W22128   1.960   1.494   4.673  0.2393  0.0574 -0.3370
 5868W        W22129   1.478   9.197   0.158 -0.2831 -0.1130  0.2337
 5869W        W22130   3.259   8.737   3.426  0.4192  0.1879  0.0311
 5870W        W22131  17.580  17.065  11.449  0.1673  0.0262  0.1296
 5871W        W22132  10.693   6.608   4.393 -0.2162 -0.4181 -0.3471
 5872W        W22133  13.541   6.098   1.165 -0.0161 -0.1598 -0.2116
 5873W        W22134  11.611   9.530   0.443  0.3301 -0.0360  0.0410
 5874W        W22135  11.672   9.924   1.270 -0.0239  0.2928 -0.1438
 5875W        W22136  13.309   9.134  11.505 -0.0718  0.2964  0.2959
 5876W        W22137   0.365  10.970   2.014 -0.0869  0.0290  0.0724
 5877W        W22138  10.865  16.180  14.810  0.1529  0.2653  0.0043
 5878W        W22139   4.755   4.287   2.613 -0.0580  0.2525  0.2321
 5879W        W22140  13.128   1.847  10.788 -0.1075 -0.1467  0.2711
 5880W        W22141   1.915   0.341   5.049  0.0270 -0.1908  0.0033
 5881W        W22142   9.035   2.919   5.641 -0.1342  0.1064  0.2109
 5882W        W22143   4.515   8.548  14.207  0.3097 -0.0944 -0.0750
 5883W        W22144   2.271  12.674  10.229  0.1821 -0.0760 -0.0363
 5884W        W22145   9.168   8.734   2.063 -0.2972 -0.0238  0.0044
 5885W        W22146   4.029  17.436  14.818  0.0602 -0.2147  0.1047
 5886W        W22147  11.754   6.407   0.560  0.3564 -0.1943 -0.2066
 5887W        W22148  14.736   6.974   0.367 -0.0717  0.0030 -0.1208
 5888W        W22149   9.967  10.730   1.439 -0.0028  0.2707 -0.3218
 5889W        W22150  17.915  12.677  11.507  0.1413 -0.1806 -0.3488
 5890W        W22151   2.095  13.512   1.356  0.0612 -0.0973  0.0566
 5891W        W22152   7.655  12.436  11.272  0.0636 -0.0129  0.0776
 5892W        W22153  18.194  18.796   0.624 -0.0871  0.0460 -0.0969
 5893W        W22154   4.150   2.749  11.737 -0.0933  0.0097 -0.0379
 5894W        W22155  14.033   2.993   3.893 -0.1472  0.0204 -0.4756
 5895W        W22156   3.058   5.014   0.046 -0.0608 -0.0017  0.2088
 5896W        W22157  16.635  17.882   1.924 -0.0422 -0.1675  0.0063
 5897W        W22158   8.857  14.638   4.536  0.3515 -0.0565  0.0826
 5898W        W22159   0.755   4.143   0.145  0.2967 -0.1832 -0.0726
 5899W        W22160  19.243   8.670  11.506  0.0590  0.6205 -0.0981
 5900W        W22161   5.669   8.037  13.346 -0.0781 -0.0160  0.0517
 5901W        W22162   6.184   2.125   2.352 -0.1404  0.2228 -0.0595
 5902W        W22163  10.642   4.561  13.193 -0.0846  0.2438 -0.1189
 5903W        W22164   7.464  11.884   0.354 -0.5381 -0.2100  0.1895
 5904W        W22165   9.449  11.542  13.587 -0.0998  0.0474  0.1766
 5905W        W22166  11.703   7.012  12.943  0.0787  0.3181  0.0976
 5906W        W22167   7.158   6.552  11.838 -0.1014  0.0322  0.2916
 5907W        W22168   9.679  11.986   1.300 -0.3556 -0.3913  0.0286
 5908W        W22169  17.339  18.424  11.871 -0.5017  0.2633  0.2900
 5909W        W22170  14.991  13.314   4.942  0.0422  0.1898  0.1160
 5910W        W22171   8.837   9.274  12.077 -0.0581 -0.1896 -0.0267
 5911W        W22172  17.190   5.695  11.234  0.1964  0.2387  0.2798
 5912W        W22173  17.066  12.683   2.858 -0.6091 -0.2944  0.1718
 5913W        W22174  14.890   1.825   4.296 -0.1701  0.1392 -0.2202
 5914W        W22175   4.849   5.909   0.963  0.1969 -0.3266  0.1048
 5915W        W22176   2.128   9.667  13.632 -0.1170 -0.1529 -0.0723
 5916W        W22177   5.963  17.491   4.535 -0.0166  0.4539 -0.0283
 5917W        W22178   3.688   9.528  12.487  0.0725 -0.4187 -0.0489
 5918W        W22179  11.191  17.845   4.460  0.2419 -0.2417  0.3005
 5919W        W22180   9.938   4.714  14.648  0.3366 -0.1733  0.0248
 5920W        W22181  17.830   8.169  12.811 -0.1193  0.0099  0.0974
 5921W        W22182  13.113   7.748  11.166  0.0838 -0.0430 -0.0266
 5922W        W22183   4.662   9.368   1.809 -0.2489 -0.1072  0.0140
 5923W        W22184  18.948   6.127   0.858 -0.0295 -0.0220 -0.0642
 5924W        W22185   7.613   9.513  14.026 -0.1654  0.3319  0.2801
 5925W        W22186   9.714  19.149  11.950 -0.1017  0.3113 -0.1948
 5926W        W22187  14.987   9.312   9.962  0.0233  0.2606  0.0093
 5927W        W22188  14.566   4.689   9.026  0.1242 -0.1996 -0.2167
 5928W        W22189   2.088   2.877  14.547  0.0700  0.0520  0.3187
 5929W        W22190  12.363   4.206  14.451 -0.0353  0.1378  0.1385
 5930W        W22191   7.205   9.764   9.875  0.2736 -0.0742  0.0021
 5931W        W22192   9.848  17.157  10.100  0.0965 -0.1457 -0.2077
 5932W        W22193   6.840  13.656  11.922  0.1229 -0.0678 -0.2783
 5933W        W22194  10.777  17.719  11.587  0.1177 -0.2483 -0.0810
 5934W        W22195   7.853  15.981  11.865 -0.0503  0.3407 -0.1715
 5935W        W22196  14.411   2.751   3.636  0.0478 -0.0886  0.3091
 5936W        W22197  15.901   0.879   5.146 -0.0506  0.1552  0.0338
 5937W        W22198   4.962   4.836  13.799 -0.1550 -0.2326 -0.2119
 5938W        W22199   4.055   6.060  14.068 -0.1627  0.2096 -0.4818
 5939W        W22200  13.540   1.064   4.330  0.0584  0.0671  0.0711
 5940W        W22201  15.276   5.412   2.326 -0.0790  0.0926  0.1997
 5941W        W22202   2.402  13.904   2.179  0.3098 -0.1139 -0.0558
 5942W        W22203  10.619   7.623   1.870  0.0549  0.1903 -0.2359
 5943W        W22204   5.301   2.830   1.977 -0.1747  0.2575  0.4558
 5944W        W22205   5.058  10.963  13.132 -0.1122 -0.0001 -0.2851
 5945W        W22206  18.723   3.305  13.140  0.0032 -0.0062 -0.0637
 5946W        W22207   8.145  15.916  11.440  0.1963 -0.0848  0.0852
 5947W        W22208   3.139  15.986   5.786 -0.4663  0.3254 -0.0425
 5948W        W22209  17.601  15.658   0.113  0.2639  0.2674 -0.2950
 5949W        W22210   0.127   4.021   3.226 -0.0085  0.0376  0.0146
 5950W        W22211  11.290  17.055   4.004  0.2255  0.1204  0.1419
 5951W        W22212  14.622  17.508   4.975 -0.0281  0.3003 -0.0697
 5952W        W22213   7.355   4.885  11.155 -0.4197  0.2363  0.1628
 5953W        W22214   2.672  17.370  11.230 -0.0029 -0.0895  0.0808
 5954W        W22215   2.802   3.486   1.634 -0.1010 -0.2676  0.1966
 5955W        W22216   1.731  12.589  12.666 -0.0465  0.1562  0.0542
 5956W        W22217  12.672   1.946  10.539  0.0935  0.2250  0.3111
 5957W        W22218   4.032  14.351   3.261 -0.0985 -0.2096  0.3601
 5958W        W22219   2.093   5.002   1.414 -0.0268  0.0765 -0.2085
 5959W        W22220  17.719   1.760  11.805  0.0184  0.2225 -0.0252
 5960W        W22221  16.862   7.264  11.157  0.0489 -0.1224 -0.0377
 5961W        W22222  15.406   7.085   0.715  0.2748 -0.0936 -0.1785
 5962W        W22223  15.798   5.253  12.064 -0.0514 -0.3565 -0.0805
 5963W        W22224  13.001   3.358  13.708  0.0572 -0.1957  0.2484
 5964W        W22225  12.146  13.125  10.505  0.0204  0.1062  0.1260
 5965W        W22226  15.111  16.593   2.969 -0.4074  0.1330  0.0972
 5966W        W22227   4.834  12.230   3.198 -0.0758 -0.0829  0.2153
 5967W        W22228  13.795  18.294   2.463 -0.0764 -0.0641 -0.2403
 5968W        W22229   9.825   9.023   1.282 -0.1355  0.2849 -0.4003
 5969W        W22230   3.022   0.568   4.732 -0.0506  0.0163 -0.0993
 5970W        W22231   6.505  13.980  14.340 -0.3297 -0.1567 -0.0692
 5971W        W22232   0.733   9.609   1.349  0.0611  0.1919 -0.0123
 5972W        W22233  10.591  19.085   0.854  0.1173 -0.0457  0.2871
 5973W        W22234  17.601  18.506  10.504  0.2178  0.1043  0.0362
 5974W        W22235  18.705   0.640   3.313  0.3343 -0.1421 -0.0529
 5975W        W22236  18.835   2.985  14.453 -0.1817 -0.0230 -0.1317
 5976W        W22237   5.584   8.787  11.086 -0.0725 -0.0668 -0.2469
 5977W        W22238   9.360   8.264  14.388 -0.1236 -0.1245 -0.2260
 5978W        W22239  15.881  16.708  11.835  0.0023  0.0214 -0.2700
 5979W        W22240   0.433  15.242   3.861 -0.0860 -0.0672  0.4065
 5980W        W22241  11.005  12.904   5.136 -0.0096 -0.1346 -0.2901
 5981W        W22242  13.338  15.164  13.456  0.1704 -0.1699  0.1149
 5982W        W22243   0.973  13.906   3.422  0.1953  0.0480  0.1533
 5983W        W22244   0.725   3.342   4.197 -0.2081 -0.2400  0.1765
 5984W        W22245  11.107  14.343   3.005  0.0313  0.3893 -0.0614
 5985W        W22246   0.891   5.670  14.845  0.2603 -0.1013  0.0991
 5986W        W22247  10.342  13.576   0.977  0.0843  0.1694  0.1281
 5987W        W22248   0.333   9.002   9.442 -0.0642 -0.4156  0.1149
 5988W        W22249   6.364  19.193   3.510 -0.2456  0.2316 -0.1067
 5989W        W22250   1.561   7.793  11.299  0.0399 -0.2665 -0.2518
 5990W        W22251   9.036  18.936   2.582  0.0516 -0.0062  0.3002
 5991W        W22252   1.561   1.244   2.434 -0.2516 -0.0074 -0.5709
 5992W        W22253   8.030  13.947  13.698  0.1154 -0.0138 -0.1705
 5993W        W22254  16.214  10.233  10.117 -0.0521  0.1649 -0.1877
 5994W        W22255  10.693   2.848   0.787  0.1817  0.1059 -0.0800
 5995W        W22256  15.273  12.686   3.091  0.3019 -0.0764 -0.3662
 5996W        W22257  10.281   6.892  11.871  0.1952  0.1099 -0.3721
 5997W        W22258   9.037  10.204   2.625 -0.1751 -0.2751  0.0050
 5998W        W22259   4.002   0.264   3.072 -0.0863  0.0434 -0.2933
 5999W        W22260  16.423   9.203   2.085 -0.1647 -0.2934  0.0891
 6000W        W22261  15.332  13.437   2.731  0.3254 -0.3394 -0.0946
 6001W        W22262  16.235   0.434  10.433 -0.0550  0.1345 -0.0193
 6002W        W22263   8.549   4.880   3.033  0.1685  0.4128 -0.0227
 6003W        W22264  15.064  13.590  11.843 -0.0998  0.0314  0.0268
 6004W        W22265   3.092   8.959   1.606  0.0179  0.0256 -0.3121
 6005W        W22266  16.385   9.988  14.081  0.1121  0.1282  0.3434
 6006W        W22267   9.780  16.978   4.289 -0.0489 -0.0807 -0.3550
 6007W        W22268   6.439   9.957   4.692 -0.2951 -0.0098 -0.2304
 6008W        W22269  16.830   0.497   2.199 -0.1717 -0.0407 -0.2380
 6009W        W22270   9.976  18.083  11.184  0.1013  0.0831  0.0617
 6010W        W22271  15.810   4.175  13.845  0.0916  0.2124 -0.1207
 6011W        W22272   3.982   3.494   2.731  0.2763 -0.2073  0.0837
 6012W        W22273  15.793   9.555  13.409 -0.0589 -0.3612 -0.1755
 6013W        W22274   2.874   8.227  12.221 -0.0448 -0.1218  0.2717
 6014W        W22275   7.119   2.922   2.202  0.1543  0.0345 -0.1704
 6015W        W22276  13.511  13.107  11.997  0.2200  0.1602  0.0885
 6016W        W22277   7.843  19.290  12.844 -0.1107 -0.3144  0.2304
 6017W        W22278  13.208  17.510   4.315 -0.3092 -0.1658 -0.0063
 6018W        W22279  18.182   6.043  14.178  0.2482  0.1056  0.1832
 6019W        W22280  14.136   8.287  10.093  0.1218  0.2294  0.1201
 6020W        W22281  15.892  13.935  14.866 -0.2217 -0.0425  0.1095
 6021W        W22282   0.159   1.782  14.596  0.1267  0.1542 -0.0358
 6022W        W22283   3.703  12.079   2.952 -0.1242  0.4417 -0.0786
 6023W        W22284  13.990   6.151  13.465 -0.1140 -0.1720  0.1750
 6024W        W22285  18.630   0.745   4.758 -0.3386 -0.2228  0.2845
 6025W        W22286   5.230   4.794   2.137  0.3609 -0.2229 -0.0965
 6026W        W22287   8.258   7.282   1.477  0.1459  0.0853  0.0322
 6027W        W22288   5.088   1.537  12.357 -0.1864 -0.3446 -0.1506
 6028W        W22289   2.805   1.121   3.823 -0.0954 -0.1584  0.2257
 6029W        W22290   0.589  13.473  14.256  0.4258 -0.0995  0.0772
 6030W        W22291  16.481   2.574  11.334 -0.1001  0.2848 -0.0565
 6031W        W22292  18.764  12.861   1.532  0.0061  0.2906  0.0091
 6032W        W22293   6.191  16.119  10.233 -0.0883  0.2047 -0.3769
 6033W        W22294  13.301   7.426   5.198  0.1874 -0.1123 -0.3208
 6034W        W22295   4.550   5.168   3.405 -0.2208  0.1301 -0.0111
 6035W        W22296  17.170  11.379  13.562 -0.2442  0.1273 -0.5365
 6036W        W22297  10.895   1.738  12.755  0.2252 -0.1788  0.4937
 6037W        W22298   2.790   2.806  12.846 -0.0796  0.1202 -0.1278
 6038W        W22299  15.937   1.054   2.418  0.5022  0.0266 -0.1920
 6039W        W22300   3.196   0.941  12.049  0.0920 -0.1738 -0.0168
 6040W        W22301   3.818  16.685  14.211  0.1034 -0.0833 -0.2567
 6041W        W22302   9.610   8.101   0.690  0.0678  0.2777 -0.4562
 6042W        W22303  16.665   7.873   1.684  0.0680 -0.2782  0.0936
 6043W        W22304  12.204   7.863   0.918 -0.1416 -0.1663 -0.3175
 6044W        W22305  11.458   6.436   0.127  0.0519 -0.1960 -0.2488
 6045W        W22306   3.001  13.168   0.418  0.1572  0.1109 -0.4869
 6046W        W22307  18.675  14.469   4.049  0.0307  0.2993  0.4661
 6047W        W22308   6.557  12.836  14.327 -0.0563 -0.0620  0.0413
 6048W        W22309  18.494   5.048   3.563  0.1637 -0.2418  0.1302
 6049W        W22310  10.367  17.730  11.181 -0.2269 -0.4806  0.0553
 6050W        W22311   6.300   2.725  12.497  0.3278  0.1169 -0.0317
 6051W        W22312  16.610   3.231   4.429  0.4193  0.0228  0.3262
 6052W        W22313  10.252   8.071   3.291  0.1662  0.0671  0.0001
 6053W        W22314   5.278  15.308  12.294  0.1144 -0.2093  0.0876
 6054W        W22315  14.342   1.237  10.640 -0.0479  0.0574 -0.0912
 6055W        W22316   9.775   5.209  14.587  0.0742 -0.3823  0.2991
 6056W        W22317   6.578  10.084   2.321  0.1435 -0.0938 -0.1057
 6057W        W22318   8.312   2.386   4.316 -0.0919  0.0958  0.0755
 6058W        W22319  18.680   0.320   5.174  0.1679 -0.1438 -0.0955
 6059W        W22320   6.103   2.255   1.857 -0.2981  0.2664 -0.3430
 6060W        W22321  18.590   4.649   5.305 -0.1589  0.4391  0.3005
 6061W        W22322  19.216  16.486   4.606  0.1046 -0.6567 -0.1054
 6062W        W22323  14.539   2.886  13.325  0.0027  0.1249 -0.1533
 6063W        W22324  11.367  19.220  11.889  0.1070 -0.1669  0.0658
 6064W        W22325  12.016  11.124   9.283  0.1528  0.0077  0.3243
 6065W        W22326  16.158   7.038   1.759 -0.5017  0.0226  0.0392
 6066W        W22327  15.816   3.284  11.319  0.2519  0.0489  0.0108
 6067W        W22328  15.783  15.220   3.429 -0.5270  0.1960  0.0672
 6068W        W22329   0.068   3.088   1.164  0.0857  0.0822  0.0611
 6069W        W22330   4.016   0.370   4.634 -0.3505 -0.0493  0.2877
 6070W        W22331   9.694   2.939   0.435  0.0521  0.0939  0.0532
 6071W        W22332   7.818   9.841  10.622  0.0788  0.3603 -0.2264
 6072W        W22333   5.390  18.517  10.808 -0.1466 -0.1348  0.2122
 6073W        W22334   2.780   3.403  12.784  0.4297  0.1814 -0.2468
 6074W        W22335  17.546  17.614  12.373  0.1602  0.1904 -0.1046
 6075W        W22336  19.215  17.849   3.482  0.1432  0.3985 -0.0947
 6076W        W22337  11.959  13.840   4.632 -0.0162  0.0651  0.2695
 6077W        W22338   0.384   8.878   3.256 -0.2702  0.1126 -0.1428
 6078W        W22339  10.174   4.969   4.642  0.1102 -0.1277  0.1431
 6079W        W22340  10.420  12.182  14.240  0.2234  0.2700 -0.1953
 6080W        W22341  11.704   2.924  13.527 -0.0365  0.0006 -0.0429
 6081W        W22342   5.404  10.839  13.673 -0.0210  0.4513 -0.1022
 6082W        W22343   6.914  11.058  13.248 -0.0277 -0.1638  0.0738
 6083W        W22344  18.001  13.952   1.420 -0.3231  0.2074 -0.1644
 6084W        W22345  11.740  19.227   5.022  0.0245 -0.2362  0.2423
 6085W        W22346   3.749  17.465   3.764 -0.3366  0.1627  0.0461
 6086W        W22347   8.374   0.048  13.577 -0.1276 -0.1087 -0.0536
 6087W        W22348   5.647   7.097   2.536 -0.2634  0.0752  0.2486
 6088W        W22349  19.302   7.445   2.523 -0.3546  0.1090 -0.2103
 6089W        W22350  17.013  18.222   0.447  0.2380  0.1088  0.0024
 6090W        W22351   4.623  14.907  11.675  0.2186  0.0776  0.1387
 6091W        W22352   8.083   8.952  10.417  0.1421  0.0476 -0.2687
 6092W        W22353  10.595  12.006  12.903 -0.4227 -0.0810 -0.3442
 6093W        W22354  12.639  10.616  10.507  0.1569  0.1424  0.0032
 6094W        W22355  10.064  17.156  14.660 -0.3625 -0.1097  0.1896
 6095W        W22356   8.105  17.913  13.648 -0.3620  0.1698  0.1803
 6096W        W22357   0.091  11.856   3.736 -0.1961  0.0919 -0.0445
 6097W        W22358   1.255  11.201  14.748 -0.1624 -0.1085 -0.0593
 6098W        W22359   2.184  19.448   9.778  0.0058  0.0819 -0.1510
 6099W        W22360  19.050   6.041   4.569 -0.1639 -0.1163 -0.1140
 6100W        W22361  10.888   4.159  12.998  0.1405  0.0130  0.0246
 6101W        W22362  11.121  15.153  14.110 -0.4336  0.0723  0.0749
 6102W        W22363  10.889  14.938   3.086  0.1048  0.1700 -0.1215
 6103W        W22364   6.058   0.666   1.705  0.0879  0.0226 -0.1742
 6104W        W22365   5.632  18.497   4.938 -0.1690  0.1500 -0.3247
 6105W        W22366  13.371  16.033   0.126  0.0648  0.3667  0.0293
 6106W        W22367  13.780   3.031   2.944  0.0143  0.1678 -0.4345
 6107W        W22368  13.424  13.433  14.044  0.1331  0.2077 -0.2400
 6108W        W22369   2.412  17.172  13.024  0.0728 -0.1499 -0.1050
 6109W        W22370   1.628  11.213  11.144  0.4751 -0.1071  0.1587
 6110W        W22371  10.862  16.935   0.250 -0.2747 -0.0476 -0.1977
 6111W        W22372   4.144  14.974   6.321 -0.0460 -0.0244 -0.1337
 6112W        W22373  15.179   9.218  14.078  0.0706  0.1590  0.0035
 6113W        W22374  15.422  13.202  13.832 -0.0651  0.1562  0.0595
 6114W        W22375  11.506  11.319  12.540  0.1184  0.2580  0.0080
 6115W        W22376  19.160   2.539   4.592  0.2629  0.0337 -0.2713
 6116W        W22377  11.259  16.852  13.720 -0.0407  0.0186 -0.2314
 6117W        W22378  10.026  18.179   5.485 -0.0761  0.1511 -0.3114
 6118W        W22379   9.871   5.002   3.615 -0.0609  0.0706  0.1775
 6119W        W22380   5.747  11.253   2.886 -0.0625 -0.1878  0.0569
 6120W        W22381  17.267   5.729  12.162 -0.0395 -0.0119  0.1997
 6121W        W22382   3.616  18.122  13.181  0.2038 -0.0577 -0.0494
 6122W        W22383   7.416  12.052   9.948 -0.1600 -0.1062  0.4908
 6123W        W22384   0.611   9.031  14.610 -0.0369 -0.1033 -0.1741
 6124W        W22385  17.943   1.273   4.221 -0.1690  0.2642  0.2299
 6125W        W22386   5.558   5.348   0.948  0.1771  0.2897  0.2286
 6126W        W22387   8.434  13.862  11.940  0.3199  0.2431  0.2374
 6127W        W22388  12.622   7.349   3.649  0.0578 -0.1723  0.2822
 6128W        W22389   7.931   6.202  12.883  0.1581  0.2006  0.1231
 6129W        W22390  12.634   8.230   0.216 -0.1610 -0.1338  0.0322
 6130W        W22391   5.346  14.987   0.490  0.2824  0.0522 -0.1743
 6131W        W22392  15.601  18.379   4.119  0.0206 -0.0821 -0.3899
 6132W        W22393   4.132  14.875  12.950  0.0293  0.0329  0.0058
 6133W        W22394  10.545  17.389  13.555  0.1304  0.1723 -0.0177
 6134W        W22395   1.892   7.732   1.152 -0.1736  0.1185  0.0659
 6135W        W22396  16.017  13.888  13.598 -0.0038  0.0295  0.0461
 6136W        W22397  17.626   0.496  11.286 -0.0320 -0.1355 -0.1053
 6137W        W22398  11.080   5.486   5.668  0.0482  0.0238  0.0520
 6138W        W22399  18.581  11.971   4.872 -0.3447 -0.1937 -0.1646
 6139W        W22400   3.893   6.575   3.479  0.1826  0.1118  0.0355
 6140W        W22401   6.318  17.844  12.182 -0.0277 -0.4923  0.3153
 6141W        W22402  14.626   0.100  10.524 -0.0434  0.0113 -0.0593
 6142W        W22403   0.857  13.282   2.984  0.0593 -0.1700 -0.2181
 6143W        W22404   2.880  17.249  10.787  0.0650 -0.1804 -0.1264
 6144W        W22405   2.017   0.411   0.515 -0.2410 -0.0329 -0.2173
 6145W        W22406  19.186   9.215  11.749  0.0280 -0.0952 -0.0632
 6146W        W22407  17.547   6.594  12.844 -0.0226  0.1881  0.2387
 6147W        W22408  15.033   9.116  13.608 -0.0509 -0.1920  0.2627
 6148W        W22409  10.384   8.373  10.588 -0.0515  0.0436 -0.1216
 6149W        W22410   5.743   9.524   4.825 -0.3557 -0.1096 -0.0733
 6150W        W22411   6.994  13.347  12.873  0.1097 -0.2566 -0.0164
 6151W        W22412   0.622   2.628   1.077  0.3090 -0.0189 -0.3880
 6152W        W22413  17.226  15.522  11.351 -0.2022 -0.1103 -0.1607
 6153W        W22414   0.048   0.333  14.654 -0.2113  0.1580 -0.4468
 6154W        W22415  16.998   6.215   2.911 -0.0919 -0.2617  0.2308
 6155W        W22416  12.972   4.768   5.674  0.2302  0.2001 -0.2935
 6156W        W22417   5.157  13.072  14.674  0.1497  0.0940  0.1098
 6157W        W22418   1.771  10.033   0.757 -0.1252 -0.2007 -0.2463
 6158W        W22419  16.411   7.358  14.632 -0.0781  0.2150  0.1848
 6159W        W22420  13.278   0.287  12.404 -0.2868 -0.0860 -0.1783
 6160W        W22421   4.493  17.723  10.472 -0.0722 -0.0741 -0.1667
 6161W        W22422  10.264   8.012   1.455  0.2120 -0.0427  0.0581
 6162W        W22423   9.038  16.076   4.004 -0.0622 -0.3246 -0.1112
 6163W        W22424  18.399  14.128   4.847 -0.0389  0.0818 -0.0278
 6164W        W22425   0.711  12.370  12.073 -0.2469 -0.0126  0.1699
 6165W        W22426   0.818   0.567  13.624 -0.0785 -0.1427 -0.1642
 6166W        W22427  17.239  16.484   2.271 -0.1015 -0.0860 -0.1502
 6167W        W22428   5.028  18.140  14.023  0.1635 -0.2883 -0.1140
 6168W        W22429  12.203  15.789  12.716 -0.1895 -0.1963  0.2143
 6169W        W22430  14.864  14.782   4.985  0.0810 -0.3775 -0.3974
 6170W        W22431  15.479   3.982   3.787 -0.1282  0.1054 -0.1784
 6171W        W22432   1.077   1.231   2.713  0.0241  0.0652  0.1493
 6172W        W22433   1.492   0.572   2.212 -0.1723 -0.3431  0.0024
 6173W        W22434  15.501  10.196   1.893  0.2491 -0.2453 -0.3866
 6174W        W22435  18.546  17.391  14.228  0.0427  0.0611  0.1398
 6175W        W22436   5.878  10.298   0.294  0.0396  0.0805  0.0510
 6176W        W22437  16.187  19.419   1.762  0.1920  0.1870 -0.1086
 6177W        W22438   5.108  12.664   2.072 -0.0373 -0.1793  0.1295
 6178W        W22439  13.389  12.665   2.342  0.0300 -0.3159  0.1756
 6179W        W22440   1.489   8.770  12.388  0.0943 -0.0763 -0.2368
 6180W        W22441  13.574  11.986  13.323  0.0559 -0.3420  0.2433
 6181W        W22442  15.580   2.343   4.142 -0.3702 -0.0657  0.3285
 6182W        W22443   1.862  17.036  14.017  0.1022  0.2974  0.0695
 6183W        W22444   5.595  15.145   5.460 -0.5020  0.1061 -0.0296
 6184W        W22445   8.625   5.461  13.011 -0.1705  0.2752 -0.0514
 6185W        W22446   3.122  11.469  10.701 -0.2952  0.4072 -0.1409
 6186W        W22447   7.169  13.028  10.637  0.2618  0.0139 -0.1456
 6187W        W22448  15.525   3.505  10.168 -0.0155 -0.0593 -0.0654
 6188W        W22449   7.882  12.844   9.970  0.2757 -0.0100 -0.0327
 6189W        W22450  11.331   0.916   3.010  0.1186  0.1653  0.0320
 6190W        W22451  12.032   6.031   4.757 -0.3763 -0.4112 -0.0717
 6191W        W22452   5.586  16.307  14.446  0.1469 -0.0543  0.1733
 6192W        W22453   4.715   4.447   1.640 -0.0654 -0.2528 -0.2800
 6193W        W22454   7.024  18.863   4.509  0.3090  0.1932  0.0264
 6194W        W22455   8.704   4.835  13.287  0.0845  0.0708  0.1549
 6195W        W22456   9.051   5.562  12.143 -0.0234 -0.0949  0.1800
 6196W        W22457   1.670   9.530   2.120 -0.1806 -0.0506 -0.1667
 6197W        W22458   5.013   1.250  12.731 -0.3276 -0.0373  0.0138
 6198W        W22459   4.879   4.773   2.529 -0.0639 -0.0294 -0.0587
 6199W        W22460  16.611   6.966   3.529  0.0522 -0.6639 -0.0556
 6200W        W22461   8.315  18.235  14.780 -0.0010  0.2804 -0.0275
 6201W        W22462   2.284  17.827  11.162 -0.1248 -0.0530  0.0995
 6202W        W22463   1.466   2.693  11.824  0.2934 -0.1715  0.3130
 6203W        W22464   5.806   9.407   3.312  0.0589  0.0608 -0.0247
 6204W        W22465   8.026  15.063  12.880 -0.2241  0.0528  0.0692
 6205W        W22466  12.568  18.129   0.172  0.0102 -0.2865 -0.0818
 6206W        W22467   6.936  12.425   5.445 -0.0455 -0.0307 -0.1282
 6207W        W22468   3.101   0.675   0.719  0.1514  0.2611  0.2031
 6208W        W22469  10.665  17.166  13.094 -0.2084  0.1161  0.2577
 6209W        W22470   7.933   4.190   4.544  0.5905 -0.1114  0.1974
 6210W        W22471  13.127   7.022   2.129  0.0835 -0.2943 -0.2078
 6211W        W22472  10.369   3.256   2.053 -0.2577  0.1159 -0.0289
 6212W        W22473   0.614  15.929  14.154  0.1770 -0.0172 -0.1236
 6213W        W22474   2.562  11.283  14.598 -0.1119 -0.2687 -0.1981
 6214W        W22475  10.392  18.690   3.607 -0.0624  0.2259 -0.2517
 6215W        W22476   8.089   2.613  11.510 -0.3048  0.2353 -0.1898
 6216W        W22477  12.119  11.264   2.735  0.2962 -0.3960 -0.1789
 6217W        W22478  17.324   7.651   0.099  0.4090 -0.0996  0.0240
 6218W        W22479   8.317  15.406  14.621  0.1126  0.0831 -0.0364
 6219W        W22480  13.922   5.065   4.514 -0.1132  0.2447  0.0188
 6220W        W22481   7.727   0.738  14.762  0.2509  0.0511 -0.1344
 6221W        W22482   7.764  10.871  12.998  0.2192 -0.0180  0.1493
 6222W        W22483   7.667   0.779   5.572 -0.1271  0.1013  0.3314
 6223W        W22484  13.943   6.252   5.574  0.2287  0.0532  0.2422
 6224W        W22485  15.100   0.434   0.783  0.4327  0.0608  0.0126
 6225W        W22486   1.145   9.523  10.897  0.1047  0.1439  0.0585
 6226W        W22487  10.870   1.655  14.169  0.3045  0.0956 -0.1951
 6227W        W22488   7.647  14.414  12.062 -0.1463 -0.0773 -0.0963
 6228W        W22489   8.615  13.594   1.057 -0.0094  0.0426  0.0256
 6229W        W22490  12.079   9.290  13.128  0.1033 -0.1701  0.1184
 6230W        W22491   8.519  17.693   1.549  0.0645 -0.1737 -0.1948
 6231W        W22492   7.591   7.926   3.262 -0.0895  0.1544  0.1320
 6232W        W22493   9.348   7.407  12.601 -0.0060 -0.2306 -0.1617
 6233W        W22494   0.584   1.292   4.641  0.4039 -0.2120  0.0479
 6234W        W22495  17.428  18.102  14.822 -0.2132 -0.0699  0.2600
 6235W        W22496  18.494  14.965   3.834 -0.1631  0.2208 -0.2134
 6236W        W22497  13.896   3.208   2.125  0.1071  0.2619  0.2031
 6237W        W22498   1.196   3.440  13.223 -0.0742  0.2678  0.2771
 6238W        W22499   5.826   3.196   4.661 -0.1446 -0.1498 -0.1436
 6239W        W22500   0.208  17.787   1.288  0.0115  0.0265 -0.2812
 6240W        W22501  15.559   8.841  10.151 -0.0477  0.2673 -0.0722
 6241W        W22502  18.792  10.194  14.881 -0.0964  0.1501  0.2205
 6242W        W22503  16.906  15.154  11.850  0.2722 -0.3768 -0.2578
 6243W        W22504   8.436  13.702  10.534  0.1425 -0.2256  0.0267
 6244W        W22505  17.145  12.872  11.309 -0.1148 -0.3173  0.2295
 6245W        W22506  13.204   9.165  14.519  0.0788 -0.0894  0.1737
 6246W        W22507   1.878   2.135  12.450 -0.1398  0.2642  0.3941
 6247W        W22508   6.079  15.243   0.910  0.1772 -0.3203  0.3401
 6248W        W22509   1.921   3.888   6.021 -0.1135 -0.2075  0.1042
 6249W        W22510  14.548  19.141  10.221 -0.2302 -0.1593 -0.3355
 6250W        W22511   8.381   4.784   3.520  0.2247  0.2981  0.0072
 6251W        W22512   6.785   6.481   4.412 -0.2429  0.0336  0.1554
 6252W        W22513  13.815  11.451  11.460  0.2109 -0.0297  0.1971
 6253W        W22514   9.187  12.926   3.791 -0.0673  0.0128 -0.0201
 6254W        W22515  14.797  17.819   0.032  0.1134 -0.0058  0.0778
 6255W        W22516  10.102  13.027  12.316 -0.2316  0.0701 -0.4765
 6256W        W22517   0.227  15.501  11.973 -0.2568  0.1677  0.0819
 6257W        W22518  13.649   1.388   0.979 -0.2204 -0.1662  0.1978
 6258W        W22519  13.440  11.368   0.037  0.0595  0.3243 -0.2940
 6259W        W22520   1.473   3.811   5.818 -0.1378 -0.1891  0.3815
 6260W        W22521  18.113  13.202  11.908 -0.1251 -0.1495 -0.3393
 6261W        W22522  14.373   3.649  11.404  0.0928 -0.1614 -0.2206
 6262W        W22523   8.903  15.937  10.701  0.1699  0.3902  0.4832
 6263W        W22524  15.361   9.671  14.163  0.1624  0.0348  0.0665
 6264W        W22525  14.618   3.180   3.562  0.5068 -0.0522  0.3321
 6265W        W22526   8.215   5.022  13.266  0.3306  0.0012  0.1704
 6266W        W22527  13.790   6.164  14.878 -0.0754 -0.1740 -0.0216
 6267W        W22528  11.458  18.476  14.564  0.1727  0.2032 -0.2565
 6268W        W22529   1.391  14.925   1.049  0.0847 -0.2382  0.0427
 6269W        W22530  14.479   8.467  11.117  0.1327  0.1846  0.2458
 6270W        W22531   2.691  10.772  14.496 -0.1084 -0.0523  0.0836
 6271W        W22532  17.777   7.485  13.574  0.0580 -0.0224 -0.0081
 6272W        W22533   7.299   2.487  14.372 -0.1260 -0.0414 -0.1992
 6273W        W22534  13.220   5.184   0.150  0.1418 -0.2576 -0.1938
 6274W        W22535   9.821  17.142   1.909  0.0323  0.1276 -0.0235
 6275W        W22536   9.987  13.881   4.760  0.0221  0.1639 -0.2277
 6276W        W22537   0.441   5.768   4.868  0.1053  0.0363  0.2656
 6277W        W22538   0.389   1.138   1.746  0.1563 -0.2598  0.1003
 6278W        W22539   1.996  12.931   0.610 -0.0308  0.0874 -0.0147
 6279W        W22540  18.803   0.430  13.785  0.1649  0.1273 -0.0451
 6280W        W22541  14.967   4.425   2.325  0.0002 -0.1094 -0.2306
 6281W        W22542   3.712  15.026   4.836 -0.1800 -0.0064 -0.1047
 6282W        W22543  10.376  14.186  12.738  0.0191  0.2292 -0.2102
 6283W        W22544   9.552   1.860   0.949  0.0390  0.1870 -0.0461
 6284W        W22545   2.315  17.363   5.359 -0.0398 -0.0613  0.0190
 6285W        W22546   3.343  16.991  12.663  0.0004  0.0421  0.0725
 6286W        W22547  11.168   2.690  11.284 -0.0832 -0.0486 -0.0435
 6287W        W22548   1.352   6.414  13.873  0.0180  0.3165  0.2957
 6288W        W22549   6.894   7.056   1.514 -0.3088  0.4109  0.1662
 6289W        W22550  10.284  14.048   0.312 -0.1009  0.1551 -0.0261
 6290W        W22551   0.757  16.666   3.501  0.3363  0.1546 -0.0457
 6291W        W22552  15.745   0.451   4.948 -0.0721 -0.1205  0.0360
 6292W        W22553   5.076  13.077   4.672  0.3245  0.2911 -0.2266
 6293W        W22554   6.468  15.231   4.745  0.1265  0.1990  0.0172
 6294W        W22555  19.194  16.052  13.932 -0.1155  0.1553  0.2680
 6295W        W22556   7.459  10.967   2.751  0.3168 -0.1405 -0.2847
 6296W        W22557  15.949  17.372  12.858  0.0166  0.2971 -0.2484
 6297W        W22558   9.422  10.477   2.387 -0.3309 -0.3143 -0.2053
 6298W        W22559  10.449   0.306   2.150 -0.3980 -0.3511 -0.2775
 6299W        W22560   9.709   0.444  10.012 -0.0448  0.2610  0.1052
 6300W        W22561  17.322   7.073  11.528  0.0990 -0.3261 -0.0938
 6301W        W22562  13.901  13.411  12.363  0.0204 -0.0693  0.1987
 6302W        W22563  14.546  13.511   2.069 -0.0214 -0.0849  0.1385
 6303W        W22564   7.179   6.228  14.323 -0.3047 -0.0938  0.1669
 6304W        W22565   5.162   2.545   3.478  0.1347  0.0712 -0.1574
 6305W        W22566  10.760  14.873  10.845  0.0129  0.2724 -0.0691
 6306W        W22567  12.234  19.404   4.710 -0.2190  0.0683  0.4075
 6307W        W22568   9.417  13.613   1.278 -0.2621  0.0578  0.1166
 6308W        W22569  17.428  17.125   4.198  0.1903  0.2351 -0.1295
 6309W        W22570  12.027   3.974   3.718 -0.1565 -0.3688 -0.0973
 6310W        W22571  16.583   6.616   1.498 -0.0808  0.4311 -0.0355
 6311W        W22572   2.526   3.554  14.609  0.5673 -0.3472  0.0035
 6312W        W22573   9.020   2.034  14.316  0.0888 -0.0811  0.3025
 6313W        W22574  15.164   4.800   1.303 -0.0146 -0.0942  0.0388
 6314W        W22575   8.630   8.614   4.659  0.1598  0.4943  0.0125
 6315W        W22576   6.891  16.443   2.985 -0.3958 -0.4104  0.0912
 6316W        W22577  11.935  13.915  14.010  0.0432 -0.1528  0.0797
 6317W        W22578  10.168   4.574   4.998  0.2285 -0.5315 -0.0565
 6318W        W22579   3.128  13.772   0.866 -0.1817  0.1632  0.0024
 6319W        W22580   1.112   0.527   0.596  0.0680  0.1195 -0.0374
 6320W        W22581   2.818  11.451   0.145  0.0079  0.1207  0.1226
 6321W        W22582  10.844  12.056  13.345  0.0554  0.1106 -0.1651
 6322W        W22583  15.131  18.934   0.705 -0.1416 -0.0961  0.2411
 6323W        W22584   5.990  12.633   3.088  0.1677  0.0201  0.0830
 6324W        W22585  10.238   7.037  14.455 -0.1782  0.0013 -0.2699
 6325W        W22586   6.964   5.122   5.226  0.1817  0.0846  0.0647
 6326W        W22587  17.773   0.709   5.248 -0.2310 -0.2245 -0.1012
 6327W        W22588   8.016   0.691  10.887  0.0125  0.3171 -0.3622
 6328W        W22589  13.382   8.226   2.629  0.2053  0.1531  0.0832
 6329W        W22590  14.594   7.236  10.901  0.1275 -0.0475  0.0780
 6330W        W22591   3.698   6.632  12.212 -0.1691  0.1681 -0.3951
 6331W        W22592  11.234  16.881   2.518  0.0548  0.1801 -0.0598
 6332W        W22593   8.398  15.385  13.124  0.0128  0.0935 -0.2870
 6333W        W22594  18.977  17.995   2.519  0.2179  0.1043 -0.1267
 6334W        W22595  10.993  12.487   3.739 -0.1156  0.0368 -0.0024
 6335W        W22596  12.047   1.010  12.680  0.0576  0.0881 -0.1652
 6336W        W22597   5.391   9.207   1.200  0.1352 -0.2186 -0.2317
 6337W        W22598  18.093  14.438  10.489 -0.1296  0.1794 -0.3012
 6338W        W22599   0.500   3.401   2.559  0.1310  0.1447  0.2494
 6339W        W22600  14.949  13.104  12.559 -0.0249 -0.2752  0.0963
 6340W        W22601   1.391  11.867   1.125 -0.5496 -0.1292  0.5575
 6341W        W22602  18.963   2.707   0.206 -0.3990  0.1653 -0.0745
 6342W        W22603   3.925  13.902   1.906  0.1037 -0.0192 -0.0054
 6343W        W22604  18.126   5.471   1.723 -0.2672  0.1684 -0.2476
 6344W        W22605  14.999  11.697   2.011  0.1208  0.2031  0.2610
 6345W        W22606  13.246   2.750  10.220  0.1330  0.2157 -0.1169
 6346W        W22607   9.461  12.000  14.459 -0.1329  0.1052  0.2439
 6347W        W22608   0.550   0.278   2.119 -0.2570 -0.0083  0.2881
 6348W        W22609   5.040   7.937   9.790 -0.0007  0.1039 -0.2555
 6349W        W22610  16.584   0.396  13.813  0.2060 -0.3372  0.4170
 6350W        W22611   5.577  17.004   1.575  0.2104  0.2404 -0.0584
 6351W        W22612  14.123  15.711  12.579  0.2466  0.3480 -0.0683
 6352W        W22613  13.640   2.834   9.770  0.2636 -0.2182  0.3650
 6353W        W22614   7.050  16.881   5.076  0.2460 -0.0096 -0.1206
 6354W        W22615  18.100  18.694   2.622  0.0199 -0.0927  0.2461
 6355W        W22616   6.798   5.344   4.402 -0.0963 -0.0328  0.0844
 6356W        W22617   8.709   1.379   2.280  0.1531  0.0824 -0.0278
 6357W        W22618  11.542   8.606   0.079  0.1073  0.0565  0.0627
 6358W        W22619  16.987  15.913   0.198 -0.0785 -0.0250  0.1019
 6359W        W22620  14.345  15.844   9.872 -0.3544 -0.1171  0.1641
 6360W        W22621  11.883  12.686   3.879  0.0231  0.0076 -0.1625
 6361W        W22622  11.666  16.613   2.007  0.1801  0.0493  0.1445
 6362W        W22623   9.020  13.063   2.382  0.0367  0.4574  0.1026
 6363W        W22624   9.998   1.631   4.392  0.1269  0.1368 -0.3356
 6364W        W22625   2.530  13.638   5.097 -0.0994 -0.1103 -0.0083
 6365W        W22626  13.269  10.249  14.667 -0.0260 -0.1344 -0.0825
 6366W        W22627  19.452  18.913   1.482  0.0616 -0.0397 -0.2186
 6367W        W22628   9.334  11.502   1.487 -0.1428  0.2297  0.0773
 6368W        W22629   5.193   0.739   5.214  0.1892 -0.0927  0.0785
 6369W        W22630  12.536  15.632   0.165 -0.1581 -0.1447  0.1739
 6370W        W22631   2.214  11.925   1.433  0.2891  0.1697  0.0950
 6371W        W22632   1.522   1.184   1.354 -0.1675  0.3494 -0.1426
 6372W        W22633   5.717  12.619  13.264 -0.0290  0.4768 -0.2500
 6373W        W22634   3.311  16.515  11.883 -0.1754  0.0530  0.0986
 6374W        W22635   9.968   8.379  12.159  0.1829  0.0242 -0.2589
 6375W        W22636  16.124   8.731  11.914  0.3702  0.0033  0.0863
 6376W        W22637  14.555  13.925  13.096 -0.0194 -0.2013 -0.2679
 6377W        W22638   8.541   3.439   2.282 -0.0335  0.0038  0.0532
 6378W        W22639   3.043  14.982  13.556  0.1951 -0.0246 -0.2558
 6379W        W22640   5.757   7.780  12.017  0.0731 -0.1739  0.1552
 6380W        W22641   7.882   1.503  10.734 -0.0101  0.0435  0.1550
 6381W        W22642  13.714   1.279  14.454  0.0520 -0.3949  0.0266
 6382W        W22643  18.063  17.582  12.451 -0.1442  0.0311  0.3151
 6383W        W22644   8.148  10.365  10.566 -0.1350 -0.1558  0.0506
 6384W        W22645  13.640   4.390  11.013  0.1692  0.0875  0.0301
 6385W        W22646  15.547   8.829  14.835  0.2096  0.0341  0.1765
 6386W        W22647   5.492   5.040  12.900 -0.0811  0.0680 -0.1102
 6387W        W22648  10.409  18.043   5.229 -0.0585 -0.2039  0.0355
 6388W        W22649   1.519   0.714  12.993 -0.0272 -0.2919 -0.1147
 6389W        W22650   0.798  15.706   4.432  0.1145  0.2409 -0.0470
 6390W        W22651  12.255  10.288  14.207 -0.5751  0.0584 -0.0900
 6391W        W22652  14.328  14.284   1.813  0.1254 -0.1426 -0.0403
 6392W        W22653  17.535   3.237   4.822 -0.0040 -0.1610 -0.1085
 6393W        W22654  10.401   3.898   4.630  0.3023 -0.2962  0.0818
 6394W        W22655  16.354   0.043  13.528  0.1097  0.1906 -0.2448
 6395W        W22656  18.947   9.693   1.444  0.2299 -0.2226 -0.0745
 6396W        W22657   0.967  11.647  11.149  0.3111 -0.3533 -0.0057
 6397W        W22658   4.816  15.491  12.586  0.2591  0.0491 -0.1934
 6398W        W22659  13.923  17.404  13.526  0.2129  0.0145 -0.2185
 6399W        W22660  11.333   2.929   5.197 -0.4313 -0.1437 -0.1274
 6400W        W22661  12.494  13.630  13.165 -0.2352  0.3152 -0.0719
 6401W        W22662  16.324  16.538  10.473  0.2094 -0.2008 -0.2432
 6402W        W22663   6.889   9.904  10.290 -0.0277 -0.0670  0.0310
 6403W        W22664   8.629  14.655   1.217 -0.0433 -0.0894 -0.0259
 6404W        W22665  17.638   8.274   4.470 -0.1713  0.0570  0.1599
 6405W        W22666  17.136   1.020  14.067 -0.0411 -0.1163 -0.2732
 6406W        W22667   9.540  12.946  12.899 -0.2146  0.1232 -0.2680
 6407W        W22668  13.262  10.442   5.106  0.3730 -0.3372  0.0004
 6408W        W22669  16.799  19.128   3.740  0.2030 -0.0792  0.1730
 6409W        W22670  15.381  11.609  14.812  0.0685  0.1694  0.2318
 6410W        W22671   5.714   3.790  14.662 -0.1348 -0.0360 -0.1685
 6411W        W22672   7.357  10.829  12.727  0.1072 -0.0611  0.0553
 6412W        W22673  10.470   9.605  13.648  0.4730  0.2289 -0.0313
 6413W        W22674  16.401   4.045   3.246  0.1129  0.0198  0.0912
 6414W        W22675  13.494   7.359  14.101  0.1137  0.1686 -0.3004
 6415W        W22676  11.960  10.614  13.888 -0.3487 -0.3978 -0.1083
 6416W        W22677  12.730  10.773  11.825  0.0391  0.0844  0.0054
 6417W        W22678   8.322   4.451   3.164  0.2645  0.1863 -0.1135
 6418W        W22679   2.236  18.726  13.032  0.4411 -0.0024  0.0023
 6419W        W22680   0.420  18.960   2.662 -0.0043  0.0363  0.0396
 6420W        W22681   0.531  16.381  14.292 -0.1836 -0.1048 -0.2873
 6421W        W22682   0.234   1.951  12.014 -0.0271  0.0391 -0.0075
 6422W        W22683  17.691  10.443  12.316 -0.3965 -0.4810 -0.3171
 6423W        W22684  15.613   5.051  10.799 -0.1146 -0.0821 -0.1505
 6424W        W22685  13.932  17.960  14.760 -0.3186 -0.0558  0.0787
 6425W        W22686   2.847   5.192  12.131  0.1338 -0.1415 -0.0464
 6426W        W22687   8.618   3.588   3.404 -0.0717  0.0865 -0.0990
 6427W        W22688   9.867   7.300  12.765  0.0504 -0.1107  0.1873
 6428W        W22689  17.734  18.639   0.747  0.0628  0.2164  0.2799
 6429W        W22690  11.163  17.256  13.074  0.2041  0.3444 -0.0822
 6430W        W22691  12.209   2.672  10.608  0.1104 -0.0497 -0.0150
 6431W        W22692   2.849   1.739   1.638  0.1997 -0.3998  0.2579
 6432W        W22693  14.329   0.479   4.452 -0.1563  0.2863  0.2578
 6433W        W22694  10.605  16.553   3.842 -0.1677 -0.0170 -0.1052
 6434W        W22695  11.486   4.729   4.983 -0.0804 -0.0323 -0.2392
 6435W        W22696   9.721  17.561   5.072 -0.2107 -0.0023 -0.2319
 6436W        W22697  19.119   3.555   4.388 -0.1100  0.5837 -0.2402
 6437W        W22698  15.586   3.030   2.393 -0.0663  0.2936  0.1759
 6438W        W22699  18.587  17.329   0.459  0.1630 -0.3295 -0.2454
 6439W        W22700  16.141   9.432   1.778  0.1699 -0.1386  0.0353
 6440W        W22701  11.804  18.730   1.922  0.0252  0.0336  0.1095
 6441W        W22702  19.337   2.659  11.462  0.2590 -0.0768  0.2187
 6442W        W22703   1.881  16.190   1.120 -0.1442  0.0288 -0.3969
 6443W        W22704   3.104  11.187   0.496  0.1156 -0.2930  0.1536
 6444W        W22705  13.836   0.774   0.778  0.5220  0.2448  0.2721
 6445W        W22706  11.503   6.186   5.277  0.2125  0.1599  0.1165
 6446W        W22707  12.955   3.456  12.353 -0.1380  0.0071  0.2676
 6447W        W22708  17.606  11.626  14.446 -0.2195  0.1898 -0.1942
 6448W        W22709  19.292  18.745   5.101  0.0091 -0.0716  0.1571
 6449W        W22710  11.656  15.366  12.748 -0.0248  0.0498 -0.1183
 6450W        W22711   1.779   5.899   1.716 -0.0340  0.2082 -0.0592
 6451W        W22712   9.404   0.073  12.041  0.0458  0.0654  0.1341
 6452W        W22713   0.994   3.180  13.736  0.1799  0.0233 -0.1469
 6453W        W22714  13.526   9.860  14.533 -0.2104  0.0216 -0.0342
 6454W        W22715   1.564   2.241  13.964 -0.2076 -0.0388  0.0087
 6455W        W22716   0.353  17.378  13.176 -0.0819  0.0726  0.0943
 6456W        W22717  17.523   4.038   3.023  0.0434 -0.1106  0.1920
 6457W        W22718  10.478  15.837  14.623 -0.2329 -0.4252 -0.1465
 6458W        W22719  13.418  15.630   4.722  0.2424  0.4389 -0.0074
 6459W        W22720   3.066   0.156   6.129  0.0018  0.1104  0.0121
 6460W        W22721   7.001  10.302   1.752  0.2294  0.1231 -0.2759
 6461W        W22722   5.723  14.472   2.242 -0.0404 -0.0394 -0.0028
 6462W        W22723   0.097   8.934  14.687  0.0006 -0.3217  0.0125
 6463W        W22724   2.245  12.174   3.549 -0.0335 -0.0991 -0.1122
 6464W        W22725   9.357   7.720  13.915  0.0583 -0.1806 -0.1435
 6465W        W22726   0.909  12.874  13.689 -0.2320  0.0760  0.4022
 6466W        W22727  17.808   0.723   3.100 -0.2702  0.1270  0.3754
 6467W        W22728   3.795   4.504   1.744 -0.0083 -0.0036 -0.0842
 6468W        W22729   2.388   9.367   1.886 -0.0085 -0.3075 -0.0999
 6469W        W22730  15.178   7.707   3.564 -0.2755  0.0635 -0.0437
 6470W        W22731  15.066  14.083  10.178 -0.3521 -0.1088 -0.4097
 6471W        W22732   3.320  15.456   1.673 -0.0067  0.1875  0.0482
 6472W        W22733  11.797  17.672   3.593 -0.0432  0.0707 -0.0082
 6473W        W22734  18.341  18.644  13.576 -0.2578 -0.2469 -0.3340
 6474W        W22735  11.180   4.566  12.889 -0.1531 -0.0053  0.0232
 6475W        W22736   0.577   1.108  12.020  0.2096 -0.1541  0.2968
 6476W        W22737   4.450   3.990  10.712 -0.1065 -0.1442  0.4745
 6477W        W22738  17.090   7.551   3.461 -0.2344  0.3383 -0.2171
 6478W        W22739   0.477   6.351  11.270 -0.4445 -0.2583 -0.2720
 6479W        W22740   8.039   0.934   4.206 -0.1469  0.0279 -0.0619
 6480W        W22741  12.917  10.918   2.777 -0.0678 -0.0754 -0.0456
 6481W        W22742  16.392  10.849  14.461 -0.1117  0.0496  0.0234
 6482W        W22743   7.345  15.408   3.281 -0.0677  0.0736  0.0736
 6483W        W22744   9.223   3.368   4.201  0.2832  0.0035  0.0854
 6484W        W22745   8.778   2.897  10.795  0.1411 -0.0074  0.0899
 6485W        W22746  14.398  10.702  10.438  0.0820  0.1508  0.1195
 6486W        W22747   1.626  14.363  10.736  0.2340  0.1330  0.0106
 6487W        W22748  17.371  18.377   2.862 -0.2027  0.1509  0.0267
 6488W        W22749  13.686  14.503   0.759  0.0457  0.0209  0.1813
 6489W        W22750  18.488   5.259   4.197  0.1435  0.0580  0.0260
 6490W        W22751   4.012   8.841   1.302 -0.0544  0.3988 -0.2584
 6491W        W22752   6.115  11.952  10.672  0.0340  0.1965 -0.1572
 6492W        W22753  19.325   4.302   0.249 -0.0438  0.0127 -0.1579
 6493W        W22754   4.916   1.421   5.852  0.3406 -0.3104 -0.0259
 6494W        W22755  15.739   1.145   0.901 -0.2203 -0.0534  0.0605
 6495W        W22756   7.460  11.958  14.720 -0.2882  0.1893  0.0072
 6496W        W22757  17.900  11.781  10.000  0.0780  0.1157  0.1114
 6497W        W22758   3.695   0.556  14.439 -0.1921 -0.0234  0.2232
 6498W        W22759  13.910  12.049   3.825  0.0186  0.1290 -0.1574
 6499W        W22760   1.223   0.055  11.432 -0.1719  0.2121  0.3503
 6500W        W22761  10.126   7.428   0.626  0.0495 -0.1796  0.1004
 6501W        W22762   2.498  13.540   4.621  0.0044 -0.2377  0.3577
 6502W        W22763  16.805   3.931   1.336 -0.2425 -0.2031 -0.2576
 6503W        W22764   2.457  17.175   6.105  0.1206  0.0459 -0.2174
 6504W        W22765   0.126   0.342   1.272 -0.1275 -0.2725 -0.2542
 6505W        W22766   6.980  14.132  14.273  0.1798 -0.0291 -0.0475
 6506W        W22767  12.666  17.570  13.812  0.0702 -0.3021 -0.0606
 6507W        W22768   8.099   9.956   3.538 -0.0202  0.1733  0.2217
 6508W        W22769  16.939  18.311  12.793  0.0953  0.3282 -0.2516
 6509W        W22770   4.683  13.684   2.928 -0.0246 -0.0786  0.0594
 6510W        W22771   3.198  12.705  12.576  0.2900  0.1005 -0.0248
 6511W        W22772  17.460   9.441   1.048  0.0941  0.1545  0.0920
 6512W        W22773  11.749   5.226  13.275  0.0232 -0.1667 -0.0658
 6513W        W22774   3.185   4.867   3.840  0.0667  0.0884  0.1652
 6514W        W22775  11.498   6.481   1.461 -0.0827 -0.0146  0.1299
 6515W        W22776   6.697   9.397  10.606 -0.3457 -0.0634 -0.2872
 6516W        W22777   7.685   8.598   1.041  0.0117  0.1834  0.1273
 6517W        W22778  11.738   0.172  12.633 -0.1652 -0.3690  0.0783
 6518W        W22779   0.945  16.149   4.181  0.1142 -0.1586  0.1010
 6519W        W22780   6.817   0.132   0.404  0.0626 -0.0673 -0.2153
 6520W        W22781  13.926   5.078   2.177  0.0791 -0.1115 -0.2034
 6521W        W22782  18.429  16.331   0.805  0.3489  0.0304 -0.0188
 6522W        W22783  13.331  16.719   3.123 -0.0737 -0.0466 -0.2179
 6523W        W22784  12.375  17.977   1.539 -0.2496  0.0091 -0.2337
 6524W        W22785   4.308  13.116   4.289  0.2755 -0.3166  0.1615
 6525W        W22786   7.340   3.203   4.791  0.1506 -0.2564  0.1665
 6526W        W22787  16.352   1.821   2.385 -0.1736  0.0335 -0.0043
 6527W        W22788   5.580   7.237   2.021  0.0342 -0.0594  0.0460
 6528W        W22789  14.955   3.136  13.468  0.1408  0.0225  0.2451
 6529W        W22790   9.270  14.084   3.396  0.1766  0.0820 -0.1113
 6530W        W22791  16.267  15.718   2.374 -0.1892 -0.0592 -0.3568
 6531W        W22792   2.721   0.055   2.262 -0.1215  0.0812 -0.1508
 6532W        W22793  12.903   7.622  12.778 -0.1644  0.1186 -0.0390
 6533W        W22794  18.726   3.914  11.138 -0.2079 -0.2655  0.2227
 6534W        W22795   9.228  14.203   5.375 -0.0840  0.1415  0.1545
 6535W        W22796   5.677  10.438  11.628 -0.1016  0.2334 -0.0829
 6536W        W22797   8.608   6.250   1.648  0.1089  0.2046  0.2214
 6537W        W22798  11.175  12.416  14.324 -0.4134  0.0747  0.1872
 6538W        W22799   0.818  12.865   2.558  0.3271 -0.1408  0.0664
 6539W        W22800  17.684   4.778  13.874  0.0457 -0.1547 -0.0019
 6540W        W22801  13.615   0.039  14.185 -0.0237  0.4098  0.0110
 6541W        W22802   6.517   3.998  13.929  0.0701 -0.1500  0.0162
 6542W        W22803   1.059   4.353  12.624  0.0182 -0.0747  0.1866
 6543W        W22804  10.963  14.566   1.734  0.0212 -0.0310 -0.0698
 6544W        W22805   1.146  10.466  13.221  0.3718 -0.1611 -0.1601
 6545W        W22806   9.137  13.618  10.448 -0.0351  0.0676  0.0735
 6546W        W22807   4.304  10.554  12.063  0.0786  0.0214 -0.0549
 6547W        W22808   5.373   2.776  13.898  0.1190  0.3008 -0.2953
 6548W        W22809   4.452  16.986  12.588  0.3454 -0.0721 -0.0678
 6549W        W22810  12.470   9.371  10.821  0.1779 -0.0486  0.1706
 6550W        W22811   3.142  17.888   1.845 -0.3578  0.1061 -0.0002
 6551W        W22812  14.664  15.354  13.045 -0.0445 -0.1002  0.2937
 6552W        W22813   0.190   9.560  12.099  0.1530 -0.1190 -0.1324
 6553W        W22814   0.618   7.347   4.447 -0.0580 -0.0201 -0.1182
 6554W        W22815   4.194   9.333  12.408  0.0817  0.0320 -0.0736
 6555W        W22816   0.613   1.086   3.520 -0.0476  0.1035  0.1807
 6556W        W22817   9.651  18.998   3.062  0.3378  0.1150  0.0576
 6557W        W22818   3.251   6.460   0.070  0.0322 -0.0625  0.2593
 6558W        W22819   7.519  11.696   1.963  0.1099  0.3231 -0.1471
 6559W        W22820  13.221   0.662  11.558  0.4124 -0.1539 -0.0612
 6560W        W22821   0.640  10.296  10.542 -0.2605  0.1480  0.0327
 6561W        W22822   0.286  12.725  12.588 -0.1868  0.1433 -0.0262
 6562W        W22823   6.010  17.751   0.360  0.0110 -0.0918 -0.1430
 6563W        W22824   1.930   1.290  12.072 -0.2093 -0.1059 -0.1912
 6564W        W22825   5.645   4.242  11.277 -0.0390 -0.0874 -0.1348
 6565W        W22826   6.928  17.834  14.453  0.2839  0.3312 -0.4182
 6566W        W22827  10.732  19.055   2.824 -0.1979  0.1620  0.2456
 6567W        W22828   6.342  14.334   2.765  0.1566 -0.1490 -0.2500
 6568W        W22829   0.981   7.896   4.597  0.0700 -0.2312  0.3140
 6569W        W22830   1.017   3.045   2.826  0.1447  0.2643 -0.4355
 6570W        W22831   0.530   3.963  12.024  0.0922  0.0544 -0.3092
 6571W        W22832   5.002   6.438   0.746  0.2156 -0.0698  0.2174
 6572W        W22833   0.632  18.766   3.787  0.0023  0.0920 -0.0227
 6573W        W22834  10.109  15.069  12.491  0.1185 -0.0395 -0.1226
 6574W        W22835  14.871  13.982   0.914  0.2294 -0.2125  0.2340
 6575W        W22836   8.775  15.401   2.756 -0.0815  0.1979  0.2347
 6576W        W22837   4.237   2.189  14.043  0.3038 -0.1730 -0.0530
 6577W        W22838   4.358  18.286  13.879  0.1489  0.3181  0.2060
 6578W        W22839   3.940   1.604   4.500  0.0135 -0.2212 -0.0204
 6579W        W22840  16.627  14.490   1.653 -0.2307 -0.1910  0.1981
 6580W        W22841   3.679  10.596  10.772 -0.1205  0.1697  0.0270
 6581W        W22842   4.481   7.705   2.308  0.0033 -0.1480  0.0171
 6582W        W22843  12.991   0.460   3.644  0.1478  0.2684  0.0757
 6583W        W22844  11.321  17.654  12.532  0.0172 -0.0755 -0.1453
 6584W        W22845   6.563   6.059   0.552  0.1073  0.1435 -0.4227
 6585W        W22846   8.745   9.226  10.947  0.2278 -0.1721 -0.3111
 6586W        W22847   5.676  11.628   2.044 -0.0983 -0.1702  0.1194
 6587W        W22848  15.913   1.797   4.245  0.1555 -0.0292 -0.3405
 6588W        W22849  17.048  11.149   3.596  0.0952  0.0892 -0.3854
 6589W        W22850   3.907  13.776  11.673 -0.0268  0.1949 -0.0537
 6590W        W22851  16.185   6.653  10.341  0.0974  0.3601  0.2253
 6591W        W22852  18.610   5.838  10.551  0.0560 -0.0199 -0.2114
 6592W        W22853   1.103   7.176   0.772 -0.0404  0.0295 -0.0647
 6593W        W22854  12.977  14.346  11.985 -0.0523  0.1065  0.2438
 6594W        W22855   0.691  14.985  11.852  0.1613 -0.2416  0.2749
 6595W        W22856  14.041  16.013   9.532 -0.0159  0.0927  0.2239
 6596W        W22857   0.425   5.271  13.695 -0.0059 -0.1050 -0.0726
 6597W        W22858   0.933   1.143  14.722 -0.1410  0.1662 -0.0709
 6598W        W22859   7.561  14.045   4.825 -0.0177  0.0324 -0.1001
 6599W        W22860   4.295  14.579  14.730 -0.2633 -0.0365 -0.2081
 6600W        W22861   2.958   6.413  11.370 -0.1161  0.1373 -0.3893
 6601W        W22862  14.895   9.226   2.990 -0.0685 -0.0864  0.2730
 6602W        W22863  15.632  16.803  14.770  0.2039  0.0193 -0.0564
 6603W        W22864   7.545  19.171  10.904  0.0412  0.4296  0.1463
 6604W        W22865  10.292   7.905   2.816 -0.0373  0.3215 -0.3334
 6605W        W22866   4.284   0.750  10.910  0.1921 -0.0938 -0.2595
 6606W        W22867  14.461   5.700   3.503  0.5945  0.0825 -0.1277
 6607W        W22868  18.476  17.947   1.091  0.0115 -0.0591  0.1023
 6608W        W22869   8.711   8.994  13.331 -0.2805  0.0901 -0.0697
 6609W        W22870   5.130   1.300  10.428  0.2912 -0.1810 -0.1205
 6610W        W22871  14.227  17.940   0.352  0.1510 -0.3013 -0.0487
 6611W        W22872  19.162  17.678   0.014 -0.1159 -0.1587 -0.3998
 6612W        W22873  14.004  13.910   0.029 -0.2345 -0.1397 -0.0780
 6613W        W22874   7.263   8.509   1.353 -0.0669  0.1466  0.4571
 6614W        W22875   7.862  14.814  13.755 -0.3119  0.2369 -0.2620
 6615W        W22876   8.869   9.145  12.863 -0.1900  0.0359  0.2038
 6616W        W22877   0.129   0.961   3.738 -0.0624  0.1584  0.1816
 6617W        W22878   1.455  16.849   2.238 -0.1564  0.0311  0.1854
 6618W        W22879  13.380  14.945  10.708  0.0317 -0.0795  0.1419
 6619W        W22880   9.618  19.003  12.862  0.0830  0.0082  0.2807
 6620W        W22881  17.581   9.959   1.220 -0.0493 -0.0535  0.2585
 6621W        W22882   2.741  13.468  12.063 -0.1133 -0.3061  0.1131
 6622W        W22883   0.967  18.182   3.034 -0.0626  0.0680 -0.1417
 6623W        W22884   6.360  18.746  11.844 -0.1598  0.1991 -0.0175
 6624W        W22885   6.382  17.731   0.732 -0.0255 -0.0814 -0.1044
 6625W        W22886   0.846   2.481   1.468 -0.0127 -0.1374  0.0447
 6626W        W22887  10.469  14.947   5.263  0.1729 -0.4182 -0.1372
 6627W        W22888  10.024  17.665   5.466  0.2195  0.1594  0.0460
 6628W        W22889  14.130  15.078   2.952  0.1321 -0.0114 -0.0384
 6629W        W22890  18.467   4.194   4.251 -0.3032 -0.3329  0.3632
 6630W        W22891  18.037  18.643   1.774  0.1827 -0.1267 -0.1293
 6631W        W22892  16.780  13.750   0.325 -0.0586 -0.0623  0.4747
 6632W        W22893   1.057  10.053  11.713  0.2459  0.3961 -0.0323
 6633W        W22894  18.740   6.181  12.669 -0.2150 -0.2084 -0.1766
 6634W        W22895   6.531   3.531   1.806 -0.1280 -0.0603  0.0281
 6635W        W22896   8.392  10.563   2.426 -0.5090  0.0553  0.0013
 6636W        W22897  11.264   2.769  10.688  0.1578 -0.0470  0.0452
 6637W        W22898  16.251   5.789   1.027 -0.2365 -0.2128  0.3345
 6638W        W22899  11.079   3.886  14.658 -0.1170  0.0635  0.1994
 6639W        W22900  15.035   6.528  14.363 -0.0040 -0.0710 -0.4530
 6640W        W22901  15.999   5.705  13.492  0.2159 -0.1289  0.2483
 6641W        W22902  13.243   0.271   0.966  0.0582  0.1056 -0.1118
 6642W        W22903  14.637  11.137   1.481  0.2018 -0.0912  0.3789
 6643W        W22904   5.527   3.343  14.574 -0.0685  0.0052 -0.2453
 6644W        W22905  13.168  18.437   0.817 -0.1093  0.1659  0.1798
 6645W        W22906   2.794  15.249   4.068  0.1226  0.1697  0.0509
 6646W        W22907  17.894   8.452   2.215 -0.2474  0.0142  0.1360
 6647W        W22908   6.827  16.235  11.606  0.1404 -0.2235  0.1241
 6648W        W22909  18.519   6.996  11.551 -0.3545  0.1842  0.1156
 6649W        W22910  19.391   0.542   3.437  0.3186 -0.2064  0.1734
 6650W        W22911   6.433   8.317  14.659 -0.0283  0.2401 -0.1288
 6651W        W22912  12.205  19.192   1.926 -0.1317  0.2106  0.1982
 6652W        W22913  14.821  15.211  12.522 -0.1715  0.0658  0.0683
 6653W        W22914   9.496   7.893  13.443 -0.1050 -0.0644 -0.2423
 6654W        W22915   3.443   4.962  11.376 -0.0921 -0.5011  0.1998
 6655W        W22916  14.972   7.228   0.062 -0.0994 -0.0568  0.1600
 6656W        W22917   1.795   3.124  10.981 -0.1594  0.2018 -0.0510
 6657W        W22918   0.608   2.976  12.733  0.3409  0.3011 -0.4380
 6658W        W22919   6.964   6.492   1.818 -0.0247  0.0263 -0.0050
 6659W        W22920   0.032  11.491   3.351  0.0484  0.1272 -0.3410
 6660W        W22921  16.300   6.571  12.287  0.1193 -0.2499  0.2746
 6661W        W22922  19.003   5.851   2.007 -0.0270 -0.0048 -0.5075
 6662W        W22923   1.131   4.614   2.511 -0.2016  0.1349  0.1761
 6663W        W22924   0.033  10.830  12.450 -0.0387  0.0232 -0.1814
 6664W        W22925   2.919   8.029   1.188 -0.0263  0.0423 -0.0343
 6665W        W22926   8.693   8.772   0.594 -0.2443 -0.1198 -0.2299
 6666W        W22927  10.723   5.507   9.891 -0.0847  0.2139  0.0523
 6667W        W22928  13.161   7.336   0.242  0.0286 -0.0170  0.2251
 6668W        W22929   8.736   1.915  14.721 -0.2331 -0.1735 -0.3878
 6669W        W22930  13.123  15.828  14.239  0.2494 -0.0999  0.1512
 6670W        W22931   7.820   2.223   3.076 -0.1206  0.1158  0.5954
 6671W        W22932   1.401   5.006   5.463  0.1756 -0.1937  0.0762
 6672W        W22933  17.116   8.435   4.530 -0.2866  0.0691  0.0664
 6673W        W22934  10.444  18.513   4.473  0.2635 -0.0464  0.1119
 6674W        W22935   4.036  10.546  14.307 -0.1423  0.3269 -0.3690
 6675W        W22936  13.887  18.272  11.531  0.0694 -0.1754  0.2407
 6676W        W22937  16.859   2.807   3.103 -0.1485 -0.0620  0.1782
 6677W        W22938  19.221  13.087   1.369  0.1011  0.0018 -0.0489
 6678W        W22939   1.594  12.182   4.023  0.3509 -0.1235  0.2368
 6679W        W22940   8.375  11.477   4.379 -0.0670  0.0916  0.0123
 6680W        W22941   7.912  11.816   1.651  0.0520 -0.3287 -0.3879
 6681W        W22942   3.975   8.575  14.170 -0.2811  0.0605  0.2829
 6682W        W22943   2.542   0.947   9.878  0.1945  0.0398 -0.1998
 6683W        W22944   6.655   5.614   1.488  0.0114  0.3479 -0.1047
 6684W        W22945  14.306  11.104   2.959  0.3016 -0.2228  0.1097
 6685W        W22946  10.837   6.191   4.167  0.2607  0.1824  0.2171
 6686W        W22947   0.107  18.278  13.008 -0.0646  0.2183  0.3653
 6687W        W22948  10.808  18.516  11.811  0.1472  0.2855 -0.1849
 6688W        W22949   5.340   5.476  11.755 -0.2091 -0.1269  0.0480
 6689W        W22950  11.079   5.207   1.368 -0.1041 -0.0611 -0.0241
 6690W        W22951   2.351   8.746   2.077 -0.0325  0.0987 -0.2854
 6691W        W22952   6.611  17.858  11.167  0.0070 -0.1670 -0.2373
 6692W        W22953   8.443  18.885  14.363  0.4220 -0.3650  0.0986
 6693W        W22954   6.344  12.251  11.548 -0.1850  0.1081  0.1800
 6694W        W22955  10.952  10.444   1.531  0.0118  0.1899  0.1108
 6695W        W22956  11.002  13.823  11.569  0.2959 -0.2144 -0.1639
 6696W        W22957   6.391   4.778  12.748  0.0485  0.2596  0.1828
 6697W        W22958   9.039   2.720   0.594  0.1721 -0.1229 -0.4105
 6698W        W22959  10.030  15.890  13.266 -0.2617 -0.0946  0.1087
 6699W        W22960  16.783   7.824   2.443 -0.3150  0.1359 -0.1497
 6700W        W22961   1.138  18.162  11.644  0.1446 -0.2954 -0.0871
 6701W        W22962   3.208  10.383   0.062  0.0430 -0.2596 -0.2741
 6702W        W22963  15.471  13.806  13.705 -0.0426 -0.1166  0.2416
 6703W        W22964  11.517  15.491   0.074 -0.2990 -0.2728  0.0631
 6704W        W22965  13.414  11.660   1.322 -0.2242 -0.3414 -0.1403
 6705W        W22966   6.525  18.448   3.788 -0.3151  0.1523 -0.1073
 6706W        W22967   5.704   0.108   3.838  0.3529  0.0572  0.2628
 6707W        W22968   7.856  16.826   1.676  0.0561  0.1367 -0.0664
 6708W        W22969   4.452   0.457   3.280  0.0739 -0.0935 -0.0372
 6709W        W22970  11.058   1.067   0.648 -0.0003 -0.0103  0.0219
 6710W        W22971   9.742  10.903   2.410  0.2466  0.0229  0.1866
 6711W        W22972   9.951   1.393  14.288 -0.4857 -0.1271  0.0100
 6712W        W22973   5.460  16.522   1.069  0.3764 -0.1946  0.0030
 6713W        W22974  17.756   4.571   0.886  0.2259  0.0829  0.2094
 6714W        W22975   0.002  15.318  10.738 -0.1165 -0.2207 -0.3711
 6715W        W22976  15.996   4.936  10.541 -0.2691 -0.2753  0.3567
 6716W        W22977   2.045  13.234  12.526  0.0854 -0.0328  0.0262
 6717W        W22978  15.863   1.428   0.154  0.0911  0.0149 -0.1414
 6718W        W22979  16.016   2.378   5.172  0.1523  0.2914 -0.0206
 6719W        W22980  18.001   6.540  13.148 -0.2115  0.0601  0.1544
 6720W        W22981  10.032   8.788  13.483 -0.0152 -0.0643 -0.2987
 6721W        W22982  12.176   0.691  10.551  0.1344 -0.5022 -0.2475
 6722W        W22983   3.167   7.990  11.345  0.1527 -0.4706 -0.0099
 6723W        W22984  14.230  13.004   1.030  0.1023 -0.6289 -0.1343
 6724W        W22985   1.195   7.875  12.908  0.1064 -0.1399  0.1167
 6725W        W22986  13.681  16.973  10.297  0.4080  0.0445  0.0458
 6726W        W22987   0.636  17.173   3.965  0.0163 -0.3629  0.1082
 6727W        W22988   2.590  11.553   2.420 -0.0607  0.3095  0.0012
 6728W        W22989   2.568   7.677   3.769  0.2456  0.0874 -0.3125
 6729W        W22990   2.061   3.578  12.231  0.0072  0.0080  0.2593
 6730W        W22991  14.143  14.042   3.925  0.1385  0.0827 -0.1857
 6731W        W22992   7.285   3.592   3.438  0.1989 -0.1171  0.0193
 6732W        W22993  14.891   6.843  12.967  0.2761 -0.0671 -0.2666
 6733W        W22994   8.419  13.937  14.748 -0.0347 -0.1692  0.1770
 6734W        W22995   2.727   3.302  14.053 -0.1115 -0.0978  0.0141
 6735W        W22996  13.438  11.637  13.836 -0.1322 -0.0658 -0.2690
 6736W        W22997   5.552   0.947  14.194  0.1427  0.0042  0.2931
 6737W        W22998   2.042   8.491   0.186  0.1813 -0.2694  0.0335
 6738W        W22999  18.205  15.064  13.784 -0.3251 -0.1656  0.3304
 6739W        W23000   8.415  15.453   3.905 -0.0407 -0.3045 -0.0643
 6740W        W23001  15.509   7.256   2.768 -0.1690 -0.1318  0.1898
 6741W        W23002  15.199   4.259  11.263 -0.0319  0.2361 -0.2023
 6742W        W23003   1.182   9.479   1.978 -0.1199 -0.1691 -0.1548
 6743W        W23004   2.687  11.622   0.654 -0.0912 -0.0140 -0.2884
 6744W        W23005   6.726   1.826  10.463  0.1348  0.0274 -0.1262
 6745W        W23006  15.376   9.244   3.877 -0.0070 -0.1064 -0.2469
 6746W        W23007  14.238   4.024   3.469  0.2489  0.0721  0.1810
 6747W        W23008  12.063  15.630  11.266  0.2630  0.2023 -0.0950
 6748W        W23009   2.860   7.505  12.603  0.1208 -0.3042 -0.0690
 6749W        W23010   2.481  17.520  11.716 -0.2689  0.0464  0.0002
 6750W        W23011   5.430  16.717   4.334  0.0499 -0.1932  0.0540
 6751W        W23012   3.741   0.813   2.160  0.1179  0.1811  0.3876
 6752W        W23013  18.827   7.892  11.789 -0.0429  0.1368  0.0755
 6753W        W23014   7.432   7.903  11.349 -0.2989  0.0910  0.3917
 6754W        W23015   3.469   6.376  14.396 -0.2116 -0.2598 -0.2556
 6755W        W23016  10.295   8.500  13.131 -0.0118  0.0036  0.3231
 6756W        W23017  18.153   5.478   0.816  0.1598  0.0380 -0.1729
 6757W        W23018  10.032   1.656  10.265 -0.4184  0.0607  0.2731
 6758W        W23019   1.751   7.690  12.792  0.0545  0.1137  0.1192
 6759W        W23020   8.137   0.628   0.164 -0.4299  0.2153 -0.0847
 6760W        W23021   9.237   2.629   1.099  0.3342  0.1263 -0.0974
 6761W        W23022   2.888  16.534  12.857 -0.1959  0.0591 -0.1671
 6762W        W23023   9.876   5.220   0.767 -0.0023 -0.0594  0.0793
 6763W        W23024   5.210   2.286  10.518  0.2042  0.1187  0.1977
 6764W        W23025  10.734  14.092   9.918  0.2192 -0.0264  0.0243
 6765W        W23026   9.299  19.300   2.808  0.1944  0.2814  0.2307
 6766W        W23027  10.494   0.486  12.534 -0.4178  0.2157  0.0031
 6767W        W23028  10.590  14.651   2.742 -0.1743 -0.3178  0.1864
 6768W        W23029   1.025   7.576   1.449 -0.0745 -0.0057  0.0176
 6769W        W23030   1.771  11.605   0.786  0.3751  0.3739  0.5350
 6770W        W23031  12.763   9.404   2.451  0.0746 -0.0736  0.1476
 6771W        W23032  14.720   1.414   4.630 -0.1610 -0.1815  0.1710
 6772W        W23033   2.656  18.733   2.936 -0.0080  0.0327  0.4484
 6773W        W23034   0.997  19.043   4.002 -0.0260  0.0107 -0.3428
 6774W        W23035   7.290   2.209   1.728 -0.0934 -0.0884  0.1163
 6775W        W23036  13.189   2.917  13.067  0.0494  0.2899  0.0539
 6776W        W23037  11.515  11.041   2.672  0.0169 -0.0422 -0.0360
 6777W        W23038  12.644   8.569   3.872 -0.1155 -0.0090  0.4937
 6778W        W23039   0.965   4.849   0.570 -0.0000  0.1424 -0.0731
 6779W        W23040  17.386  12.777  13.336 -0.3342 -0.0862  0.1596
 6780W        W23041  15.245   7.552   5.121 -0.3354 -0.0347  0.2959
 6781W        W23042   9.720  11.543  10.172  0.3858  0.1475 -0.4030
 6782W        W23043   4.615  15.382  11.534  0.1914 -0.2453  0.3945
 6783W        W23044   8.931  11.673  13.918  0.1553 -0.0635  0.0924
 6784W        W23045  18.495   1.720  14.612 -0.0452 -0.1839  0.3051
 6785W        W23046  17.345  13.686  13.088  0.2405  0.1187  0.3947
 6786W        W23047   2.465   3.146   3.889 -0.2316 -0.0304 -0.0852
 6787W        W23048  12.127   5.845   3.278 -0.3213 -0.0957  0.0804
 6788W        W23049  17.867  19.236  11.366 -0.1433 -0.1158  0.2690
 6789W        W23050  11.067  13.818  12.082 -0.1358  0.1559  0.2514
 6790W        W23051  12.317  17.634  12.617  0.0710 -0.0539  0.3093
 6791W        W23052   3.797  12.366  10.309 -0.0094  0.3147  0.4810
 6792W        W23053   6.884   2.384  11.130 -0.2927  0.1051  0.1167
 6793W        W23054  18.681   4.820  12.665 -0.0147  0.3119 -0.0275
 6794W        W23055   6.656   9.688   2.861 -0.3393 -0.4454  0.1616
 6795W        W23056   0.928  11.292   1.222 -0.1821  0.1635 -0.0332
 6796W        W23057   1.504   2.437  12.751  0.1246 -0.1900 -0.3590
 6797W        W23058  13.574   5.628   0.102  0.2856 -0.0348  0.0329
 6798W        W23059   6.865  18.901   1.044 -0.0804 -0.0274 -0.2403
 6799W        W23060  10.626   6.323  10.285  0.1618  0.4255 -0.3733
 6800W        W23061  18.019  15.389  12.404  0.0770 -0.0682 -0.2314
 6801W        W23062   5.717  17.791  12.938  0.0567  0.0529 -0.2877
 6802W        W23063  10.607   7.458   0.392  0.3412 -0.3108 -0.0976
 6803W        W23064   9.637  17.704  11.446  0.3045  0.0076 -0.0808
 6804W        W23065  17.612   9.122  13.488 -0.2907 -0.1632  0.2140
 6805W        W23066   6.286   0.875  12.734 -0.1643 -0.1636  0.0852
 6806W        W23067  13.038   8.915   0.573  0.3599 -0.2374  0.2770
 6807W        W23068  14.273   0.535   0.089 -0.1718 -0.1291  0.0789
 6808W        W23069   9.810   9.630  10.625 -0.0042 -0.0840  0.4084
 6809W        W23070  14.139   9.588   1.267  0.1587  0.3477 -0.0996
 6810W        W23071  10.343   1.957   1.302  0.0170  0.1337 -0.1880
 6811W        W23072   7.027   0.909  14.329 -0.2254  0.1052  0.2072
 6812W        W23073  14.820  11.149  11.500  0.0196 -0.2212  0.1225
 6813W        W23074   0.424   8.256   3.449 -0.0890  0.2242 -0.3678
 6814W        W23075   3.506   5.242   0.214  0.0514 -0.0058  0.1228
 6815W        W23076   7.616  12.074  11.964 -0.0045  0.3178  0.1223
 6816W        W23077  11.856  13.505  10.665  0.2084  0.3648 -0.2274
 6817W        W23078   1.288  19.396   4.303  0.0107  0.0301 -0.2314
 6818W        W23079  10.918  11.561   3.199  0.0387 -0.4453 -0.1163
 6819W        W23080  17.173   5.319   0.592 -0.0487  0.0307  0.0189
 6820W        W23081  16.410   4.773  14.614 -0.1805 -0.0455 -0.0694
 6821W        W23082   9.454   9.934   1.273  0.0120  0.3504 -0.0105
 6822W        W23083  12.471  18.670  12.926  0.1700 -0.0087  0.0769
 6823W        W23084   3.574  16.561   4.550  0.0529 -0.0722 -0.0392
 6824W        W23085   9.342  16.435   2.469  0.0141  0.0085 -0.1699
 6825W        W23086   3.987  14.366   2.509 -0.0450 -0.2061 -0.0236
 6826W        W23087  13.257   1.323   5.033 -0.2494 -0.0249  0.2296
 6827W        W23088   1.137   0.870  12.327  0.0055 -0.3065 -0.0076
 6828W        W23089   8.062   6.314  12.360  0.3491  0.0725  0.0900
 6829W        W23090   7.309   9.380   1.608  0.0059 -0.2445  0.3693
 6830W        W23091   9.451   2.114  14.006  0.2395 -0.0678 -0.0530
 6831W        W23092  14.616   1.227  11.872  0.2549 -0.2335  0.2699
 6832W        W23093  14.565  12.817  11.867 -0.1859  0.0490  0.2345
 6833W        W23094  10.667   0.648   1.862  0.2098 -0.0490 -0.0683
 6834W        W23095  15.864  14.465  13.828  0.0670  0.3379 -0.2592
 6835W        W23096   4.399   1.116   2.373 -0.0156  0.0986 -0.1797
 6836W        W23097   1.818  12.491  13.919 -0.1465 -0.0416  0.0925
 6837W        W23098   6.578   0.926  11.290 -0.2514 -0.0506  0.1228
 6838W        W23099  13.144   0.394  10.524  0.1861 -0.3190  0.1045
 6839W        W23100   6.752  17.622  11.920 -0.3721  0.1107 -0.3130
 6840W        W23101   3.322   4.362   1.784  0.2812 -0.0369  0.4361
 6841W        W23102   7.175  16.841   4.090  0.0605 -0.0336  0.2363
 6842W        W23103   8.030  12.541   4.349 -0.2041 -0.0716 -0.0435
 6843W        W23104   4.753   3.696   2.635 -0.1294 -0.2222  0.0592
 6844W        W23105   5.764   2.391   2.226  0.4919  0.1725 -0.1349
 6845W        W23106  17.429  11.347   2.329  0.0241  0.2224  0.2569
 6846W        W23107  12.574  16.153  14.602 -0.1192 -0.1555  0.0247
 6847W        W23108  16.935   5.521   4.257 -0.2628  0.2260 -0.2698
 6848W        W23109  18.178  15.961  14.824 -0.2900  0.1276 -0.1951
 6849W        W23110   2.571   3.071  14.519 -0.3196  0.2830  0.1288
 6850W        W23111   5.282   7.709   1.060 -0.2075  0.2133  0.0633
 6851W        W23112  19.009  13.104  12.427  0.1536 -0.1774 -0.0026
 6852W        W23113   7.919   1.705   4.712  0.3151  0.2576 -0.1344
 6853W        W23114   5.806   7.588   5.008 -0.0453 -0.2713 -0.1154
 6854W        W23115  11.561   7.300  12.588  0.3373  0.5803  0.1751
 6855W        W23116   1.056   1.270   1.056 -0.0488  0.0952  0.3687
 6856W        W23117   0.843  18.911  12.381 -0.2290 -0.4350 -0.1097
 6857W        W23118   0.257  14.985  12.162  0.0188 -0.1777  0.4554
 6858W        W23119   5.033  11.833   3.018 -0.2739 -0.2848  0.0405
 6859W        W23120  17.439   1.746   1.419  0.3898  0.0180  0.1783
 6860W        W23121  17.685  16.112  14.579  0.1710  0.1804  0.2592
 6861W        W23122   2.672  10.662  11.288 -0.2796 -0.1140 -0.1159
 6862W        W23123  16.506   9.052   2.839 -0.0254  0.0235  0.0217
 6863W        W23124   2.003   4.192  13.612 -0.1510  0.2998  0.1247
 6864W        W23125  18.014  16.405   3.692 -0.2013 -0.0735  0.3941
 6865W        W23126   8.138  12.912   0.557 -0.0034 -0.0856  0.1978
 6866W        W23127   8.498   2.669  11.216 -0.1172 -0.0151  0.1687
 6867W        W23128  12.064   4.678   1.441 -0.2454 -0.1757 -0.3272
 6868W        W23129   0.780  17.673  14.827 -0.3690  0.0358  0.1393
 6869W        W23130   9.532   9.943   1.774  0.0466 -0.0015 -0.0797
 6870W        W23131   8.397  12.542   4.728 -0.0077  0.1170  0.0846
 6871W        W23132   2.865  14.015  14.774  0.0911 -0.1397 -0.2865
 6872W        W23133   8.051   4.091  10.364 -0.3079  0.1410 -0.4238
 6873W        W23134   3.426   1.518   2.789  0.1500 -0.0606 -0.2164
 6874W        W23135  14.037   7.268  12.036 -0.3038 -0.1320  0.1321
 6875W        W23136  10.990   1.814  11.694  0.0868 -0.1019  0.2292
 6876W        W23137  16.168   3.668   2.967  0.0725  0.1874  0.0024
 6877W        W23138   2.698   9.726  11.155 -0.0110  0.3572  0.4175
 6878W        W23139   5.923  16.981   1.981 -0.2953 -0.1557 -0.3214
 6879W        W23140  10.939   0.314  10.671  0.2343 -0.2923 -0.1386
 6880W        W23141  15.575  14.557  14.879  0.1512  0.2479 -0.0715
 6881W        W23142  18.943  10.748   3.840  0.1137  0.3157 -0.1069
 6882W        W23143  18.045   1.062  10.699  0.1263 -0.0268 -0.0406
 6883W        W23144   3.986   4.971   4.410  0.1109  0.1166 -0.0058
 6884W        W23145   4.768  13.159  12.557 -0.2047  0.2632 -0.0897
 6885W        W23146   9.263  12.651  12.660 -0.1726  0.1856  0.1926
 6886W        W23147  12.730  18.508  12.567 -0.1920 -0.0297  0.0522
 6887W        W23148   8.882  19.256   4.240 -0.1861  0.2948  0.0855
 6888W        W23149   0.546   4.911   3.378 -0.0129  0.1147  0.0248
 6889W        W23150  15.157  12.525  11.094 -0.0896  0.0439  0.0421
 6890W        W23151  13.844   8.319  14.539  0.1028  0.3927  0.0860
 6891W        W23152   6.804   9.385   0.649 -0.2282 -0.1082  0.3396
 6892W        W23153  12.044  15.924   2.683 -0.0593 -0.3766  0.3550
 6893W        W23154  16.040   4.541   5.493 -0.0752 -0.1146 -0.1081
 6894W        W23155   1.543  15.918   1.303 -0.0117  0.2257 -0.0354
 6895W        W23156   1.136  14.337   1.886  0.3957  0.0833 -0.1941
 6896W        W23157  16.792   8.156   1.240  0.0192  0.0626 -0.1780
 6897W        W23158   7.501  14.961   3.380  0.2665 -0.1546  0.0417
 6898W        W23159  18.546  11.597   3.317 -0.0469  0.3103  0.2277
 6899W        W23160  12.076  12.055   0.463  0.0566 -0.0229 -0.1474
 6900W        W23161   3.712   1.217   4.997 -0.3032 -0.1384 -0.3932
 6901W        W23162   1.412   1.661   4.626  0.0979 -0.1536  0.0721
 6902W        W23163   5.169  13.009   3.848  0.2421 -0.1757 -0.0254
 6903W        W23164   9.766   7.416   3.352 -0.1164  0.1078 -0.4724
 6904W        W23165  13.150  12.918   4.464  0.1467 -0.0959  0.1347
 6905W        W23166  14.505   3.938   4.623 -0.0930 -0.0916 -0.3015
 6906W        W23167  10.646   0.256   4.141 -0.0209  0.1504 -0.2083
 6907W        W23168   7.434   6.783   3.629  0.0677 -0.1674 -0.2269
 6908W        W23169  18.031  12.742   4.994 -0.0534 -0.3945  0.0612
 6909W        W23170   1.198   4.449   4.458 -0.0060 -0.1229 -0.0300
 6910W        W23171   0.970   0.771   2.865 -0.0418  0.1393 -0.2422
 6911W        W23172  10.878   6.629  11.854 -0.0882 -0.2148  0.1458
 6912W        W23173   0.496  18.164   3.131 -0.0639 -0.1514 -0.0279
 6913W        W23174  12.455   6.671  10.446  0.0616  0.1210  0.0907
 6914W        W23175  14.826   1.242   2.833  0.2423 -0.2468 -0.3343
 6915W        W23176   2.827   4.279   1.075  0.4298  0.0996  0.0172
 6916W        W23177   7.236   3.894   3.825 -0.1949 -0.3352 -0.1011
 6917W        W23178  11.896   5.377   2.812 -0.0019  0.2426  0.0265
 6918W        W23179  18.814   0.260  12.187  0.0109 -0.1595  0.1254
 6919W        W23180  14.767  12.610  14.294  0.3334 -0.0160 -0.0109
 6920W        W23181  17.248  16.102  11.359  0.4400 -0.0699 -0.2215
 6921W        W23182   3.070  11.438  13.840  0.2710 -0.0744  0.0631
 6922W        W23183   2.311  11.935   2.155  0.0042  0.1191 -0.3888
 6923W        W23184   2.343   5.009  11.607  0.1947 -0.1161  0.3296
 6924W        W23185   7.777   0.786   3.850  0.6279  0.1888  0.1586
 6925W        W23186   6.377  12.852   2.022  0.1272 -0.2928 -0.0353
 6926W        W23187  14.908  18.362  13.617  0.0362  0.3057  0.1782
 6927W        W23188   0.200  13.141   4.991 -0.1252 -0.2060  0.1805
 6928W        W23189  18.856   4.254  12.511  0.0006 -0.0185  0.1557
 6929W        W23190  14.820   5.410  10.546 -0.2055 -0.0221  0.0314
 6930W        W23191  18.261   5.356   2.225  0.0978  0.0453 -0.2900
 6931W        W23192  17.508   9.907   3.512  0.1191  0.1048 -0.1569
 6932W        W23193   3.039   8.656  14.623 -0.2229 -0.0768 -0.1603
 6933W        W23194   5.274   5.647   0.576 -0.0848  0.1874 -0.3850
 6934W        W23195  11.562   8.564  13.589 -0.1068  0.0587  0.2920
 6935W        W23196   5.176   3.966   5.487 -0.0892 -0.0159 -0.0883
 6936W        W23197   1.651  10.715   2.539 -0.4535  0.0814 -0.2052
 6937W        W23198  10.553   3.861   1.302  0.1181  0.1674 -0.0994
 6938W        W23199   5.561  14.281   9.428 -0.0550 -0.0791  0.2037
 6939W        W23200   1.561   4.705  10.301  0.2281  0.0526  0.2725
 6940W        W23201   2.241  18.907   2.369 -0.0441 -0.1669  0.1060
 6941W        W23202   1.783  15.041  12.707 -0.0170  0.4759  0.0368
 6942W        W23203   5.112  13.885   2.702 -0.0359 -0.1454  0.2857
 6943W        W23204   8.939   6.199   5.602  0.1184 -0.0628 -0.3827
 6944W        W23205  17.475  12.463  14.745 -0.1867  0.2533 -0.0049
 6945W        W23206  18.240  19.185  13.783 -0.3454 -0.2541 -0.1327
 6946W        W23207   4.657   9.156  11.576 -0.0000 -0.2185 -0.1687
 6947W        W23208   5.564   1.774   2.999 -0.2786 -0.1942  0.1828
 6948W        W23209  16.442   7.074  10.200  0.0724  0.0572  0.2137
 6949W        W23210  13.274   1.825   4.668  0.0264 -0.0186  0.0972
 6950W        W23211   3.948  10.860  13.894 -0.0628 -0.0917  0.1297
 6951W        W23212   3.426  16.314   1.260  0.0064 -0.1382  0.1240
 6952W        W23213  12.503  18.094   0.646  0.0136 -0.0155 -0.0931
 6953W        W23214  10.263  17.331  14.210  0.4195 -0.1741 -0.1255
 6954W        W23215  10.750   0.863   2.903 -0.2857 -0.3388  0.0519
 6955W        W23216  14.611  17.198  14.103 -0.0202 -0.1709  0.2497
 6956W        W23217   1.402  14.333   1.337 -0.5434 -0.3678  0.2932
 6957W        W23218   2.846  13.858   4.772 -0.0426  0.2471  0.0056
 6958W        W23219  11.070   6.531   3.864 -0.0817 -0.2448 -0.1883
 6959W        W23220  18.593   0.683  14.726  0.4023  0.1898  0.0823
 6960W        W23221   9.994   0.894   3.245  0.1195 -0.1716  0.2841
 6961W        W23222  10.872   9.183   4.865  0.3062 -0.5461 -0.2712
 6962W        W23223  17.568  14.274   1.299  0.3134 -0.0082 -0.0242
 6963W        W23224  10.083   2.649   2.828 -0.2473 -0.3065  0.3048
 6964W        W23225   4.283   6.869  14.778  0.1455  0.0542 -0.4140
 6965W        W23226  17.655   3.312  13.951  0.3616  0.1601 -0.1684
 6966W        W23227  17.527   6.857  13.257  0.1359  0.1699  0.1474
 6967W        W23228  12.314   1.247   3.026 -0.0325 -0.1558 -0.2458
 6968W        W23229  17.899  11.483  13.848  0.0132  0.2036  0.0714
 6969W        W23230   7.113  15.096   3.702 -0.5858 -0.2152 -0.0827
 6970W        W23231  12.851  19.267   0.408 -0.1581  0.0051  0.0714
 6971W        W23232  14.126  17.373  10.367  0.4365 -0.0018  0.1355
 6972W        W23233  14.840  10.445   2.101 -0.3900  0.0064  0.2419
 6973W        W23234   6.574   5.712   2.864 -0.0560 -0.0767 -0.1798
 6974W        W23235  14.088   9.521  10.169 -0.2752 -0.0676  0.0834
 6975W        W23236  12.870  16.982  10.850 -0.0493  0.2674  0.1009
 6976W        W23237   7.534  16.738   9.338 -0.0318  0.1062  0.0026
 6977W        W23238  10.861  13.184   0.174 -0.0619  0.0218  0.0876
 6978W        W23239   1.689  14.471  14.677 -0.0382  0.1598  0.3184
 6979W        W23240   1.751  15.522   4.597 -0.1212  0.4749  0.3525
 6980W        W23241  17.477   5.582  14.636 -0.2397  0.1095  0.0333
 6981W        W23242   3.877  17.228  13.348 -0.4781  0.2928 -0.3474
 6982W        W23243   5.050   0.055   4.729 -0.0242  0.1778  0.0395
 6983W        W23244  18.898  11.723   0.911 -0.0523 -0.1117  0.2702
 6984W        W23245   8.828  15.430   9.423  0.4272 -0.1596 -0.0900
 6985W        W23246   4.811  17.289   2.120 -0.1693 -0.1176  0.2849
 6986W        W23247  12.370   5.788  14.212  0.4850 -0.0911  0.3409
 6987W        W23248  15.851   0.690   5.700  0.2666  0.0414  0.1240
 6988W        W23249  16.093   0.893  14.870 -0.0516  0.1368 -0.1926
 6989W        W23250  16.325   9.547   0.649 -0.0203 -0.0989 -0.1488
 6990W        W23251   6.133  15.818  13.202  0.1448  0.2179 -0.2306
 6991W        W23252   6.390   8.713   1.359 -0.0019  0.3689  0.1439
 6992W        W23253  12.395   3.452   4.467  0.2665 -0.2051 -0.4232
 6993W        W23254  15.619  19.064  11.770 -0.0064 -0.4125 -0.1851
 6994W        W23255   3.852  13.850   4.663 -0.0617 -0.4222  0.3851
 6995W        W23256  14.460  12.474   3.402  0.1240  0.1883 -0.0388
 6996W        W23257  16.450   1.136   3.732 -0.1353 -0.1093  0.2788
 6997W        W23258  16.694   7.349   2.539  0.2752  0.1895 -0.0225
 6998W        W23259   1.321  16.013  13.755  0.2417  0.1065 -0.0973
 6999W        W23260  13.220  13.590   2.342  0.0671  0.0239  0.2565
 7000W        W23261  12.260  16.916  10.531  0.0697  0.3318  0.1090
 7001W        W23262   9.456  17.144   4.666 -0.0928  0.2067  0.0389
 7002W        W23263   9.193  10.492   3.956  0.0771 -0.0231 -0.4489
 7003W        W23264   1.478  10.965   0.823  0.0058 -0.0170 -0.0211
 7004W        W23265  11.039   7.404  14.751  0.2364  0.0568 -0.1030
 7005W        W23266  19.214   1.774  12.068  0.1135  0.1121  0.2240
 7006W        W23267   6.629   6.195   1.600  0.0242  0.1650 -0.0241
 7007W        W23268   0.317  10.804   4.694 -0.0679  0.2710  0.3386
 7008W        W23269  17.642  18.237   1.062  0.1781  0.1318 -0.2143
 7009W        W23270  12.422  19.007  11.913  0.0467 -0.0232  0.1175
 7010W        W23271   3.880   5.504   4.863 -0.0402 -0.2781 -0.1007
 7011W        W23272  18.376  11.441  10.573 -0.1548 -0.3212 -0.2379
 7012W        W23273  11.373   4.546   2.055  0.1379 -0.0967  0.1179
 7013W        W23274   3.607   6.072  14.780  0.0208  0.0213 -0.1753
 7014W        W23275   2.706   7.004   3.556 -0.2679  0.1122  0.1255
 7015W        W23276  11.132   0.290   9.609  0.0467  0.0288 -0.0592
 7016W        W23277   8.591  16.204  11.147 -0.1078  0.3287 -0.1379
 7017W        W23278  12.274   1.546  10.615 -0.1743  0.0282 -0.0422
 7018W        W23279   1.560   6.427   0.999  0.1669  0.3106 -0.0187
 7019W        W23280  18.869   5.632   5.064 -0.0169 -0.0802  0.2585
 7020W        W23281  11.993   2.868   2.000  0.0538  0.4116 -0.1253
 7021W        W23282  16.728  12.438   2.186  0.0062  0.1827 -0.1515
 7022W        W23283   3.254  12.344  12.242 -0.2988 -0.0370 -0.1048
 7023W        W23284  17.951  14.899  10.674  0.1582 -0.3046 -0.1304
 7024W        W23285   2.495  17.294  14.421  0.1374  0.0360  0.0106
 7025W        W23286   7.037   3.973  11.664  0.2242 -0.1636  0.0590
 7026W        W23287   9.678  13.873  13.923  0.0996  0.0755 -0.1367
 7027W        W23288  17.919   6.715   1.484  0.1495  0.2321  0.2352
 7028W        W23289   7.146   8.495  11.332 -0.2439  0.1118 -0.0197
 7029W        W23290   9.784   7.596   4.714  0.3166 -0.0668  0.1060
 7030W        W23291   3.656   5.502   3.047  0.0667 -0.0175  0.0704
 7031W        W23292   3.097  13.485  12.705 -0.0935  0.0874 -0.0334
 7032W        W23293  17.515  18.614   1.938  0.1742 -0.2132 -0.2152
 7033W        W23294   6.422   6.659  12.391  0.2548  0.0392  0.0568
 7034W        W23295  17.155  16.290  13.393  0.1186  0.2002  0.1361
 7035W        W23296  16.383  14.626  12.083  0.4731  0.0222 -0.2421
 7036W        W23297   2.000   7.379  14.364 -0.3274  0.1048  0.2385
 7037W        W23298   2.492  14.177   3.226  0.1182 -0.2082 -0.0326
 7038W        W23299   4.101  10.013   3.092 -0.0770  0.0593  0.0065
 7039W        W23300   6.441   4.890  13.806  0.0656 -0.1359  0.2341
 7040W        W23301  10.731  10.663   4.580 -0.1856 -0.1782  0.2742
 7041W        W23302   4.322   9.113   3.903  0.2427  0.0062  0.1551
 7042W        W23303   0.693   4.407   4.541  0.1074 -0.1891 -0.1382
 7043W        W23304   4.955  14.288   0.772 -0.1011 -0.3354  0.1537
 7044W        W23305   3.553   4.124  12.510  0.1001 -0.1754 -0.2764
 7045W        W23306   1.066   5.826   3.161 -0.1927 -0.3356 -0.0300
 7046W        W23307  12.112   5.709   4.246  0.1258  0.0458  0.2546
 7047W        W23308  17.697  17.041   2.894 -0.0292  0.0879  0.0708
 7048W        W23309   5.468  13.559   4.728 -0.1488  0.1858  0.3801
 7049W        W23310  19.356   9.159   4.596 -0.3958 -0.0970 -0.2721
 7050W        W23311   8.454  12.901  11.299 -0.1350  0.1354  0.2567
 7051W        W23312   1.359   9.814  14.252  0.0014 -0.2334  0.1159
 7052W        W23313  15.769  15.985   0.376 -0.0705  0.0190 -0.3639
 7053W        W23314  11.045  15.682  12.250  0.3033 -0.1167  0.0663
 7054W        W23315  13.759   0.037   3.373  0.0264  0.2757  0.1933
 7055W        W23316   1.521   2.781  13.175 -0.0389  0.1310  0.2667
 7056W        W23317   9.856  18.167   1.542  0.1200  0.0918  0.2846
 7057W        W23318   6.687  13.361  12.329 -0.2506 -0.1642 -0.2505
 7058W        W23319   0.949   4.920   4.817  0.3004  0.1475 -0.2584
 7059W        W23320   3.657   4.464   2.986 -0.0781  0.0688 -0.1868
 7060W        W23321   8.434  13.629  11.038 -0.0473 -0.3083 -0.6034
 7061W        W23322  12.105   8.005   3.175 -0.1351 -0.2068  0.0900
 7062W        W23323   6.038   4.591   2.770  0.2494 -0.0982  0.3771
 7063W        W23324   2.907  16.956   2.623 -0.2005 -0.1677 -0.1278
 7064W        W23325   7.767  12.268   1.404 -0.3945 -0.3408 -0.1287
 7065W        W23326   9.312   9.245   4.284 -0.1720  0.1391  0.1986
 7066W        W23327  11.287   8.676  14.023  0.1644  0.1145  0.2507
 7067W        W23328   2.437   4.576  11.899 -0.2299  0.4863  0.0990
 7068W        W23329  17.174  12.016  12.840  0.1042 -0.0599  0.1468
 7069W        W23330   5.631  13.214  13.045 -0.0455 -0.1032  0.0313
 7070W        W23331  19.005  11.412   4.873 -0.0164 -0.1499 -0.0567
 7071W        W23332   2.636   2.921   2.981 -0.2011 -0.0504  0.2540
 7072W        W23333   6.087   1.018   4.410 -0.2755 -0.0133  0.0072
 7073W        W23334   9.321   2.428   2.314  0.3213 -0.2828 -0.2348
 7074W        W23335   8.606   7.293   3.342  0.0765  0.1250 -0.0065
 7075W        W23336  11.029  18.583  12.930  0.1775  0.0960 -0.4887
 7076W        W23337  15.022   0.348  11.482  0.3157 -0.3257  0.1746
 7077W        W23338   5.922   1.895   5.684  0.1284  0.0212  0.2934
 7078W        W23339   9.896   0.100  12.188  0.0880  0.1072  0.2489
 7079W        W23340   1.856   2.572   1.185 -0.1962 -0.2767  0.2285
 7080W        W23341   6.288  15.122   2.397  0.1843  0.1188  0.1649
 7081W        W23342  16.156   4.226  13.360  0.5940  0.0439 -0.1841
 7082W        W23343  18.070  14.098   3.737  0.0305  0.2366  0.1751
 7083W        W23344   5.209   5.569   4.248 -0.1643 -0.1551 -0.1649
 7084W        W23345   6.164  10.077  13.596  0.0070  0.0961 -0.3707
 7085W        W23346   6.869  15.730   2.975 -0.1737  0.0177  0.2005
 7086W        W23347  17.533  11.218   9.847 -0.1668 -0.3282  0.1177
 7087W        W23348  18.750  18.314   4.161 -0.1240  0.1112 -0.3208
 7088W        W23349  10.598   5.205   1.253  0.0753 -0.1040 -0.1630
 7089W        W23350   0.383   5.687  14.579 -0.1795  0.1629  0.1262
 7090W        W23351  10.807   1.104   3.349  0.0644  0.1253  0.0960
 7091W        W23352   8.637  15.185   1.204  0.0484 -0.4150  0.1246
 7092W        W23353   6.209   6.786  11.716  0.0985 -0.0526  0.0200
 7093W        W23354   4.985  12.755  12.363  0.1178  0.0504  0.1846
 7094W        W23355   1.645  17.567  14.718  0.0919  0.5938 -0.2237
 7095W        W23356   7.491  15.195   5.439 -0.0546  0.2791  0.1736
 7096W        W23357   5.033  15.219  11.869  0.0070  0.0917 -0.0485
 7097W        W23358  12.964   5.579  11.468  0.2556 -0.2212  0.2539
 7098W        W23359   7.410   9.825   4.197 -0.0498  0.0861 -0.2820
 7099W        W23360  12.017  18.967   4.718 -0.0850 -0.5314  0.1312
 7100W        W23361   4.751   6.904  13.841 -0.0892  0.0627 -0.0018
 7101W        W23362   5.038   5.346  12.129  0.1797 -0.0035 -0.2260
 7102W        W23363  10.119  12.583   3.919 -0.1217 -0.0866  0.0089
 7103W        W23364  13.129  15.979  13.734 -0.1454  0.0121  0.0680
 7104W        W23365  13.167  10.125  11.259  0.1168 -0.1171  0.0700
 7105W        W23366  11.700   2.008   0.533  0.1753  0.4019 -0.0370
 7106W        W23367  16.285   1.378  12.542 -0.0907  0.3504  0.4943
 7107W        W23368  19.062   5.904   2.607  0.0679 -0.1570  0.0012
 7108W        W23369  13.456  18.876   0.889 -0.0007  0.0713  0.0609
 7109W        W23370  14.707  15.485   1.178 -0.5650 -0.0084  0.3165
 7110W        W23371   5.717   9.980  11.757 -0.1161 -0.1533 -0.2452
 7111W        W23372   5.502   9.579  12.851 -0.4976 -0.1132 -0.0608
 7112W        W23373  19.407  18.451   2.058 -0.0351  0.0302  0.1096
 7113W        W23374   7.390   8.432   0.716 -0.1802  0.2062 -0.0490
 7114W        W23375   9.743   4.959  10.698 -0.0247  0.0034  0.1084
 7115W        W23376   6.750  12.235   2.477 -0.0740 -0.1723  0.1110
 7116W        W23377   1.828   1.225   5.150  0.0461  0.1813  0.0845
 7117W        W23378  13.566  17.451  10.232 -0.0165 -0.0107 -0.0664
 7118W        W23379  15.159  18.223   0.607 -0.0852 -0.0836 -0.0198
 7119W        W23380  15.607   1.628  13.815  0.9059 -0.1101  0.2761
 7120W        W23381  14.387  14.227  12.217 -0.1803  0.1407  0.0377
 7121W        W23382   7.655   4.187  10.597 -0.0220 -0.1416 -0.1632
 7122W        W23383   2.802  16.416  12.157 -0.3124  0.0805  0.2383
 7123W        W23384   6.477   3.624   4.102  0.0769  0.4022  0.0324
 7124W        W23385   2.452   0.821   0.251  0.0161 -0.0753 -0.0008
 7125W        W23386   7.092   8.906   2.352  0.0212  0.0418  0.0768
 7126W        W23387   4.525  15.968   4.266  0.0644  0.0397  0.0254
 7127W        W23388  14.130   7.490  13.233  0.2039  0.1440 -0.2612
 7128W        W23389  14.579   5.677   2.605 -0.0964 -0.0539 -0.1379
 7129W        W23390  11.670  11.259   3.094 -0.3370 -0.0146 -0.1051
 7130W        W23391  13.659   9.594  12.246 -0.2632 -0.1153  0.0460
 7131W        W23392   8.774  16.724  11.073 -0.1451 -0.1313 -0.1040
 7132W        W23393   1.542  12.965   1.931 -0.0504  0.1045 -0.1904
 7133W        W23394   4.223   1.206   5.284  0.3650 -0.1275  0.0842
 7134W        W23395  15.689  10.411   1.176  0.3143  0.0645 -0.0597
 7135W        W23396   7.870   3.347  12.695  0.2089 -0.1470 -0.1499
 7136W        W23397  10.772   9.227  12.972  0.3756 -0.0638  0.5293
 7137W        W23398  10.292  11.228  14.254 -0.1263 -0.2194 -0.2044
 7138W        W23399  15.050  12.661  11.777  0.2813  0.0068  0.3605
 7139W        W23400  16.449  15.446  13.094 -0.0930  0.1804 -0.2211
 7140W        W23401   6.893  12.919  11.471  0.1057 -0.0013  0.3258
 7141W        W23402  12.901   2.683   4.502  0.1588  0.0180 -0.1713
 7142W        W23403   5.247   7.842   4.332 -0.0966 -0.1177 -0.0212
 7143W        W23404  16.882   6.142  10.569  0.3152  0.0554 -0.0420
 7144W        W23405   4.235  16.446   0.954 -0.1688 -0.2577 -0.2957
 7145W        W23406   0.082  18.468   4.605 -0.0718  0.1395 -0.1869
 7146W        W23407  14.157  18.751  14.308  0.2204 -0.1691  0.0519
 7147W        W23408   1.538  12.030  11.002  0.0294  0.2002 -0.0796
 7148W        W23409   4.177  14.678  11.559  0.0384  0.0928  0.1851
 7149W        W23410  13.528  11.608  10.580 -0.0900  0.0748  0.3419
 7150W        W23411   4.029   3.700   4.338 -0.2715 -0.2172  0.2045
 7151W        W23412  15.722  12.920   2.265  0.1113  0.1405 -0.1556
 7152W        W23413   8.242  14.180   3.623 -0.0640  0.0910 -0.0413
 7153W        W23414   6.754  12.377  11.786 -0.2494  0.5273  0.4201
 7154W        W23415   3.224   0.494  14.337  0.0413  0.1705 -0.2532
 7155W        W23416  12.929   8.129   2.895  0.1237 -0.0898 -0.0881
 7156W        W23417   5.718  13.347   0.834  0.0455 -0.2249  0.0124
 7157W        W23418   7.018  14.268   5.485 -0.1518  0.2465  0.2459
 7158W        W23419  13.996   1.829   4.038  0.1717 -0.0185  0.2921
 7159W        W23420   3.707  14.220  14.820 -0.1743 -0.1377  0.1395
 7160W        W23421   2.462   3.683   0.783 -0.0609  0.2949  0.2385
 7161W        W23422   4.053   8.453   2.085 -0.1113  0.0607  0.0321
 7162W        W23423  16.576   3.358  12.691  0.1201  0.2014 -0.3577
 7163W        W23424   0.715  16.188   3.717 -0.2035 -0.2234  0.2482
 7164W        W23425   3.725   2.237   1.169  0.0484  0.0734 -0.0659
 7165W        W23426  12.660   4.778   1.404  0.4300  0.1256  0.1077
 7166W        W23427  12.167  15.197  14.180  0.1932 -0.2979 -0.0863
 7167W        W23428  16.265  13.511  12.189  0.0476  0.0875 -0.0593
 7168W        W23429   3.831   8.785   2.369 -0.0614  0.2246 -0.2369
 7169W        W23430  10.524  18.824  12.471 -0.0036  0.2051 -0.0254
 7170W        W23431  13.974  15.037  11.861 -0.3200  0.1083 -0.0376
 7171W        W23432   8.413  12.730   0.933 -0.0328  0.1176 -0.0764
 7172W        W23433  13.304   6.317  13.374  0.1190  0.1068 -0.2151
 7173W        W23434  16.988  17.423   4.361  0.0665 -0.2805  0.1264
 7174W        W23435   4.776   4.958   1.941  0.1325 -0.2919  0.0158
 7175W        W23436   5.445  10.098  12.936 -0.1007  0.1789  0.1877
 7176W        W23437  15.995  13.049   3.266  0.2851 -0.0415 -0.1420
 7177W        W23438  18.383   5.390   4.645  0.3217 -0.1494  0.1816
 7178W        W23439  12.516  15.162   4.540  0.0856 -0.1033 -0.0894
 7179W        W23440   3.689   4.290  11.862 -0.0450 -0.1316  0.0147
 7180W        W23441  15.847   6.848   2.086 -0.1572  0.0953 -0.0668
 7181W        W23442   7.049   6.446  13.594 -0.3061 -0.4669 -0.1405
 7182W        W23443  14.069  18.344  10.621  0.1686 -0.0238 -0.0283
 7183W        W23444  11.293   5.772   2.770  0.1771 -0.3408  0.1562
 7184W        W23445  17.568  11.827   0.068  0.1124  0.6796 -0.0523
 7185W        W23446  16.363  18.992  13.090  0.0567 -0.0296 -0.1669
 7186W        W23447  14.137  10.976   0.380  0.0692 -0.0437 -0.2786
 7187W        W23448  10.205   2.911  10.371  0.2650  0.1413  0.3239
 7188W        W23449  15.151   1.843  10.373  0.0849 -0.1472 -0.1256
 7189W        W23450   8.086   8.335   2.773 -0.2243  0.1768  0.2819
 7190W        W23451   1.213  13.858  14.024 -0.0653 -0.0075 -0.1555
 7191W        W23452  19.058  12.834  13.229 -0.2506 -0.4565  0.0525
 7192W        W23453  18.100  14.541   4.033  0.0164  0.1846 -0.2330
 7193W        W23454   0.671  15.380  14.113  0.2576 -0.1617  0.1140
 7194W        W23455  17.911   4.360  12.599  0.0728  0.0202  0.2044
 7195W        W23456   1.383  12.114   0.097  0.1465  0.2004  0.0756
 7196W        W23457  11.913  10.939  10.998  0.0011 -0.1224 -0.1069
 7197W        W23458   1.016   2.915  13.004 -0.0183  0.1036  0.3724
 7198W        W23459  14.392   0.878  10.264 -0.0172 -0.2515  0.0464
 7199W        W23460  12.130  15.678  12.218 -0.0409 -0.1617  0.0021
 7200W        W23461  17.862   7.501   3.404 -0.0681  0.1718  0.2105
 7201W        W23462   1.790   8.500   5.184 -0.4037  0.3627  0.0583
 7202W        W23463   4.723   2.489  11.714 -0.1062 -0.2034 -0.0985
 7203W        W23464  19.221  11.495  10.561  0.0201 -0.1325  0.0211
 7204W        W23465  17.031  14.547  10.848 -0.3788  0.2404 -0.1546
 7205W        W23466  17.752   2.871   5.266  0.2130  0.0214  0.1154
 7206W        W23467   3.843   5.274   5.281  0.1620  0.1657  0.1999
 7207W        W23468   3.767  15.274  10.754  0.3562  0.1307  0.2312
 7208W        W23469   4.128  11.899   2.830 -0.0859 -0.1323  0.1613
 7209W        W23470   7.374   3.621  10.051  0.5484  0.0142  0.0785
 7210W        W23471  13.604   2.462   2.143 -0.1801 -0.1099  0.0095
 7211W        W23472   2.433   2.195  14.251  0.2122  0.1124 -0.2221
 7212W        W23473   3.292   2.402  11.516  0.1199 -0.2850 -0.1156
 7213W        W23474   5.160  14.311   3.423  0.1334  0.1673  0.2628
 7214W        W23475  13.308   9.762  10.824 -0.0182 -0.0530  0.1236
 7215W        W23476   6.565  11.621   4.112  0.2059 -0.0032 -0.1107
 7216W        W23477   6.405   0.064  10.480  0.0051  0.0728  0.2550
 7217W        W23478   7.623   1.422  13.975  0.0773  0.3211 -0.0795
 7218W        W23479   3.554  18.295  10.997 -0.0114  0.0693  0.0698
 7219W        W23480  10.640   6.611   5.263 -0.2483 -0.4222 -0.3821
 7220W        W23481   1.476  13.035  14.591  0.1835  0.0530  0.1526
 7221W        W23482  19.176  18.878   1.858 -0.0203  0.1637 -0.1152
 7222W        W23483   5.153  14.450   2.277  0.0628  0.1538  0.2480
 7223W        W23484   1.569   3.692   5.053 -0.2622 -0.0619  0.3200
 7224W        W23485   0.462   1.226  10.961  0.1301  0.1273 -0.0810
 7225W        W23486  17.053   6.641   0.249  0.0408  0.0358  0.0288
 7226W        W23487   3.898   2.063  13.223 -0.0863  0.2562  0.0940
 7227W        W23488   7.312  19.394  12.132  0.1551 -0.2613  0.0297
 7228W        W23489   5.625  15.049  12.534 -0.1811 -0.1808 -0.1710
 7229W        W23490  12.933   6.712  11.911 -0.1725  0.3309 -0.1311
 7230W        W23491  11.566  17.363  14.853 -0.3858 -0.2170  0.3721
 7231W        W23492  19.124  10.671   4.355 -0.5198 -0.1260  0.2250
 7232W        W23493  15.956  13.272  12.538 -0.2167  0.1844  0.0081
 7233W        W23494   5.784   9.890  13.903  0.0116  0.0516 -0.3968
 7234W        W23495  13.622   1.236  11.827 -0.0612 -0.0661 -0.0805
 7235W        W23496   0.451   3.322   5.444 -0.2205 -0.3195 -0.1390
 7236W        W23497  17.099  11.931  10.752  0.0387  0.2736 -0.4920
 7237W        W23498  13.832   1.883   0.965 -0.0594  0.0779  0.1710
 7238W        W23499   4.870  11.644  14.488 -0.1127 -0.0866  0.2079
 7239W        W23500  18.240  13.085   9.107  0.1723  0.0625 -0.3829
 7240W        W23501   8.545  18.471  10.491 -0.3543  0.0722 -0.1917
 7241W        W23502   7.822  11.540   3.328 -0.1742  0.1744  0.1630
 7242W        W23503  17.088  12.116   2.080 -0.2796 -0.0888 -0.1179
 7243W        W23504  11.320  11.981  14.560  0.2490 -0.1682 -0.0105
 7244W        W23505   9.912  10.953  11.154  0.0474  0.3950  0.1056
 7245W        W23506   8.580  11.877  12.801 -0.2772  0.0218 -0.0902
 7246W        W23507   7.428   1.812  13.267  0.3243  0.2203 -0.1905
 7247W        W23508  12.868  14.061   0.667  0.3324 -0.2531 -0.1792
 7248W        W23509   5.245  17.178   0.279 -0.0617 -0.0705 -0.0765
 7249W        W23510  18.469   7.126   5.747  0.2694  0.0296  0.1745
 7250W        W23511  14.886   1.991   1.660  0.0935 -0.0906 -0.2652
 7251W        W23512   5.388  11.454  13.051 -0.1548 -0.0620 -0.2744
 7252W        W23513   3.091   6.568  13.304  0.1631 -0.0566 -0.0743
 7253W        W23514  12.168  11.821  14.367 -0.1508  0.0053  0.2795
 7254W        W23515   9.754  12.486  12.721 -0.0020  0.0303 -0.0996
 7255W        W23516  13.731  15.108   3.990  0.0529 -0.4068 -0.0885
 7256W        W23517   9.390   8.512   3.689  0.1297 -0.0165  0.1802
 7257W        W23518  15.230  18.767  12.553 -0.2264  0.3171  0.2587
 7258W        W23519  13.606   6.928  14.439  0.1596  0.2440 -0.0757
 7259W        W23520   2.411   9.814   3.108  0.0629 -0.2579 -0.3822
 7260W        W23521  12.797  13.239  11.119 -0.0880 -0.0184  0.2529
 7261W        W23522  16.080   2.977   1.378 -0.1143  0.0118  0.1357
 7262W        W23523  16.647   5.953   4.865 -0.3023 -0.0680 -0.0943
 7263W        W23524   8.239  14.495   1.531 -0.2065 -0.2721  0.0099
 7264W        W23525   9.039   3.611   1.488  0.1733  0.0200 -0.1417
 7265W        W23526  13.398  12.115  12.287 -0.5851 -0.5531  0.0308
 7266W        W23527  10.661  13.358   4.241  0.1736  0.1957  0.4671
 7267W        W23528  14.128  15.298  10.841 -0.2138  0.2598 -0.0023
 7268W        W23529   9.933   6.968   3.759  0.0732 -0.1684  0.1442
 7269W        W23530   5.176   9.269   3.470  0.0637  0.0116 -0.1700
 7270W        W23531   9.597   4.006   5.108 -0.0895  0.1268  0.1368
 7271W        W23532   1.499   1.760  13.413 -0.1483 -0.2095 -0.1306
 7272W        W23533   5.146  11.985  10.683  0.1483  0.1815  0.1680
 7273W        W23534  14.712   2.699  11.903  0.1076 -0.3344 -0.0208
 7274W        W23535   8.224   4.909   2.663 -0.1477  0.0323 -0.1497
 7275W        W23536   5.495  14.078   2.396  0.2659  0.0491 -0.2060
 7276W        W23537   6.351  13.534   4.396  0.2104  0.1768  0.0477
 7277W        W23538   8.459   4.427  10.438 -0.0904  0.2854  0.0958
 7278W        W23539  16.428   1.450  11.319  0.0939  0.1720 -0.0080
 7279W        W23540   0.478  17.835   3.599  0.1687  0.0163  0.3373
 7280W        W23541  10.041  16.470   0.197  0.2400 -0.0531 -0.0720
 7281W        W23542  13.319   6.433  11.554  0.0911 -0.0503 -0.1119
 7282W        W23543  14.180  14.419  10.011  0.0749 -0.2523  0.3938
 7283W        W23544  14.788  10.448  12.996 -0.0134  0.1022 -0.0733
 7284W        W23545  17.570  15.425   3.079  0.2032 -0.0237 -0.1001
 7285W        W23546   9.006   0.579   0.961  0.0671 -0.0477  0.0441
 7286W        W23547   3.019  10.759  12.745  0.3162  0.0080  0.1647
 7287W        W23548   7.156  13.591  12.446  0.0011  0.0220  0.1943
 7288W        W23549  17.446   3.986  10.719  0.3816 -0.2274 -0.3806
 7289W        W23550   4.924   0.124  10.081  0.1400  0.2057 -0.2078
 7290W        W23551  18.949   7.715   2.293  0.1384  0.0756  0.1143
 7291W        W23552  10.035   3.101  12.502 -0.0790 -0.0302 -0.0357
 7292W        W23553  15.669   0.494   4.101  0.1779  0.2282 -0.0696
 7293W        W23554  13.319  17.777  11.201 -0.0263 -0.0480  0.0468
 7294W        W23555   0.873   9.537  14.530 -0.0895 -0.0842  0.1789
 7295W        W23556  15.479  16.442   0.220  0.0339 -0.1212  0.0382
 7296W        W23557   2.349  18.054   3.984  0.2003  0.1333  0.2035
 7297W        W23558   0.807  12.521  14.682 -0.1061  0.2005  0.0726
 7298W        W23559   5.580   6.783   4.067  0.2319  0.0253  0.1690
 7299W        W23560  14.169  18.905  10.784 -0.0155  0.3328 -0.0685
 7300W        W23561  11.975   2.775  13.910  0.1161 -0.2483 -0.3334
 7301W        W23562   6.720   3.275   2.776  0.0281 -0.0976  0.3584
 7302W        W23563   2.063  13.387  13.969  0.1061 -0.4295 -0.0106
 7303W        W23564  11.799   3.569   2.251  0.1252  0.0557  0.3132
 7304W        W23565   9.708  16.400   0.590 -0.0152  0.0982 -0.0168
 7305W        W23566   8.961   3.095   0.109  0.3254  0.0617  0.0505
 7306W        W23567  13.049   1.627  10.318  0.2242 -0.0215  0.1480
 7307W        W23568  17.696   0.444  12.478  0.0246  0.2153 -0.1943
 7308W        W23569   3.224   9.977   4.447 -0.1181 -0.0487  0.1034
 7309W        W23570  14.743   5.619   5.831 -0.0454  0.0844  0.1192
 7310W        W23571  17.400   7.286  14.558 -0.0764 -0.2818 -0.0945
 7311W        W23572  13.432   8.869   1.364  0.1640 -0.3128  0.0216
 7312W        W23573  13.267  14.692   3.994 -0.1350 -0.1521 -0.1697
 7313W        W23574   3.241   8.958  13.055 -0.1117  0.0302  0.0372
 7314W        W23575  10.154   3.909  10.532  0.0045 -0.0323 -0.2793
 7315W        W23576   9.267  19.325  13.661  0.1284 -0.0077 -0.3900
 7316W        W23577   6.381   2.551  14.814 -0.0289 -0.0026 -0.0550
 7317W        W23578  17.105   7.737   1.389 -0.0500  0.2048  0.1668
 7318W        W23579   4.405  18.240  11.331  0.1668 -0.1711 -0.0295
 7319W        W23580   3.472  18.301   1.943 -0.1495  0.0070  0.1708
 7320W        W23581  16.914   7.310  14.361  0.0003  0.1087  0.0741
 7321W        W23582  15.381   7.057   5.268  0.0190 -0.0652 -0.2046
 7322W        W23583   3.515  13.438  14.374  0.3773 -0.4891 -0.1080
 7323W        W23584  13.283  14.230   1.755  0.2421  0.3187  0.2303
 7324W        W23585  14.889  14.269   3.729  0.0361 -0.1545 -0.0842
 7325W        W23586   1.445  16.550  12.477 -0.0325  0.2515 -0.0977
 7326W        W23587   9.072   6.789   1.137 -0.0868 -0.2448 -0.1533
 7327W        W23588   6.037   3.546  13.105 -0.1215 -0.0651  0.0640
 7328W        W23589  18.632  16.311  14.661  0.2177  0.0277  0.1489
 7329W        W23590   4.444   6.183   4.803 -0.0950 -0.2365  0.2025
 7330W        W23591   3.662   9.621   4.584 -0.0249  0.0655  0.1072
 7331W        W23592   6.746  14.658   3.849  0.1145 -0.1971 -0.0777
 7332W        W23593   5.164  10.471   0.828 -0.2287 -0.0644  0.0345
 7333W        W23594   4.616  12.023   5.275 -0.2427 -0.0045  0.3315
 7334W        W23595  11.442  17.278  13.485 -0.0195 -0.3564 -0.0139
 7335W        W23596   9.321   9.292  11.915  0.6190  0.0932 -0.1068
 7336W        W23597  14.819   0.757  11.827  0.2614 -0.0630  0.0857
 7337W        W23598   6.634  18.911  12.616  0.0634  0.3480  0.0892
 7338W        W23599   9.859  16.405   5.082  0.1531  0.0085  0.2223
 7339W        W23600   6.259   2.522  13.657  0.2720  0.2987  0.0759
 7340W        W23601  17.130   2.451   4.475  0.0417  0.0641  0.1266
 7341W        W23602  13.715  10.060  11.996  0.0651  0.1805 -0.0268
 7342W        W23603  17.798   7.480  12.623  0.0398  0.2257 -0.0097
 7343W        W23604   5.841   9.219  10.850  0.0367  0.0871  0.4170
 7344W        W23605  17.860  16.618   1.574 -0.3383  0.0564 -0.1284
 7345W        W23606  19.021  12.458   5.368  0.2343  0.0323  0.1797
 7346W        W23607   8.400   0.969   4.540 -0.1932  0.1361 -0.2632
 7347W        W23608  15.991  15.449   0.846 -0.3053 -0.0130 -0.1257
 7348W        W23609   9.394  11.102  14.709  0.0371  0.0477  0.1702
 7349W        W23610  18.790  11.746  10.426 -0.2668  0.3048 -0.0665
 7350W        W23611  11.622  18.369  12.923 -0.2829  0.0646 -0.2511
 7351W        W23612  11.290   8.277   0.360  0.1416  0.1779  0.0907
 7352W        W23613  11.582   6.662   5.129  0.1092  0.4241  0.0333
 7353W        W23614   1.081   8.921   1.319  0.1612 -0.2145 -0.2387
 7354W        W23615   4.318  14.962   3.596 -0.0533  0.1580 -0.0510
 7355W        W23616   9.653   6.948  13.794  0.1631  0.0538  0.2144
 7356W        W23617   8.261   4.833  12.107 -0.0303  0.1513  0.0680
 7357W        W23618  14.925   5.362   1.435 -0.0616 -0.0570  0.3471
 7358W        W23619  15.478  13.041   3.451  0.1005  0.1898  0.0187
 7359W        W23620   4.043  11.132  14.440  0.0552 -0.0286 -0.4862
 7360W        W23621   8.153  15.544  12.731  0.1992 -0.0285  0.0520
 7361W        W23622  17.085  16.510   4.785 -0.4181  0.0980 -0.0704
 7362W        W23623  13.112   6.363   4.087 -0.0272  0.2200  0.4248
 7363W        W23624   4.796  12.418   2.402  0.2496 -0.0789  0.2763
 7364W        W23625  14.160  17.762   3.972 -0.1015  0.0528 -0.0697
 7365W        W23626   7.099  11.973   2.749 -0.1950  0.0398 -0.2690
 7366W        W23627   6.924   3.243  11.103  0.2255 -0.0149 -0.2922
 7367W        W23628   3.439   7.419  14.769 -0.0281  0.1310 -0.0712
 7368W        W23629  16.241   5.346  13.331 -0.0409  0.0053  0.0577
 7369W        W23630   2.301   7.142  13.903 -0.2533  0.2709 -0.1268
 7370W        W23631   0.857   9.229   1.013 -0.1910  0.1069 -0.2346
 7371W        W23632  14.029   2.117   2.087 -0.0591 -0.1355  0.2156
 7372W        W23633  13.088  14.289  11.052 -0.1142  0.0761  0.1751
 7373W        W23634  17.973   9.649   1.011  0.1894 -0.2834 -0.1779
 7374W        W23635   5.476  11.885   4.386 -0.0295 -0.1337 -0.5341
 7375W        W23636  16.830  16.287  14.772  0.0013  0.1014 -0.2207
 7376W        W23637   9.779   1.349  13.368  0.2195  0.1414  0.1797
 7377W        W23638   5.191   4.342   1.789 -0.0951 -0.0711 -0.0213
 7378W        W23639  15.317   0.893  13.949 -0.2323 -0.4617 -0.0213
 7379W        W23640   7.814  10.918   1.639 -0.2043 -0.1423  0.1213
 7380W        W23641  16.542  11.324   1.317 -0.0260  0.0883 -0.1243
 7381W        W23642   9.267  16.916  13.956  0.3929 -0.0280  0.0454
 7382W        W23643   2.750  18.068  12.605 -0.0225 -0.1401  0.1549
 7383W        W23644   1.499  15.902  11.885 -0.0008 -0.1319 -0.0274
 7384W        W23645  12.320  12.449   9.863  0.1255  0.3853  0.1391
 7385W        W23646   6.279   2.530   4.720  0.3416  0.0616 -0.0025
 7386W        W23647  13.034  17.039  12.472 -0.1083 -0.3047  0.0972
 7387W        W23648   5.633  17.353  14.643  0.1885 -0.0634 -0.0981
 7388W        W23649  16.781  15.567   2.494 -0.1101 -0.0841 -0.0267
 7389W        W23650   5.583  11.654  13.939  0.2429 -0.2474 -0.1787
 7390W        W23651  16.776   7.579  14.857  0.2297  0.1617 -0.2489
 7391W        W23652  16.167   5.730   4.038  0.0043  0.2528  0.0662
 7392W        W23653  13.989  10.070   3.905 -0.0199 -0.1095 -0.3132
 7393W        W23654   9.399   3.067   1.321  0.2540 -0.0105 -0.0030
 7394W        W23655  14.524  10.191   2.972 -0.1336  0.2461  0.1614
 7395W        W23656  15.762  13.242   3.857 -0.0108  0.3631  0.0560
 7396W        W23657  10.366   7.433  11.825  0.1006  0.2625  0.1261
 7397W        W23658  17.687   4.265   2.533  0.1001 -0.0608  0.0447
 7398W        W23659  12.240  12.181  14.058 -0.1280  0.1927 -0.2004
 7399W        W23660   1.651  16.216   4.674  0.0271 -0.1733  0.0637
 7400W        W23661   7.394   1.116   2.430 -0.4307  0.0564 -0.0846
 7401W        W23662   9.921  17.061   1.272 -0.2126 -0.1477  0.4255
 7402W        W23663   4.912  12.493   4.485 -0.1181  0.0761 -0.2989
 7403W        W23664  15.572  18.539  14.732 -0.3882 -0.1791 -0.2563
 7404W        W23665  17.986   4.682  14.783  0.0928 -0.4766 -0.2817
 7405W        W23666   3.391   7.372   1.734 -0.2804  0.0307  0.2231
 7406W        W23667  17.476  15.145  13.158 -0.1254  0.7563  0.0756
 7407W        W23668  14.945  13.156  11.646 -0.0985  0.1907 -0.2370
 7408W        W23669   4.032   6.481   1.323  0.1631 -0.0537 -0.0249
 7409W        W23670   4.526   0.399   4.407  0.0341  0.0500 -0.1954
 7410W        W23671   1.837   9.198  11.220  0.2258  0.2093 -0.5257
 7411W        W23672  16.548   3.582  10.854  0.1530  0.1267  0.3044
 7412W        W23673  15.538   1.249  12.037 -0.1924 -0.1885  0.2582
 7413W        W23674  17.553   1.995   1.987  0.1363  0.1023 -0.1302
 7414W        W23675  12.308  17.896  14.013 -0.2830  0.2408 -0.0826
 7415W        W23676   4.133   3.479   3.299 -0.0702  0.1339  0.0921
 7416W        W23677   3.036   7.805  11.802  0.0439 -0.2748 -0.2739
 7417W        W23678  15.106   2.103   3.889 -0.0992 -0.1855 -0.0302
 7418W        W23679  13.900   3.587  10.977  0.1274  0.2059  0.2469
 7419W        W23680   4.518   5.090  14.259  0.2323  0.0248  0.2427
 7420W        W23681  17.667  18.045   2.046  0.1708  0.3426 -0.2332
 7421W        W23682  15.133   9.505  10.893 -0.0449 -0.1761  0.0655
 7422W        W23683  15.781   1.608   0.612 -0.0158 -0.2513 -0.4635
 7423W        W23684   7.857   8.824  12.927 -0.0484 -0.2934 -0.2307
 7424W        W23685   2.627   9.775  14.404  0.3293 -0.3053 -0.0908
 7425W        W23686  15.076   7.704   0.038 -0.0628 -0.0816  0.2560
 7426W        W23687  11.403   1.895  10.186  0.0178  0.1881  0.2098
 7427W        W23688   5.010   2.112  13.587  0.1781 -0.2049  0.0202
 7428W        W23689   9.981  10.824  14.091 -0.0321 -0.0387 -0.0885
 7429W        W23690  12.677   4.810  13.719  0.1877 -0.0564 -0.2837
 7430W        W23691   4.644  13.187  14.558  0.1398 -0.1890 -0.1737
 7431W        W23692   0.912   5.561   1.275 -0.3535 -0.1102  0.0174
 7432W        W23693   9.284  11.342   4.898 -0.0716  0.0887  0.2343
 7433W        W23694   8.182  15.422   1.070 -0.3374  0.0865  0.0709
 7434W        W23695   1.292  13.491   3.233  0.2669  0.1043 -0.1089
 7435W        W23696   1.290   3.766   1.505  0.1875 -0.2352  0.0498
 7436W        W23697   2.741   6.138   0.959  0.0190 -0.0575 -0.0807
 7437W        W23698   6.195   4.712   2.272  0.3472  0.0982  0.2865
 7438W        W23699   8.705  11.569  10.085  0.1300  0.2204 -0.1482
 7439W        W23700   6.623   3.299  11.515 -0.1427  0.0691  0.2450
 7440W        W23701   2.703  16.443  10.885  0.3773 -0.0359  0.1039
 7441W        W23702   5.079   6.569  13.098 -0.2420 -0.0356 -0.2762
 7442W        W23703   3.423   2.328   4.456 -0.0749  0.0917  0.1924
 7443W        W23704  13.406   1.947  14.510 -0.0455  0.2171  0.1239
 7444W        W23705   9.466   2.154   2.823  0.2742  0.3240 -0.1017
 7445W        W23706   9.310  10.336   1.531 -0.1616  0.0146 -0.0373
 7446W        W23707   0.700  18.957  11.905  0.0211  0.0492 -0.3254
 7447W        W23708   7.499   3.876  12.589 -0.1883 -0.0244 -0.3211
 7448W        W23709  10.670  15.314  13.990 -0.1721 -0.1577 -0.1355
 7449W        W23710  15.600   0.363   2.232 -0.0731 -0.0327  0.0530
 7450W        W23711  15.781  19.306  11.330 -0.0055  0.0739 -0.0877
 7451W        W23712   4.317  10.381  10.276 -0.0836 -0.2080  0.1305
 7452W        W23713  18.569  14.975  11.912  0.1445 -0.3895  0.0296
 7453W        W23714   5.481   3.415  12.181  0.1585 -0.0644 -0.2715
 7454W        W23715   4.436   6.676   4.061  0.0192 -0.0504 -0.2548
 7455W        W23716  14.822   6.457  12.163  0.0619  0.0923  0.1302
 7456W        W23717  12.171   3.421   0.562  0.0137 -0.0297 -0.0429
 7457W        W23718   3.920  19.327   4.542  0.0853 -0.1272  0.3568
 7458W        W23719  13.057  10.644  14.693  0.0784 -0.2610 -0.2015
 7459W        W23720  11.247  15.502   4.977  0.0795  0.0100  0.2768
 7460W        W23721  11.471   3.306  12.585 -0.1696 -0.3777  0.3113
 7461W        W23722  15.690  17.592  14.810 -0.3214  0.1130  0.0176
 7462W        W23723   7.022   9.867  13.475 -0.0584 -0.0775  0.0942
 7463W        W23724  16.358  13.557  14.825  0.3148  0.1419 -0.0721
 7464W        W23725  13.393   3.943  14.536  0.1423  0.2690 -0.0990
 7465W        W23726  19.115   4.186  13.163 -0.0667  0.2511  0.0423
 7466W        W23727   6.533   9.701   1.542 -0.2483 -0.2698  0.1136
 7467W        W23728  13.545   5.254  14.612  0.0249 -0.0452  0.1265
 7468W        W23729  16.042  17.274  13.469 -0.0314  0.2237  0.2262
 7469W        W23730   7.138   9.735  14.002  0.1850 -0.1938 -0.0626
 7470W        W23731  16.476  14.624  10.543 -0.1493 -0.2427 -0.0821
 7471W        W23732  16.989  16.674   1.315  0.0510  0.1491  0.0800
 7472W        W23733   3.375  16.663   4.107  0.2855 -0.0050 -0.0225
 7473W        W23734   2.584   1.017  11.624  0.0354 -0.3573  0.0781
 7474W        W23735   4.696  15.809   2.823  0.2509  0.0892  0.0530
 7475W        W23736   8.437   6.487  10.376  0.1644  0.2176  0.2114
 7476W        W23737   3.529  12.872   1.547  0.1202  0.0366  0.1583
 7477W        W23738  15.642  17.561  13.262 -0.1035 -0.0339  0.0328
 7478W        W23739   8.844  11.634   1.338  0.1180 -0.2233 -0.1442
 7479W        W23740   8.903  12.549   2.207 -0.1326  0.0762  0.0715
 7480W        W23741  16.498   0.439  12.583 -0.0169  0.1397  0.3673
 7481W        W23742   2.105  17.819  11.628 -0.0186 -0.3243  0.2046
 7482W        W23743   0.411  12.474  11.579 -0.2176 -0.1801  0.0287
 7483W        W23744  19.086   5.868  10.976 -0.2392  0.2482  0.3582
 7484W        W23745   4.101   2.799   3.860 -0.0754 -0.0011  0.0496
 7485W        W23746   8.538   7.761   3.413  0.0535  0.1380 -0.1976
 7486W        W23747  16.923  13.840  11.756 -0.1089  0.1470 -0.4290
 7487W        W23748  18.639  15.942   0.733 -0.3245  0.1232 -0.2580
 7488W        W23749   6.673   7.535   0.755  0.3535 -0.0063  0.1274
 7489W        W23750   8.376  10.063  12.617 -0.1448  0.0732  0.3793
 7490W        W23751   9.998   1.738  11.355 -0.1228  0.0514 -0.0843
 7491W        W23752   5.509  10.297  13.868  0.2011  0.2675  0.2340
 7492W        W23753   5.086   0.192  11.489 -0.0931 -0.2433 -0.2888
 7493W        W23754  16.943  14.870   1.763 -0.0217 -0.0228  0.0624
 7494W        W23755   8.739   9.980  11.496 -0.0147  0.2051  0.0359
 7495W        W23756  19.376   1.065   0.785  0.2147 -0.0073  0.1918
 7496W        W23757  17.772  14.865  11.167  0.0070 -0.0119 -0.0503
 7497W        W23758   9.436   5.365   2.255  0.2837 -0.0758 -0.1086
 7498W        W23759   3.111   8.249   3.341  0.0398 -0.1406 -0.0403
 7499W        W23760  13.729  16.124   0.490  0.1106  0.2423  0.0100
 7500W        W23761   5.962   4.663   5.476 -0.3222 -0.1120 -0.1292
 7501W        W23762  16.745   6.990  13.307  0.1733  0.1967 -0.1345
 7502W        W23763  17.761   2.457   2.710  0.0918  0.1033 -0.1154
 7503W        W23764   7.915   4.776  13.643  0.1955  0.1572 -0.1978
 7504W        W23765   5.293   0.106  14.022  0.0785 -0.3119 -0.2226
 7505W        W23766   2.978  10.324   1.930 -0.2541 -0.0394 -0.0502
 7506W        W23767   3.122  16.081  12.971  0.0982 -0.1755  0.1690
 7507W        W23768   9.670   9.554   2.035  0.0827 -0.0421 -0.0394
 7508W        W23769   3.033   6.005   3.181  0.0966  0.0233 -0.0269
 7509W        W23770  11.190  11.135  12.139 -0.4293 -0.0559  0.1191
 7510W        W23771  17.283   0.123  13.549  0.2326  0.0645 -0.1386
 7511W        W23772  17.400  17.162  12.262  0.3611  0.0244 -0.4232
 7512W        W23773  10.986  16.516   1.751  0.1654 -0.0746 -0.2323
 7513W        W23774  11.017   5.463   4.196 -0.2844  0.1312 -0.1586
 7514W        W23775   1.506   5.342  12.945  0.1787  0.0033 -0.0307
 7515W        W23776   5.437  19.160   0.670 -0.0978 -0.4675  0.2069
 7516W        W23777   8.297  11.831   0.743 -0.1911  0.1078  0.1309
 7517W        W23778   6.921  15.152   3.261 -0.0878  0.3832 -0.2134
 7518W        W23779   1.512   4.960  11.587  0.0764  0.2959  0.4253
 7519W        W23780  17.279   9.803   0.568 -0.2568 -0.0319  0.1124
 7520W        W23781   9.108   1.262  12.586  0.1746  0.0404  0.3542
 7521W        W23782   9.056  10.730   0.156 -0.1454  0.2051  0.0262
 7522W        W23783   0.924   5.257   5.546  0.0833  0.3972  0.3687
 7523W        W23784  14.030  16.842   4.249  0.2659 -0.0378 -0.0847
 7524W        W23785  14.795  19.078  11.222  0.0775  0.0243 -0.1889
 7525W        W23786  16.282   1.389   0.828  0.1397 -0.5478 -0.2934
 7526W        W23787   5.270   1.057  12.379  0.2420  0.1720  0.0205
 7527W        W23788  12.841  11.950  11.988 -0.2943 -0.1332  0.4278
 7528W        W23789   6.311   7.568   5.250 -0.2123 -0.1221 -0.1108
 7529W        W23790  16.470   0.044   1.364  0.1980 -0.0018  0.2312
 7530W        W23791  13.721   2.833   3.411  0.3700  0.1423 -0.0600
 7531W        W23792  10.286   4.191   2.107 -0.1050 -0.2091 -0.1277
 7532W        W23793  12.665  13.902   3.000 -0.0545  0.0274 -0.0521
 7533W        W23794  15.357  12.294  12.519  0.0374 -0.1027  0.0581
 7534W        W23795  15.965   2.067   4.714 -0.1390 -0.0571  0.1993
 7535W        W23796   8.658   3.174  11.257 -0.1655 -0.1903  0.0074
 7536W        W23797  12.609   9.981  13.506  0.4647 -0.1660 -0.1394
 7537W        W23798   4.826   5.859   4.764  0.1523  0.1367  0.0694
 7538W        W23799   8.475   9.934   4.474 -0.0551  0.0860 -0.0858
 7539W        W23800  16.303  15.903  11.340 -0.3127 -0.2664  0.0038
 7540W        W23801   3.342  11.336  12.128 -0.3862 -0.0886 -0.2093
 7541W        W23802  13.922   2.570  14.655 -0.0595 -0.2401  0.1461
 7542W        W23803  12.905   0.158   2.731  0.1271 -0.0601  0.0976
 7543W        W23804  15.456  11.668  13.518  0.0743 -0.1444  0.2636
 7544W        W23805   9.633  18.515  11.433 -0.1952  0.0025  0.0497
 7545W        W23806   5.713  17.869  10.874  0.1201 -0.0283 -0.2647
 7546W        W23807  10.494   8.370   2.686  0.2017 -0.0597  0.0513
 7547W        W23808   0.267  16.555  12.612  0.2734  0.1091 -0.0316
 7548W        W23809   5.463   6.219  14.785 -0.1945 -0.0188  0.0792
 7549W        W23810  18.497   5.602  11.867  0.0749 -0.1350 -0.0629
 7550W        W23811   0.429  16.578   9.579 -0.1711  0.0282  0.0824
 7551W        W23812   4.807  17.612  13.404  0.3165  0.2210 -0.0605
 7552W        W23813  16.653  14.209   1.237  0.0793  0.1565 -0.1031
 7553W        W23814   8.465   2.764   4.006  0.1461 -0.0933 -0.0396
 7554W        W23815  16.331  14.820  10.122 -0.1069  0.1632  0.1891
 7555W        W23816   9.458   0.977   3.385 -0.2000 -0.1364 -0.1047
 7556W        W23817  13.207  11.221   2.324  0.0499  0.0564  0.0791
 7557W        W23818   4.275   0.861   3.023  0.0782  0.0553 -0.0364
 7558W        W23819   7.990   5.914   1.135 -0.0226 -0.1178  0.0508
 7559W        W23820   8.008   5.962   3.252 -0.0149 -0.0009 -0.0699
 7560W        W23821  17.525   5.437  12.988 -0.4135 -0.1340 -0.2823
 7561W        W23822  18.439   9.301  13.905  0.0759 -0.2709 -0.2461
 7562W        W23823  12.932   8.879   4.568  0.1065  0.4035 -0.1501
 7563W        W23824  18.573  17.660  10.834  0.0986 -0.0634 -0.0078
 7564W        W23825   8.113   2.054   1.890 -0.0385 -0.3120 -0.1282
 7565W        W23826   2.038  12.065  11.205 -0.0149 -0.0633  0.0528
 7566W        W23827  10.799   8.182   0.551 -0.0443 -0.1333  0.0205
 7567W        W23828  13.591  14.320   3.545 -0.0975  0.2759  0.0575
 7568W        W23829  10.845  13.424  14.524  0.1268 -0.0783 -0.1555
 7569W        W23830   5.467   5.238   1.511 -0.0458 -0.0375 -0.4049
 7570W        W23831  14.141  14.105   3.259  0.1818  0.1308  0.1931
 7571W        W23832   4.560   9.712   5.119 -0.1191  0.2509 -0.1189
 7572W        W23833  12.251  13.004   2.108 -0.1572  0.0943  0.1976
 7573W        W23834   5.018  15.012  10.253 -0.2468  0.2326 -0.2719
 7574W        W23835   3.766   2.173   2.365  0.2005  0.1917  0.1632
 7575W        W23836   0.620   9.662   4.630  0.0468  0.2115  0.2150
 7576W        W23837  18.546  13.895   2.152 -0.0891  0.0136 -0.1660
 7577W        W23838   4.388   0.050   0.596 -0.1618 -0.1444 -0.2882
 7578W        W23839  10.217   3.854   0.703  0.0286 -0.2960 -0.0931
 7579W        W23840  11.736   0.292  13.152 -0.0800  0.0525 -0.1016
 7580W        W23841  12.522   9.703   0.800  0.0422  0.0633  0.2559
 7581W        W23842   5.874   0.521   3.543  0.2448 -0.1098 -0.0159
 7582W        W23843   9.014   3.149  12.616  0.1332  0.0558  0.0537
 7583W        W23844   9.620   0.025   1.617 -0.0801 -0.1882 -0.2007
 7584W        W23845  13.683   9.167   3.354  0.0137 -0.1306  0.2105
 7585W        W23846  12.103  10.773   0.061  0.0386 -0.0588 -0.1237
 7586W        W23847  18.319  13.165  14.787 -0.0465 -0.0682  0.4867
 7587W        W23848   2.896   0.632  11.675  0.1800 -0.0614 -0.1394
 7588W        W23849  13.132   6.055  10.355  0.0690  0.3533  0.2298
 7589W        W23850   2.486   6.519   3.897 -0.2451 -0.0465 -0.2181
 7590W        W23851   9.062  12.847   1.339 -0.2402 -0.0175  0.1285
 7591W        W23852  18.855  13.213  14.035  0.2401 -0.0059 -0.0290
 7592W        W23853  18.231   4.061  10.971 -0.2635 -0.2202  0.2888
 7593W        W23854  13.439   0.305  10.078 -0.2955 -0.0327 -0.0298
 7594W        W23855   1.610  14.538   1.864  0.2594 -0.3034  0.1864
 7595W        W23856   7.013  14.667  14.231 -0.0487  0.2308 -0.0917
 7596W        W23857   1.057  17.667  14.367  0.0117 -0.0926 -0.0845
 7597W        W23858   4.036   7.222  12.510  0.2855  0.0628 -0.1542
 7598W        W23859   7.518  16.672   1.204 -0.2910  0.1666  0.0631
 7599W        W23860  13.850   3.602   5.403 -0.0248  0.0964 -0.0935
 7600W        W23861  15.006  16.549  13.535 -0.0142 -0.0301 -0.1626
 7601W        W23862  10.443   6.110   2.198  0.3769 -0.0260  0.0114
 7602W        W23863   5.381   5.639   3.751 -0.1132 -0.1010  0.0583
 7603W        W23864   4.024   0.919   1.766 -0.2482 -0.1035  0.3333
 7604W        W23865  18.064  10.624   5.125 -0.1113 -0.0175  0.0685
 7605W        W23866   0.650   8.160  11.105  0.0035 -0.0722  0.0358
 7606W        W23867   5.228  18.960   4.948  0.0713  0.1168  0.0546
 7607W        W23868  17.423  18.631   9.989 -0.2310 -0.2307  0.1174
 7608W        W23869  10.887  18.064   1.697 -0.0111  0.3247  0.2477
 7609W        W23870  18.930  12.190   4.415  0.0552  0.0996 -0.2992
 7610W        W23871   1.841  11.811   0.068  0.0081 -0.0766  0.1161
 7611W        W23872   3.411  17.381  13.190  0.1018 -0.2968  0.2889
 7612W        W23873  18.607  18.263  11.474  0.0963 -0.2287  0.0696
 7613W        W23874  10.272   7.844  11.119 -0.3775 -0.0031 -0.0439
 7614W        W23875  16.296  15.411  12.487  0.1981 -0.1418 -0.0874
 7615W        W23876  11.530  13.106   4.211  0.0677  0.0176  0.2109
 7616W        W23877  18.293  17.816  14.057 -0.4608  0.1386 -0.1694
 7617W        W23878   7.180  16.502  11.967  0.0519  0.3379  0.0000
 7618W        W23879   3.947  14.529  14.331  0.3591 -0.0485 -0.2637
 7619W        W23880  16.726  13.487  13.002 -0.1144  0.1237  0.1851
 7620W        W23881  12.100  17.575  11.711 -0.3819 -0.3187  0.0788
 7621W        W23882   7.389   8.448   3.498  0.0632  0.2519 -0.3532
 7622W        W23883  13.262  16.700  13.124  0.3669 -0.0780  0.1026
 7623W        W23884   9.155   6.968  12.436 -0.2370 -0.3160 -0.0505
 7624W        W23885   7.816  14.120   0.798  0.1205  0.1198  0.1257
 7625W        W23886   8.014   5.352  11.300 -0.2283 -0.0341  0.1292
 7626W        W23887   2.593   2.415   3.113 -0.3811 -0.0109 -0.0041
 7627W        W23888   5.513   4.430   4.920 -0.0027  0.1202  0.0982
 7628W        W23889  14.008   3.996   3.884 -0.3266 -0.0859 -0.3085
 7629W        W23890   9.144  17.159   3.446 -0.2232  0.1511 -0.1671
 7630W        W23891   2.790  12.693   0.164 -0.6149 -0.2251 -0.0545
 7631W        W23892   5.043   9.399  11.428 -0.1196  0.0671 -0.2073
 7632W        W23893  11.906   2.263  14.009 -0.5501  0.1986  0.0361
 7633W        W23894   4.655   3.429  14.729  0.0056  0.0625  0.3977
 7634W        W23895   4.595   6.120   2.289 -0.0989 -0.3501  0.1013
 7635W        W23896  17.121  18.059  11.172  0.0209 -0.0685  0.3321
 7636W        W23897  10.173  15.615   3.697  0.2109  0.0781  0.3254
 7637W        W23898  11.363  11.629  10.234 -0.4195 -0.0050  0.2124
 7638W        W23899   4.100  13.636  12.432 -0.0294  0.0929 -0.0054
 7639W        W23900  10.607  12.394  11.105 -0.4343 -0.2459 -0.0353
 7640W        W23901  15.636   6.754  12.699  0.2872  0.2347  0.0063
 7641W        W23902   8.464   3.426   5.195  0.2813  0.0633  0.1534
 7642W        W23903   5.692   7.620   4.075  0.5020  0.1051 -0.1605
 7643W        W23904   9.531   7.586   2.094 -0.3051 -0.1485  0.1010
 7644W        W23905   1.478   4.099   4.762  0.4798  0.0242  0.0207
 7645W        W23906   1.733   1.049  11.317  0.0298 -0.2520 -0.3002
 7646W        W23907   3.667  17.611  10.515 -0.0855 -0.0758 -0.2574
 7647W        W23908  17.003   6.313  11.584  0.1283  0.0097  0.1617
 7648W        W23909   5.629  12.053   3.938  0.2827  0.1920  0.3570
 7649W        W23910  12.893   3.180   4.621  0.0182  0.1337  0.0382
 7650W        W23911   7.698   6.054   2.834  0.2409 -0.1787  0.1396
 7651W        W23912   8.632   0.288   5.395  0.1147 -0.1959  0.2608
 7652W        W23913   2.606  15.593  13.907  0.0828  0.2014  0.0976
 7653W        W23914  17.706  12.819  11.983  0.3643 -0.0890  0.0108
 7654W        W23915  17.390  12.150   4.057  0.2188  0.1789 -0.2070
 7655W        W23916   3.850  13.717  10.695 -0.0766  0.2259 -0.0240
 7656W        W23917  18.657   9.857  10.696 -0.1380  0.2001  0.2451
 7657W        W23918   3.557  17.248   2.292  0.1491 -0.1750 -0.1189
 7658W        W23919   7.718  13.384   9.884  0.5541  0.1263 -0.0273
 7659W        W23920   2.196  13.377   2.291  0.6143  0.2822  0.0195
 7660W        W23921  19.271  12.729   2.176 -0.4091  0.1491  0.1450
 7661W        W23922   6.636   9.040  12.105  0.1041 -0.0793 -0.0858
 7662W        W23923   7.102  15.670   2.474  0.0731  0.1703  0.2084
 7663W        W23924   8.359   9.024   3.785 -0.0890  0.2022  0.0817
 7664W        W23925  18.111   9.317  11.782  0.1390  0.2025  0.2810
 7665W        W23926  16.127  17.174  11.354  0.0967 -0.1390  0.4005
 7666W        W23927  11.965   1.498  12.329 -0.0318  0.1033 -0.1795
 7667W        W23928   7.029   6.910   1.053 -0.0274 -0.1317  0.0111
 7668W        W23929   7.026  11.474  12.279  0.2404  0.2036  0.0752
 7669W        W23930  14.564   9.888  10.957 -0.1048 -0.0455 -0.5185
 7670W        W23931   1.207  14.327   2.769  0.3504  0.2962 -0.0954
 7671W        W23932  16.586  14.212   0.688 -0.1540 -0.1538 -0.2927
 7672W        W23933  17.338   0.355   1.571  0.0683 -0.1221  0.1158
 7673W        W23934  15.023   9.060  13.009  0.1602 -0.0633 -0.0790
 7674W        W23935   5.254   7.055   5.110 -0.0472 -0.1623  0.0411
 7675W        W23936   2.724   2.014   0.349 -0.3265 -0.0139  0.2832
 7676W        W23937   9.761  15.556  13.552  0.0747  0.0330  0.0493
 7677W        W23938  12.116  17.128   3.639 -0.1716  0.0233  0.0831
 7678W        W23939  10.388   6.113   3.562  0.1690  0.1072  0.0298
 7679W        W23940   1.558   4.834   2.913  0.2014  0.1537  0.0495
 7680W        W23941   4.868   3.985  11.973  0.0560  0.1292 -0.3942
 7681W        W23942  11.362  18.786   2.011  0.5449 -0.0790 -0.2828
 7682W        W23943  10.140   3.072   0.679 -0.0634 -0.2327 -0.1328
 7683W        W23944  11.784   3.559   3.810 -0.0767  0.1005 -0.0966
 7684W        W23945   0.681  14.003   3.851 -0.1254  0.0394 -0.4507
 7685W        W23946   9.981   3.213  13.731 -0.0083 -0.0243 -0.0601
 7686W        W23947   9.010   0.992   3.717  0.3158 -0.2358  0.0289
 7687W        W23948  15.438  16.328   9.955  0.2794 -0.2623 -0.0418
 7688W        W23949  11.098  14.712   1.211 -0.1839 -0.2674  0.0775
 7689W        W23950  11.630  19.099   0.593 -0.2688  0.0008 -0.2837
 7690W        W23951   1.304   3.530  12.286 -0.0947 -0.0659  0.1656
 7691W        W23952  11.798   9.849   3.203 -0.0081  0.0991 -0.2989
 7692W        W23953  16.508   6.535   2.825 -0.3067 -0.2222  0.1783
 7693W        W23954  13.766  10.565   2.957 -0.1101 -0.0950 -0.0117
 7694W        W23955   6.863  15.248   0.268 -0.1628 -0.0743  0.1275
 7695W        W23956  13.838   8.173   2.909  0.0433  0.1407 -0.1884
 7696W        W23957  13.163  15.936   3.943  0.0909 -0.0718  0.0411
 7697W        W23958  16.403  18.565  10.597  0.3191 -0.1649 -0.0370
 7698W        W23959   8.029   6.440   1.792  0.2653  0.1226 -0.2407
 7699W        W23960   4.832  11.061   4.425 -0.1892 -0.1186  0.3055
 7700W        W23961  12.841   6.558   2.152  0.1974 -0.4035 -0.1472
 7701W        W23962  11.996  17.808   2.576  0.4408 -0.0870 -0.2357
 7702W        W23963  14.481   6.425   1.264  0.1615 -0.1583  0.2527
 7703W        W23964  12.835  17.259  13.362 -0.1133 -0.1542  0.1010
 7704W        W23965   3.291   3.959   0.363 -0.0437  0.1265 -0.1630
 7705W        W23966   4.298   2.837   1.065  0.1018  0.2024  0.0341
 7706W        W23967  14.608   8.448   1.027  0.2063  0.2955  0.2401
 7707W        W23968   7.290   7.837  10.824 -0.1136 -0.0963  0.0207
 7708W        W23969  14.780   5.985   4.456  0.0336 -0.0848 -0.0789
 7709W        W23970   0.305   9.351  14.364  0.1929  0.0096  0.1031
 7710W        W23971  13.511  18.444   0.506 -0.0966  0.1806  0.1150
 7711W        W23972  13.293  10.436   3.847 -0.0424  0.1328  0.0914
 7712W        W23973   8.961  17.319   2.648 -0.3349 -0.0020 -0.1745
 7713W        W23974  11.622   3.406  11.656  0.1941 -0.0748 -0.0313
 7714W        W23975  16.858   0.214   1.029  0.0237 -0.2987  0.0142
 7715W        W23976   9.916  11.016  12.320  0.1038 -0.0812 -0.1048
 7716W        W23977   8.376   4.559  14.096  0.2863 -0.1489 -0.0363
 7717W        W23978  10.492   9.450   5.235  0.1157  0.0217  0.2417
 7718W        W23979   0.337   7.135   3.610 -0.3103 -0.2520  0.0408
 7719W        W23980   2.332  15.164  14.163 -0.0119 -0.1717  0.0280
 7720W        W23981   3.140   2.915   0.283 -0.2028  0.4787 -0.2484
 7721W        W23982  12.909   5.927  12.902  0.3131 -0.2908  0.0240
 7722W        W23983   7.995  14.975   2.753 -0.0594  0.0231 -0.0229
 7723W        W23984   5.702  10.798  12.049  0.1537 -0.2876 -0.1488
 7724W        W23985  18.244   8.201   1.300 -0.3220 -0.0290  0.3736
 7725W        W23986  16.641   9.580   1.674 -0.2887  0.0117 -0.0468
 7726W        W23987  17.230   0.641   2.988 -0.0216 -0.1050  0.1501
 7727W        W23988  17.875   2.872  13.825 -0.3547  0.1131 -0.0292
 7728W        W23989  15.897   8.392  13.889 -0.2089 -0.0319  0.1427
 7729W        W23990   7.454  16.447   2.989 -0.1025  0.2766 -0.1972
 7730W        W23991   0.883   8.607  14.806  0.3885  0.0527 -0.2289
 7731W        W23992  18.201  14.954  12.240 -0.2989  0.1488 -0.5084
 7732W        W23993  17.364   4.484  12.573  0.1930  0.0147 -0.0338
 7733W        W23994  17.238  16.969  10.615 -0.0869 -0.1438  0.0700
 7734W        W23995  13.815   2.498   3.851  0.1044  0.0646 -0.1144
 7735W        W23996  17.558  14.380   2.511  0.5690  0.2637  0.3856
 7736W        W23997   9.844   7.870  14.190 -0.0335 -0.1460 -0.0698
 7737W        W23998  12.848   5.132  10.586 -0.0132 -0.3386  0.0979
 7738W        W23999   8.091  14.700  12.137  0.0823  0.4875  0.2788
 7739W        W24000  18.628   7.142  12.036 -0.0463 -0.3154  0.0090
 7740W        W24001  15.156   2.736   1.756 -0.1071  0.0505  0.1679
 7741W        W24002  14.608  16.126   0.764  0.0412  0.0140 -0.1036
 7742W        W24003  10.839   4.078  11.686  0.1676 -0.2258  0.1834
 7743W        W24004  19.105  17.545  11.958  0.2775  0.1547  0.1813
 7744W        W24005  18.403  17.642  13.196 -0.0925 -0.1036  0.0347
 7745W        W24006   3.149   8.636   2.916  0.2124  0.3216  0.0814
 7746W        W24007   4.977  19.377  11.061  0.1321 -0.1185  0.2069
 7747W        W24008   6.749  17.359  13.532 -0.4033 -0.1602  0.2005
 7748W        W24009   3.524  11.261  13.948 -0.3208  0.1594 -0.1626
 7749W        W24010   0.189  14.157   3.976  0.0207  0.3105  0.1658
 7750W        W24011   1.682  11.759  13.050  0.0757 -0.0097  0.1003
 7751W        W24012  19.006   1.407  14.684 -0.0054 -0.3103  0.0337
 7752W        W24013  17.071   1.501  12.481 -0.3009 -0.0789  0.2170
 7753W        W24014  10.110   5.518  11.876  0.1643  0.3384  0.2316
 7754W        W24015  18.106  18.348  11.336  0.0396  0.4108  0.1340
 7755W        W24016   3.033  18.357   0.127  0.1265  0.2577  0.1600
 7756W        W24017  11.304   9.839   3.504  0.2735 -0.2702  0.2665
 7757W        W24018  15.677  10.963  10.338  0.5836 -0.0851 -0.2144
 7758W        W24019  19.085  12.833   3.275 -0.2108  0.0430  0.1678
 7759W        W24020  17.293  17.458  12.812 -0.3145  0.3498 -0.1685
 7760W        W24021  14.411   5.188   4.213 -0.6818 -0.0761 -0.3789
 7761W        W24022   6.475  15.451   3.256 -0.0415 -0.4323  0.1426
 7762W        W24023  11.414  11.071   1.873  0.0907 -0.0919  0.3816
 7763W        W24024  13.935  18.033   4.470  0.0396 -0.0921 -0.1429
 7764W        W24025  18.463  15.098   0.184  0.2288  0.0962 -0.0108
 7765W        W24026   9.631  15.281   2.304  0.2705  0.0273  0.2134
 7766W        W24027  16.916  14.531  10.357 -0.0116 -0.0786  0.0391
 7767W        W24028  10.497  16.319  10.848  0.0501  0.2638 -0.0992
 7768W        W24029   6.695  15.593   2.112 -0.0192  0.2541 -0.1155
 7769W        W24030  14.998   3.472  10.637 -0.1106 -0.0012  0.0519
 7770W        W24031   3.846   4.464  11.291 -0.1799 -0.1250  0.1197
 7771W        W24032   9.548   3.166  12.386  0.0194  0.0557 -0.1262
 7772W        W24033   0.160   7.289   4.978 -0.2359  0.2554 -0.0677
 7773W        W24034   2.648  18.672   5.368 -0.0794  0.0750 -0.1868
 7774W        W24035   8.348   6.847   0.253  0.2335 -0.0437  0.4384
 7775W        W24036   3.628   3.685  13.318 -0.0913  0.0448 -0.1892
 7776W        W24037   7.392  19.264   4.452  0.1926  0.2812 -0.2301
 7777W        W24038  15.116   1.243   0.983 -0.1730  0.6549  0.2412
 7778W        W24039   1.189   1.152   4.232  0.0364 -0.4255 -0.0484
 7779W        W24040  12.273   4.996   3.754  0.2762  0.2343  0.2154
 7780W        W24041  11.405  16.184   0.627 -0.0483  0.1596  0.2351
 7781W        W24042   4.962  17.644  10.427 -0.1922  0.0025  0.0063
 7782W        W24043   2.643  10.566   0.144 -0.0698  0.1263 -0.3449
 7783W        W24044   7.836  18.254  13.922 -0.0702  0.1831 -0.2252
 7784W        W24045   5.088   4.541   2.984  0.0636  0.0142 -0.0330
 7785W        W24046   3.705   2.534  13.159  0.2489 -0.0216 -0.2910
 7786W        W24047   9.315  17.094  12.443  0.1271  0.2455  0.1501
 7787W        W24048  11.777   1.988   2.434 -0.2294  0.2718 -0.0376
 7788W        W24049   5.096   9.851   0.203 -0.0131  0.3056 -0.0014
 7789W        W24050   0.164   1.121   5.624 -0.1966 -0.1389  0.1128
 7790W        W24051   7.988   5.790   4.326 -0.2936  0.2543  0.0276
 7791W        W24052   4.475  18.510   4.772 -0.0955  0.2435 -0.0662
 7792W        W24053   8.687   7.608   4.185 -0.1335 -0.0289 -0.1648
 7793W        W24054  18.905   1.927   3.411 -0.0794 -0.1636 -0.0692
 7794W        W24055   1.604   5.546   5.421  0.1474  0.2692 -0.0713
 7795W        W24056  17.359   3.658   2.790 -0.2313  0.2031 -0.0459
 7796W        W24057  13.074   6.367   3.180  0.1112  0.0116 -0.2413
 7797W        W24058   3.200   3.368   4.850  0.0777 -0.0675 -0.1267
 7798W        W24059   2.574   8.167   3.460  0.0605  0.2443  0.0154
 7799W        W24060   2.534   7.379   5.800 -0.0176 -0.0947 -0.1649
 7800W        W24061   0.529   8.027   5.325 -0.3477  0.0631 -0.0250
 7801W        W24062  12.736  19.032   3.609 -0.0038  0.1040 -0.0401
 7802W        W24063   0.466  11.325   2.812  0.0435  0.2275 -0.4361
 7803W        W24064   8.844  16.524   0.818  0.2582  0.0959  0.1616
 7804W        W24065  16.294   2.785   4.467 -0.1443  0.1737 -0.0074
 7805W        W24066  10.563  13.897  11.759 -0.2464  0.2142 -0.3688
 7806W        W24067  11.312   0.015  14.589 -0.1167 -0.1052  0.3305
 7807W        W24068   5.846   6.039   5.047 -0.1987  0.0382  0.1083
 7808W        W24069   5.200   0.125   3.928 -0.0129 -0.3273  0.1861
 7809W        W24070  17.380  15.178  11.706  0.0506  0.0454 -0.0625
 7810W        W24071  17.031   7.471   2.890 -0.1411  0.2422 -0.1311
 7811W        W24072   5.716   5.130  10.007  0.0325 -0.1182  0.2262
 7812W        W24073   2.784   3.153   4.661  0.3646 -0.1946 -0.0783
 7813W        W24074   2.925   5.024   3.276 -0.0611 -0.2552  0.0300
 7814W        W24075  12.317  11.276   4.316  0.1020  0.4990 -0.1802
 7815W        W24076   7.042   1.464  10.645  0.3151 -0.0557 -0.1818
 7816W        W24077  19.035  14.762   1.589 -0.1938  0.2865  0.0850
 7817W        W24078  16.948  12.136   1.153 -0.0012 -0.0193  0.0982
 7818W        W24079   2.984  10.869   4.956 -0.0249 -0.4538  0.0826
 7819W        W24080   3.448   8.974   2.037  0.0099  0.0207  0.0202
 7820W        W24081   5.575   0.762   1.461  0.0774 -0.0012 -0.1010
 7821W        W24082   9.910  12.611  13.242 -0.3688 -0.1370  0.1043
 7822W        W24083  10.563  15.412   1.656 -0.1762  0.2529  0.1394
 7823W        W24084  12.309   8.211  14.123  0.0824 -0.1009 -0.1495
 7824W        W24085   2.444   2.262  11.719  0.0327 -0.0794 -0.0562
 7825W        W24086   3.271  15.851   0.338 -0.1998 -0.3316  0.2338
 7826W        W24087  16.218   4.076   2.733 -0.2064 -0.1076  0.0624
 7827W        W24088   0.396   7.621  13.307  0.0827  0.0042  0.3753
 7828W        W24089   6.866   5.687  13.075  0.1095 -0.2400  0.4549
 7829W        W24090  11.899  18.393   0.999  0.3088  0.1943 -0.0311
 7830W        W24091  15.780   6.224  12.249  0.1628 -0.1142 -0.0632
 7831W        W24092   6.211  12.100   3.000 -0.1072  0.0919 -0.3381
 7832W        W24093  13.041   1.733  13.648  0.2054 -0.0123  0.1592
 7833W        W24094  16.095   2.457  12.709  0.3266  0.1552  0.4368
 7834W        W24095   3.155   5.521   3.250 -0.2664  0.1378  0.2918
 7835W        W24096  13.452   4.800   1.149 -0.1737  0.0007 -0.0584
 7836W        W24097  10.411  14.558   4.504 -0.1518 -0.0428  0.1805
 7837W        W24098  16.002   8.863  13.797 -0.3656 -0.2520  0.1099
 7838W        W24099   9.456   0.773  10.307  0.2434 -0.0169  0.1360
 7839W        W24100  11.375  17.056  11.057  0.1370  0.0306  0.1288
 7840W        W24101  13.527   4.079  14.036  0.0728  0.0456 -0.1968
 7841W        W24102  18.913  11.071   9.700  0.0615 -0.0559 -0.1674
 7842W        W24103  11.743   7.727  10.642  0.0222  0.0125 -0.0086
 7843W        W24104   9.643   2.984   2.533  0.4888 -0.0123  0.3716
 7844W        W24105   7.299  10.213  14.356  0.1014 -0.1443 -0.1670
 7845W        W24106  18.974   2.228  10.345 -0.0112  0.0262  0.1093
 7846W        W24107  18.486  16.600   2.520 -0.0774 -0.0177 -0.4070
 7847W        W24108   8.220   1.025   1.465  0.2759 -0.0350  0.1237
 7848W        W24109   4.486   5.744  11.411 -0.2239  0.0080  0.3147
 7849W        W24110   0.780   3.895  11.039 -0.2922 -0.0470 -0.1819
 7850W        W24111  15.594  14.947  12.059  0.2116 -0.3682 -0.1622
 7851W        W24112   6.332   9.259   4.147 -0.3738 -0.0264 -0.4724
 7852W        W24113  11.239   5.067   3.950  0.1094  0.0305 -0.0284
 7853W        W24114   0.442   5.247   3.064  0.0292  0.1001  0.0369
 7854W        W24115  19.086   1.931   3.987 -0.0049  0.1412  0.2275
 7855W        W24116   4.986  10.821   4.011 -0.2831  0.0981 -0.2595
 7856W        W24117  19.185   1.506   2.205 -0.0778 -0.0348  0.0992
 7857W        W24118  12.394   2.935  10.063  0.0196  0.2799 -0.5338
 7858W        W24119   9.648  12.135   0.767 -0.0550  0.0113  0.0429
 7859W        W24120  17.881   0.106  10.334  0.3203  0.1850  0.1512
 7860W        W24121  11.207   6.499   4.457  0.0678  0.0620  0.3780
 7861W        W24122  14.057   6.191  12.778 -0.0428  0.1230 -0.3513
 7862W        W24123  16.930   5.778   0.387  0.0166 -0.1985  0.0071
 7863W        W24124   1.368   0.303   1.805  0.2892  0.0507 -0.0464
 7864W        W24125  17.500   4.485   3.307 -0.0893  0.3318 -0.1996
 7865W        W24126  19.225  15.426   9.359 -0.0361 -0.0302  0.3085
 7866W        W24127  17.757  17.889   0.744 -0.0501  0.1777  0.2448
 7867W        W24128   3.312   3.415   2.198  0.0188 -0.0113 -0.3482
 7868W        W24129  10.616   9.144   3.615 -0.1870  0.0755  0.0851
 7869W        W24130   1.706  10.356  14.873  0.4228 -0.1736  0.4948
 7870W        W24131  10.126  13.967  13.971 -0.2604 -0.2117 -0.2105
 7871W        W24132  13.557  19.392   4.137  0.1433  0.0772 -0.1386
 7872W        W24133   4.466   4.374  12.963 -0.1715  0.2909  0.2150
 7873W        W24134   4.693  16.075  13.224 -0.2282  0.1535 -0.0223
 7874W        W24135   1.485  18.068  12.063 -0.0423 -0.0273  0.0952
 7875W        W24136  17.385  19.084   2.037  0.3100 -0.1721 -0.3590
 7876W        W24137  14.536   5.457  14.497  0.0650  0.0981  0.0639
 7877W        W24138   3.788  17.723   4.892 -0.0947  0.0786 -0.1181
 7878W        W24139   2.188  12.229   4.467 -0.3183 -0.1970 -0.0351
 7879W        W24140   8.927  13.741   1.423  0.0243  0.0904 -0.0092
 7880W        W24141   8.536  12.648   3.705 -0.0875 -0.1996 -0.1292
 7881W        W24142   4.381  13.391  11.572  0.1487  0.1714 -0.0912
 7882W        W24143  15.546  11.439   0.366 -0.0372  0.0700 -0.1034
 7883W        W24144  19.091   6.664   3.200  0.0445  0.2654 -0.0611
 7884W        W24145  11.581   7.616  13.406 -0.4441 -0.0500  0.1652
 7885W        W24146   2.119   3.566  11.670 -0.1523 -0.4899  0.2499
 7886W        W24147   7.676  13.575  11.109 -0.4508  0.0826  0.1908
 7887W        W24148   2.369  15.590  14.381  0.0828 -0.2896  0.1954
 7888W        W24149   6.840   9.785  12.894  0.0864  0.0882  0.1042
 7889W        W24150  17.137   1.788  11.114 -0.0365  0.6334  0.0575
 7890W        W24151   1.683   6.468   4.480 -0.1749  0.2923 -0.0701
 7891W        W24152   8.221  18.747  10.287 -0.0868 -0.0369  0.0123
 7892W        W24153  10.245  11.505   0.492 -0.0149 -0.1525  0.2289
 7893W        W24154  18.843   6.978  13.359 -0.0122  0.1653  0.1829
 7894W        W24155   2.872  14.901   4.617 -0.0988  0.1765 -0.1849
 7895W        W24156  15.810  19.096   0.519  0.0113 -0.1640  0.2621
 7896W        W24157   6.254   8.964  12.923  0.1136  0.0597 -0.1813
 7897W        W24158   4.095   4.525  14.307 -0.1540  0.2763 -0.1206
 7898W        W24159   4.188   9.118  10.525 -0.0542  0.0377 -0.1257
 7899W        W24160  17.996   3.761   2.949  0.0577 -0.0195  0.5160
 7900W        W24161  18.160  15.401   1.390 -0.0439  0.1359  0.0283
 7901W        W24162  13.592  15.642  12.735 -0.1978 -0.0521  0.1022
 7902W        W24163  19.406  10.602  13.982  0.2445  0.0811  0.2188
 7903W        W24164   5.413  12.912  10.560  0.0327  0.1212  0.0683
 7904W        W24165  18.695   5.961   0.512  0.0457  0.0426 -0.0477
 7905W        W24166   1.066   3.410   1.848 -0.3549  0.1292  0.0211
 7906W        W24167  19.299   9.911  12.967  0.0711 -0.0354 -0.0390
 7907W        W24168   0.084  18.131  13.503 -0.2600  0.1303  0.0706
 7908W        W24169   1.102   2.429   6.451  0.2188  0.0464  0.2411
 7909W        W24170  11.663  12.439   0.333 -0.0537  0.0834  0.0530
 7910W        W24171  13.834  15.997   4.752 -0.1628  0.2558 -0.1999
 7911W        W24172   9.774  14.958   3.074 -0.0070 -0.0052 -0.2487
 7912W        W24173  16.431   7.035   2.776 -0.2974 -0.0952 -0.0670
 7913W        W24174   6.568  13.137   4.542  0.4094 -0.2269  0.0358
 7914W        W24175   4.736  18.575  10.761 -0.0586 -0.0972 -0.1803
 7915W        W24176  14.742  13.101  14.471  0.2533  0.1359  0.0334
 7916W        W24177   3.494  10.751  11.279  0.1105  0.1798 -0.2826
 7917W        W24178   4.292   3.682  11.350  0.2395  0.4174 -0.0748
 7918W        W24179  13.768   1.346  11.301 -0.0393 -0.0612 -0.0328
 7919W        W24180  12.970   2.234  10.285 -0.1605  0.2808  0.2887
 7920W        W24181   8.204  18.216   1.835  0.0697  0.1559  0.0518
 7921W        W24182   3.574  12.460  14.181 -0.0696 -0.0687  0.1044
 7922W        W24183   6.644  13.545  10.895  0.0345  0.1055 -0.1642
 7923W        W24184  12.169  16.476   2.707 -0.2804  0.0811 -0.0146
 7924W        W24185   4.407  10.549   5.131 -0.2857 -0.4081  0.1110
 7925W        W24186   1.335   0.411  14.162  0.0210  0.0462  0.1198
 7926W        W24187  15.511  17.463  13.788  0.1467  0.1044 -0.0482
 7927W        W24188  16.789   0.932  13.335 -0.1200 -0.2049  0.0985
 7928W        W24189   3.428   0.906  10.683 -0.3087  0.1220 -0.0064
 7929W        W24190   2.272   7.615   4.296 -0.2514  0.0882 -0.2021
 7930W        W24191  18.007   8.013  14.164  0.3723  0.1217 -0.1329
 7931W        W24192   3.656   3.743   5.104  0.2312 -0.0743  0.0020
 7932W        W24193   1.960   5.981   3.654 -0.1300 -0.0582  0.0785
 7933W        W24194  16.329  18.849   0.914  0.2018 -0.2582 -0.0424
 7934W        W24195  19.098   5.071   2.756 -0.1270  0.0568  0.0233
 7935W        W24196   2.469  18.230  13.378  0.2250  0.1467 -0.2926
 7936W        W24197   0.095  18.641   2.477 -0.0679  0.0220  0.0403
 7937W        W24198  11.412   8.321   2.542  0.1425  0.1979  0.2573
 7938W        W24199  17.546  11.255  11.232 -0.1050  0.0982 -0.0977
 7939W        W24200   6.012   7.606   9.885  0.2882 -0.0780  0.3914
 7940W        W24201  12.894  11.617   3.181 -0.0507  0.0175  0.1003
 7941W        W24202  15.494  15.885   4.517 -0.3047 -0.1885  0.1926
 7942W        W24203   0.997  13.367  13.046 -0.2527  0.0789  0.5278
 7943W        W24204  13.715  17.912  10.545 -0.2163 -0.1118  0.1600
 7944W        W24205  14.676  18.376  12.548  0.0046 -0.1199  0.0079
 7945W        W24206  16.496  15.211  13.705 -0.1474  0.1571 -0.0683
 7946W        W24207   0.878   0.445  11.473 -0.1746  0.0048  0.0010
 7947W        W24208   2.890  12.480   2.950  0.1892  0.1786 -0.1449
 7948W        W24209   8.299   5.039   1.717  0.1358  0.0312  0.2078
 7949W        W24210   9.117  13.428   3.508 -0.1131  0.0698 -0.2941
 7950W        W24211   7.671   0.545   0.870  0.1063  0.1389 -0.0290
 7951W        W24212   7.033  10.619   2.877 -0.2201  0.0226  0.1317
 7952W        W24213   1.671   2.492   0.583 -0.0537 -0.1602  0.0343
 7953W        W24214   9.296   4.267   0.671  0.0164  0.1149  0.0023
 7954W        W24215   6.649  10.538   2.137  0.4331 -0.2234 -0.1569
 7955W        W24216  19.344  11.852  12.837 -0.1139  0.1952 -0.0673
 7956W        W24217   5.303   5.656   1.749 -0.0888  0.0121 -0.2079
 7957W        W24218  10.239   9.306  12.083 -0.4515 -0.0464 -0.1618
 7958W        W24219  11.337   9.842  12.948  0.0030 -0.1702 -0.0126
 7959W        W24220   1.874  10.483   3.865  0.0294  0.2001 -0.2600
 7960W        W24221  13.289  19.338   0.678 -0.0722  0.0783  0.1462
 7961W        W24222   5.528   7.457   5.362  0.0059  0.2855  0.1427
 7962W        W24223   5.065   1.988   2.772 -0.1000  0.0837 -0.0997
 7963W        W24224   1.647   4.405   2.495 -0.0662  0.0185  0.0014
 7964W        W24225   9.777  15.836  12.847  0.0799  0.0741  0.3240
 7965W        W24226   5.673  18.066   2.523  0.4381 -0.1535 -0.0793
 7966W        W24227  10.213   5.805   4.468 -0.1080 -0.1606  0.1726
 7967W        W24228   5.254   0.808  10.454 -0.2463 -0.1505  0.0617
 7968W        W24229  12.608   9.991  14.004 -0.1181  0.3216 -0.0636
 7969W        W24230   6.799  10.321  11.846  0.2654  0.0323 -0.3302
 7970W        W24231   6.767   7.840  14.813 -0.2255  0.2248 -0.0783
 7971W        W24232   8.392   8.987  12.887  0.0763 -0.1196 -0.2989
 7972W        W24233   3.914  16.976   3.136  0.0258 -0.0804  0.3423
 7973W        W24234   0.472   7.521   0.145  0.0262  0.0126 -0.0272
 7974W        W24235  18.642  10.844   0.816 -0.0979 -0.0534 -0.1412
 7975W        W24236  12.591   5.979  11.210  0.1366  0.1501 -0.0347
 7976W        W24237  19.109  17.901   5.394 -0.3286  0.1671  0.1942
 7977W        W24238   8.726   3.593  13.341  0.2750 -0.0331  0.0145
 7978W        W24239   0.037  18.058   3.002  0.3266  0.1372  0.3009
 7979W        W24240   2.109  15.594  13.913 -0.0494 -0.1069  0.1313
 7980W        W24241  10.753  16.872   2.712  0.2085 -0.2558  0.1615
 7981W        W24242  14.110  13.421   3.333 -0.0545  0.3864 -0.0825
 7982W        W24243  12.814  11.405   1.542  0.0471  0.1899  0.0792
 7983W        W24244  18.180  14.182   0.952  0.3670  0.3217  0.1777
 7984W        W24245   1.463  12.622  14.238  0.1556  0.1066 -0.0089
 7985W        W24246  14.121  19.053   3.342  0.1863 -0.1658 -0.0486
 7986W        W24247  15.913  15.713   4.499 -0.1130 -0.1108  0.0501
 7987W        W24248   0.012   0.614   0.787  0.2778  0.0471 -0.1573
 7988W        W24249  13.372  19.234   2.489 -0.6148 -0.1270  0.0390
 7989W        W24250  17.495   8.492  10.228  0.0879 -0.1181  0.0911
 7990W        W24251   1.730  18.650  13.802  0.2498  0.0540  0.1914
 7991W        W24252   5.082  17.297   3.580  0.0110  0.1462 -0.1227
 7992W        W24253   5.762  18.555  13.228 -0.0454  0.0931  0.3331
 7993W        W24254   7.407  17.721  14.593 -0.2765 -0.0489  0.0022
 7994W        W24255   8.748  17.282   3.180 -0.2526  0.1065  0.1670
 7995W        W24256   3.255  13.450  11.136  0.4241 -0.1690  0.0350
 7996W        W24257  16.491   5.948   2.807  0.0181 -0.1419 -0.1383
 7997W        W24258  11.143   7.920  14.400  0.1208  0.1089 -0.0308
 7998W        W24259  11.020   0.256   4.532 -0.1394 -0.0705  0.1275
 7999W        W24260   0.166  16.493  13.249  0.1901  0.2754 -0.2058
 8000W        W24261   0.334   8.925  13.972  0.0323  0.1572  0.0368
 8001W        W24262   8.741   2.631   3.036  0.0520  0.0866  0.1208
 8002W        W24263  10.349   0.357  11.233 -0.2014 -0.2180  0.0546
 8003W        W24264   0.627  15.768  12.127 -0.2075  0.2131  0.1527
 8004W        W24265   2.955  13.682   1.504  0.0080 -0.2030 -0.1392
 8005W        W24266   9.812  16.852  12.132  0.0036  0.2981  0.0336
 8006W        W24267   8.080   3.707   4.206  0.0976 -0.1528 -0.0930
 8007W        W24268  13.126   1.843   3.731 -0.1442 -0.1629 -0.0177
 8008W        W24269  12.698   5.284  12.216 -0.1215  0.1161  0.2639
 8009W        W24270   0.265   5.685  12.460 -0.1631  0.1944  0.1672
 8010W        W24271  17.829   1.481  11.328  0.1325 -0.1442 -0.3742
 8011W        W24272   5.627   4.751  10.555 -0.0189  0.1202  0.1524
 8012W        W24273  19.416   6.646  13.149  0.1782  0.1915  0.0295
 8013W        W24274   3.157   3.569   5.909  0.2536  0.3431  0.0922
 8014W        W24275   4.575   6.751   5.841 -0.0018  0.1380  0.1411
 8015W        W24276   7.970  16.382   1.465  0.0642 -0.0964  0.0360
 8016W        W24277   7.450  15.667  14.560 -0.0419 -0.0249 -0.0151
 8017W        W24278   4.095   3.407   9.547 -0.0643 -0.0072 -0.1896
 8018W        W24279   0.331   8.453  11.994  0.0783 -0.0994  0.0887
 8019W        W24280  10.017   8.211  11.004 -0.1353 -0.0257  0.0118
 8020W        W24281   1.618   3.296   4.603  0.0190 -0.0979 -0.1392
 8021W        W24282   4.260   3.221  13.864 -0.4566  0.5263 -0.1403
 8022W        W24283   0.241  17.670  12.623 -0.2720 -0.2453 -0.0803
 8023W        W24284   3.918   3.382  13.532 -0.2119  0.2203 -0.1511
 8024W        W24285   2.123   2.647  12.588 -0.1030  0.0627  0.3320
 8025W        W24286   4.168  11.740   4.507  0.0204 -0.2719 -0.3684
 8026W        W24287  10.931   3.211   0.311  0.0612 -0.0395 -0.2212
 8027W        W24288  16.715  15.284   3.084 -0.0880  0.4507  0.0284
 8028W        W24289   6.791   0.527  10.424 -0.1824  0.0243 -0.3302
 8029W        W24290   3.376   7.252   2.801  0.0807  0.0237  0.0002
 8030W        W24291   1.825  13.500  14.379 -0.2488 -0.1840 -0.3263
 8031W        W24292   1.932  10.030  11.208  0.2888 -0.1387  0.2396
 8032W        W24293   7.800  12.265   2.742  0.2695 -0.1939 -0.0296
 8033W        W24294   1.142   0.844  14.043 -0.0913  0.0468  0.1325
 8034W        W24295   1.968  14.675   4.408  0.1383 -0.0413  0.0109
 8035W        W24296   8.760  11.222   4.591 -0.0421  0.1181  0.2586
 8036W        W24297   1.130   5.175   1.517 -0.3543 -0.0124  0.0774
 8037W        W24298   7.051   0.377   0.872  0.0044 -0.3175  0.0628
 8038W        W24299  19.277   2.824   5.024  0.1325  0.1972 -0.2739
 8039W        W24300  11.556   1.148  10.529  0.1805  0.3979  0.1526
 8040W        W24301   3.427   5.547  14.610 -0.0404 -0.0386 -0.0063
 8041W        W24302   7.586   6.991  14.581 -0.0867  0.0698 -0.1476
 8042W        W24303   0.210   9.193   2.093 -0.1065  0.1109 -0.3212
 8043W        W24304   1.617  14.022  11.173 -0.1627 -0.0783 -0.3404
 8044W        W24305   8.467   4.284   2.173 -0.2277 -0.2301 -0.1275
 8045W        W24306  15.798   0.141  14.295  0.0841  0.1751  0.2008
 8046W        W24307  11.302   0.901  12.279  0.0753 -0.0603 -0.4303
 8047W        W24308   3.588  14.597   0.755 -0.2886 -0.5253 -0.3086
 8048W        W24309  11.171  19.394  12.812  0.0016 -0.3274 -0.1521
 8049W        W24310  19.162   9.591   0.292 -0.3155 -0.1662 -0.1023
 8050W        W24311   6.705   2.651   3.907  0.1030  0.0301  0.1479
 8051W        W24312   5.606   3.680  10.918 -0.1028  0.1178 -0.0087
 8052W        W24313  15.306  15.299  12.263  0.2207 -0.0105  0.3007
 8053W        W24314  16.117   7.611  13.371  0.2350 -0.2291 -0.2566
 8054W        W24315  14.060   6.694  12.126  0.0285 -0.1960 -0.1672
 8055W        W24316  10.319  18.919  10.927 -0.0821 -0.2656  0.2923
 8056W        W24317  10.948  11.334   1.820  0.1572  0.0260  0.0642
 8057W        W24318  10.518  15.731  12.322  0.0772  0.2040  0.0446
 8058W        W24319   0.553  14.905  13.599  0.2482  0.1501  0.1333
 8059W        W24320  11.590  19.166  13.324  0.1955 -0.1079  0.1013
 8060W        W24321  12.136  17.333  10.312  0.0657 -0.1365  0.1112
 8061W        W24322  16.751  11.805  11.582  0.0139  0.1573  0.1702
 8062W        W24323  11.824   5.861   2.870 -0.0828  0.0597 -0.0524
 8063W        W24324   6.428  16.512   1.454  0.2978  0.1249  0.1346
 8064W        W24325  13.835  14.825  12.581 -0.0504 -0.2112  0.0621
 8065W        W24326   9.886  14.417   2.402 -0.1164 -0.0384 -0.1415
 8066W        W24327  19.217  16.982   1.473 -0.0143  0.1862  0.1230
 8067W        W24328   9.641  14.992   0.038 -0.0484 -0.1734  0.0160
 8068W        W24329   8.198  18.014  10.749 -0.0412 -0.1033 -0.2559
 8069W        W24330   6.295  18.619  12.327  0.3026 -0.0371  0.1224
 8070W        W24331  16.072  15.818   9.821  0.0049 -0.2011  0.0597
 8071W        W24332  15.549   2.377   0.169  0.2533  0.2655 -0.0823
 8072W        W24333   7.160   8.477  12.438  0.1087 -0.0770  0.0492
 8073W        W24334   3.896  16.434  13.110 -0.0856  0.1119 -0.0898
 8074W        W24335   7.990  13.816   0.344 -0.2974  0.0914 -0.1589
 8075W        W24336   3.354  19.045   3.582  0.1340  0.1624  0.3283
 8076W        W24337   2.262   1.178   5.999 -0.0920 -0.0945 -0.0980
 8077W        W24338  11.748   9.241   4.433 -0.1745  0.1413  0.0136
 8078W        W24339   7.964   1.209   3.622  0.0522  0.0954 -0.2496
 8079W        W24340  11.487   5.596   4.004 -0.2226 -0.2164 -0.0429
 8080W        W24341  16.759   5.672  10.874  0.2058  0.3208 -0.0621
 8081W        W24342  16.011   2.071   3.229  0.0965 -0.0685  0.1627
 8082W        W24343   2.161  16.265   4.720  0.1588 -0.4084 -0.1272
 8083W        W24344   9.916  10.882   3.685 -0.2420 -0.1560 -0.2685
 8084W        W24345  17.374  18.878   4.336 -0.0103 -0.0906 -0.0231
 8085W        W24346   8.613  15.244  14.189 -0.3165 -0.0032  0.1912
 8086W        W24347  10.360   0.774   2.294 -0.1149 -0.0594 -0.2438
 8087W        W24348   5.874   0.472   2.648  0.1220  0.2044  0.1844
 8088W        W24349   9.021   5.090   3.913 -0.4214 -0.0362  0.2417
 8089W        W24350   6.322  12.607  12.580 -0.1028  0.0622  0.2105
 8090W        W24351  17.147   6.676   1.735 -0.0721  0.1702  0.0402
 8091W        W24352  11.332   2.170   2.883  0.1195  0.2809 -0.0657
 8092W        W24353   0.926   6.669  13.186 -0.1215 -0.0976 -0.1305
 8093W        W24354  10.218  15.934  10.571  0.0548 -0.2109 -0.0015
 8094W        W24355  10.914  13.066  10.741  0.0099  0.1255  0.1212
 8095W        W24356   8.252  12.338  14.170 -0.3982  0.0092  0.1167
 8096W        W24357  15.898  14.111   1.932 -0.0460 -0.1063  0.0080
 8097W        W24358  13.264   0.636  14.718  0.0811  0.1203 -0.2708
 8098W        W24359  15.174  19.294  13.869 -0.0295  0.4480  0.3561
 8099W        W24360   8.647  15.766  14.764  0.3252 -0.1010 -0.0813
 8100W        W24361   9.969  10.596   0.207  0.0817 -0.1566 -0.0179
 8101W        W24362   0.080  19.112  12.552  0.0482 -0.2692 -0.0588
 8102W        W24363  15.995  18.460  10.876 -0.2290  0.0960 -0.2302
 8103W        W24364  18.511  10.645  12.779  0.0175  0.2832 -0.0627
 8104W        W24365   6.038  13.106  14.464 -0.2630  0.0727 -0.2396
 8105W        W24366   6.616  18.973  10.600  0.1914 -0.4647 -0.0594
 8106W        W24367   2.530  10.400   2.667  0.0723 -0.0904 -0.0472
 8107W        W24368   8.942   9.656  14.578  0.2230 -0.0976 -0.0299
 8108W        W24369  17.843  19.260  14.377 -0.0948 -0.0581  0.0255
 8109W        W24370  11.868  13.962  12.478  0.1282  0.1491  0.2987
 8110W        W24371   0.783  16.670  13.307  0.4195  0.0156  0.2434
 8111W        W24372   2.286   0.029   5.766 -0.0194 -0.2013 -0.3136
 8112W        W24373  15.018  11.140   1.856 -0.0010 -0.1233  0.1412
 8113W        W24374   6.424   4.993   0.883 -0.3826 -0.2927  0.2922
 8114W        W24375   4.944  18.670  13.807  0.1773  0.1677 -0.1369
 8115W        W24376  13.903  15.625  11.186 -0.0919  0.0377 -0.1406
 8116W        W24377   1.582  10.825   1.305 -0.1316 -0.0514  0.0979
 8117W        W24378   0.360  13.937   9.263  0.3824  0.2523 -0.0539
 8118W        W24379   3.760   8.372  10.894  0.0481 -0.0037  0.1252
 8119W        W24380  18.645  16.894  11.644 -0.2418  0.0460  0.2829
 8120W        W24381  10.248  18.750   1.388  0.1316  0.2857 -0.1462
 8121W        W24382  13.277   9.098   3.101  0.1904  0.0903 -0.0849
 8122W        W24383  13.604   9.442  13.548 -0.1371 -0.1213 -0.0387
 8123W        W24384  17.895  13.930  10.895  0.2715  0.1014  0.3849
 8124W        W24385   0.931  10.774  12.809 -0.1842 -0.1431 -0.1119
 8125W        W24386  14.963   6.734   4.966 -0.1610 -0.2508  0.2859
 8126W        W24387   8.117   4.645   4.392 -0.1841 -0.2385  0.1920
 8127W        W24388  14.410  19.095  14.604 -0.0372 -0.2226 -0.3509
 8128W        W24389   8.028   5.068  12.768 -0.1621 -0.3403  0.1782
 8129W        W24390  17.095  10.386   3.058 -0.1466  0.1533 -0.0544
 8130W        W24391   4.313  11.451  13.649 -0.2161  0.3492  0.2146
 8131W        W24392  10.489   3.159   0.033 -0.0020  0.3839 -0.0845
 8132W        W24393   7.800   2.140  14.456  0.0776  0.0202 -0.1568
 8133W        W24394  11.202   1.363  10.231  0.0799 -0.1989 -0.0164
 8134W        W24395   4.425   7.966   4.683  0.1178 -0.0936 -0.0850
 8135W        W24396  12.933  13.366  11.958  0.0632 -0.0360 -0.0313
 8136W        W24397  15.292   0.176   4.841  0.2384 -0.0836  0.0470
 8137W        W24398   8.026  10.755  11.971 -0.1126 -0.2344 -0.0865
 8138W        W24399   5.546  10.870   4.243  0.0679  0.1434 -0.0695
 8139W        W24400   4.915  17.943   0.718 -0.2982 -0.1446 -0.7968
 8140W        W24401   8.432  15.079   3.596 -0.1833  0.0836  0.0914
 8141W        W24402  15.607  11.160   0.766  0.4227 -0.1914  0.4295
 8142W        W24403   1.013   0.126  14.465 -0.1526  0.0109 -0.1172
 8143W        W24404  16.281  13.737   1.226 -0.0461  0.3287 -0.1247
 8144W        W24405  15.656   2.405  10.940  0.1421 -0.0329  0.1224
 8145W        W24406   9.996  19.325   2.357  0.0442  0.3132  0.1476
 8146W        W24407  14.259   6.934   1.225 -0.2415 -0.0701  0.2547
 8147W        W24408   5.998   1.254   5.042  0.0749  0.2854  0.0800
 8148W        W24409   3.249  14.749  11.983  0.2410 -0.1541 -0.0005
 8149W        W24410  17.086  10.525  14.783 -0.2252  0.0094 -0.2374
 8150W        W24411  10.326   9.428   4.493 -0.2147  0.0365  0.0493
 8151W        W24412  14.618   3.762  11.887 -0.0119 -0.1539 -0.1717
 8152W        W24413   4.027   7.440   3.843 -0.0665  0.1351 -0.1846
 8153W        W24414  13.467   6.886  12.121  0.2760 -0.0728  0.1776
 8154W        W24415  11.813  12.498   3.384  0.1379  0.0317 -0.1530
 8155W        W24416   5.381  14.227   0.019 -0.2654  0.2035 -0.2844
 8156W        W24417   3.620  13.133   0.290 -0.1610  0.3238  0.0023
 8157W        W24418  13.806   3.638  14.142  0.5602  0.0759  0.1806
 8158W        W24419  11.992  12.512  14.797 -0.0645 -0.3840  0.0158
 8159W        W24420   2.585  15.669  13.040  0.3716 -0.4811 -0.0222
 8160W        W24421   1.010  16.600   1.827  0.1391  0.1392  0.2164
 8161W        W24422   1.113   3.088   5.529 -0.0514 -0.5727  0.0490
 8162W        W24423   3.886  15.374   6.201  0.0652  0.0727  0.0741
 8163W        W24424   6.588  17.234   3.984  0.0568  0.1467 -0.1931
 8164W        W24425  15.215   5.424   5.629  0.2235 -0.1165  0.0338
 8165W        W24426  12.825   9.044   0.102  0.6019  0.0317 -0.0436
 8166W        W24427   5.008   1.824  10.710 -0.4119 -0.0093  0.1192
 8167W        W24428  17.375  15.420   1.105  0.3923 -0.2707 -0.0684
 8168W        W24429  10.026  15.964   9.213  0.0658  0.0837 -0.2051
 8169W        W24430  12.287  16.032  14.009  0.4871 -0.0231 -0.0254
 8170W        W24431   1.642   9.935   3.232  0.0862 -0.4088  0.0892
 8171W        W24432   4.610  11.235   0.496 -0.1151  0.1368  0.0422
 8172W        W24433   6.195   4.162   0.895 -0.3472 -0.1629 -0.0506
 8173W        W24434  15.917  15.005  14.594 -0.1162 -0.1349 -0.1295
 8174W        W24435   0.659   3.659   4.759 -0.3372  0.0199  0.1914
 8175W        W24436   9.272   2.912  10.745 -0.0040  0.2782 -0.0489
 8176W        W24437  19.307   9.451   4.136  0.2994 -0.0747 -0.1317
 8177W        W24438   6.634   3.396   2.278 -0.3372  0.1903 -0.2351
 8178W        W24439   8.425   0.572  13.571 -0.2818  0.0994  0.1708
 8179W        W24440   4.646  16.267   0.668 -0.0166 -0.3215  0.0853
 8180W        W24441   6.051  10.816   0.731  0.1432 -0.1018 -0.0331
 8181W        W24442   2.462   2.055  14.739  0.0626 -0.1444  0.1150
 8182W        W24443   0.918   2.491  11.730 -0.1052  0.2404  0.0043
 8183W        W24444   1.752  12.166   3.547  0.2781 -0.1752  0.0281
 8184W        W24445  11.008  13.471  11.156 -0.0098  0.0160  0.1953
 8185W        W24446   0.697  18.881   4.635 -0.2725 -0.3469 -0.0829
 8186W        W24447   3.410  15.728   3.236 -0.5806  0.0329  0.0161
 8187W        W24448   0.124   8.182   4.427 -0.1078 -0.0095 -0.3971
 8188W        W24449   6.994  16.626   1.482 -0.1344 -0.1091 -0.2240
 8189W        W24450  18.678   6.787   2.284  0.0037  0.2576  0.3081
 8190W        W24451   8.587  18.762  12.658  0.4415 -0.6144  0.0582
 8191W        W24452  17.200   8.126   2.606 -0.3818 -0.1865  0.0347
 8192W        W24453  12.295   5.122  14.547  0.0412  0.1677  0.1877
 8193W        W24454   0.394  10.013   1.303  0.1131  0.0990 -0.0824
 8194W        W24455   1.943  11.259  12.195 -0.1784  0.1926  0.1594
 8195W        W24456   1.831  10.264   1.266 -0.0257  0.2061 -0.0684
 8196W        W24457  10.104  16.554   2.428 -0.2965 -0.0237  0.0143
 8197W        W24458  13.209   2.169   2.374  0.1697  0.4212 -0.0320
 8198W        W24459  13.804  12.219  11.895 -0.2275  0.1977 -0.1497
 8199W        W24460   5.459  18.884  12.723 -0.1618  0.1796 -0.0296
 8200W        W24461   6.719   2.836  10.946 -0.2042 -0.2229  0.2868
 8201W        W24462   3.096   2.125   3.923  0.2381 -0.2207  0.3204
 8202W        W24463  17.152  19.151   2.853 -0.1366 -0.4576  0.0811
 8203W        W24464  17.298  18.354   2.345  0.0428  0.2238  0.1159
 8204W        W24465  18.636  12.815   3.044 -0.2010  0.0004  0.3070
 8205W        W24466  14.084  14.667   4.726 -0.2117 -0.2904  0.0417
 8206W        W24467  16.455  16.473  11.819  0.1037  0.1920  0.1932
 8207W        W24468  19.128  18.456   1.582 -0.0508  0.2598  0.0752
 8208W        W24469  10.039   0.101  10.849 -0.0055  0.1696  0.2024
 8209W        W24470   8.368   9.809  14.004 -0.0739 -0.1225 -0.0451
 8210W        W24471  19.228   1.085   4.134  0.1633 -0.1875 -0.4129
 8211W        W24472  15.577  17.051   4.370  0.1827  0.0099 -0.1604
 8212W        W24473  16.398  11.329   2.311  0.2183  0.2079  0.2114
 8213W        W24474   6.224  14.368   3.550  0.0443  0.1714  0.2899
 8214W        W24475   3.045  17.982  13.070 -0.0183 -0.0452  0.1580
 8215W        W24476   9.221  11.407   4.383  0.1681  0.1526 -0.0531
 8216W        W24477   0.617   7.186   3.203  0.0290 -0.2371  0.1194
 8217W        W24478  17.239   6.350   3.919 -0.1104  0.0590 -0.3818
 8218W        W24479   9.688   5.797   2.517 -0.1784  0.2105  0.1260
 8219W        W24480   0.428  11.104   0.312 -0.2270 -0.2538 -0.0726
 8220W        W24481  12.388   9.575  11.262  0.1562  0.0267 -0.0461
 8221W        W24482  18.394  10.461   1.889  0.0276  0.1133  0.0833
 8222W        W24483  12.068   2.561   1.610 -0.1116  0.2415 -0.0223
 8223W        W24484  13.556   9.200  11.950  0.2342 -0.0018  0.0297
 8224W        W24485  12.002   7.467  12.715 -0.0905 -0.2826 -0.1222
 8225W        W24486  16.907  19.237   0.468  0.0809 -0.0733 -0.1878
 8226W        W24487   4.074  19.181  13.771 -0.0138  0.0062 -0.1349
 8227W        W24488  12.386   5.158  10.831  0.1638 -0.3121 -0.2387
 8228W        W24489   4.734  18.074  13.568  0.0762  0.0066 -0.3035
 8229W        W24490  15.119  16.015  13.342  0.3083 -0.0783  0.0147
 8230W        W24491   4.670   6.590  12.814  0.0768  0.0729  0.0205
 8231W        W24492  10.960   0.821  11.470 -0.2018  0.0853 -0.1080
 8232W        W24493  14.301   5.630   2.130 -0.0206  0.2325  0.2196
 8233W        W24494  11.121   0.700   4.226  0.3393  0.2434  0.0992
 8234W        W24495   9.852   1.161   4.290 -0.2694 -0.1655 -0.1081
 8235W        W24496   0.648   8.297   1.772  0.2127  0.2370 -0.0816
 8236W        W24497   1.982   4.498   0.398 -0.1768 -0.1399 -0.0178
 8237W        W24498   1.616  11.719  11.847  0.1163  0.4073 -0.2143
 8238W        W24499  11.280  16.611   9.754 -0.2680  0.2449  0.2588
 8239W        W24500   6.863   7.553  12.878  0.1318 -0.2403  0.1261
 8240W        W24501  10.429   2.123   4.309  0.0940 -0.0151 -0.2497
 8241W        W24502  15.921   4.273   1.574  0.0801  0.0898  0.2926
 8242W        W24503   7.376   4.028   0.453 -0.3247 -0.4522 -0.2449
 8243W        W24504  19.047   7.745  11.240  0.0437  0.0119 -0.0386
 8244W        W24505   7.801  18.146  12.122 -0.0191  0.0124 -0.2349
 8245W        W24506   2.020   4.003   2.930 -0.0338  0.0336  0.2890
 8246W        W24507   6.632  16.201   1.888  0.0832 -0.0246  0.1086
 8247W        W24508   5.491  10.275   3.190 -0.0799  0.0579 -0.2645
 8248W        W24509   1.638   0.841  14.035 -0.0594  0.1415 -0.2102
 8249W        W24510  14.092   8.155   4.787 -0.1327  0.0301 -0.0878
 8250W        W24511   7.724  11.861  13.579  0.3775  0.4540 -0.0529
 8251W        W24512   1.568   9.109  12.844 -0.4164 -0.1626  0.2263
 8252W        W24513  19.263  18.648   1.118 -0.0459 -0.0326  0.0007
 8253W        W24514  13.599  10.159  10.948 -0.0208 -0.0688 -0.0120
 8254W        W24515  16.997   5.128   5.611  0.1635  0.0167  0.1570
 8255W        W24516   0.758   5.974   3.803  0.0765  0.2510 -0.1251
 8256W        W24517  13.509  15.344  11.332 -0.0819 -0.3437  0.3980
 8257W        W24518  18.146   5.479  13.653  0.2232 -0.2575 -0.0311
 8258W        W24519  14.357  15.840   1.198 -0.1127 -0.3476  0.1413
 8259W        W24520  12.065  18.491   4.441  0.0029 -0.0169  0.1069
 8260W        W24521  11.655   1.544  11.460 -0.1173  0.2439  0.0684
 8261W        W24522  11.720  16.823  11.346  0.0736 -0.0211 -0.2370
 8262W        W24523  13.098   6.963  14.189 -0.1827 -0.2067 -0.0149
 8263W        W24524   9.084   0.541  14.203 -0.1002 -0.2455  0.0883
 8264W        W24525   8.794   9.214  14.746 -0.2398 -0.0632  0.0897
 8265W        W24526   7.579  18.435   0.611  0.0260  0.0310  0.2560
 8266W        W24527   1.687  12.097  14.578 -0.2085 -0.3145 -0.2727
 8267W        W24528   8.019  10.124   0.821  0.1958 -0.3266 -0.2596
 8268W        W24529  16.341  15.125   1.002  0.0905 -0.1076  0.0827
 8269W        W24530  13.413   7.672  12.713 -0.2473  0.1117 -0.0436
 8270W        W24531  14.436  18.307  10.134 -0.1174  0.1503 -0.2996
 8271W        W24532  14.760   1.831  12.958 -0.0100  0.0856  0.1482
 8272W        W24533  16.955  10.657   2.693  0.0928 -0.2112 -0.0509
 8273W        W24534  11.967   5.305   3.899  0.1440  0.3426 -0.3281
 8274W        W24535   1.604  12.250  12.127  0.1607 -0.1669 -0.0692
 8275W        W24536   6.716   2.318  10.584 -0.0494  0.2999  0.1618
 8276W        W24537  15.464   4.349   2.969 -0.3722 -0.0617  0.3725
 8277W        W24538   0.535  12.190   4.748  0.0718 -0.1387 -0.1865
 8278W        W24539  14.989  17.073  13.782 -0.0108 -0.1395 -0.1881
 8279W        W24540  19.164  11.869   1.916 -0.0266  0.1889  0.1535
 8280W        W24541  11.539  10.184   2.324 -0.1291 -0.0510  0.2626
 8281W        W24542  12.282   0.925  11.539  0.2998  0.5456  0.2472
 8282W        W24543   1.507   7.981   4.500  0.0226 -0.0012 -0.0084
 8283W        W24544   9.229  17.175  13.017  0.1873  0.0342  0.0616
 8284W        W24545  10.182  18.804  13.718 -0.1658  0.4643 -0.1008
 8285W        W24546   8.604  15.055  11.499  0.1344  0.2537 -0.0888
 8286W        W24547   1.732   5.917   5.699  0.0366 -0.2807 -0.3686
 8287W        W24548  12.073  17.905   2.088 -0.0774 -0.0153  0.0495
 8288W        W24549  11.635   1.496  13.441 -0.1999  0.1902  0.2521
 8289W        W24550  13.774   2.323   1.644  0.2431 -0.1462  0.1544
 8290W        W24551  10.011  13.162  10.615  0.0826  0.0771  0.3520
 8291W        W24552   4.975   8.074  11.269  0.1543 -0.1786  0.2579
 8292W        W24553   5.289  14.346   2.817  0.3445 -0.2404 -0.1481
 8293W        W24554   8.910  13.448  11.906 -0.2487  0.0321  0.0618
 8294W        W24555   2.125  17.971   2.748  0.2081  0.1730 -0.1534
 8295W        W24556   7.594   3.700   4.147  0.1165 -0.0323  0.0253
 8296W        W24557   4.050   9.416   1.222 -0.2119  0.2572  0.2419
 8297W        W24558  16.595  10.520  10.552  0.0643  0.0308 -0.3493
 8298W        W24559  14.309  13.286  14.589 -0.0277 -0.0276 -0.1686
 8299W        W24560  15.199  15.594   0.514 -0.0395 -0.1004 -0.1467
 8300W        W24561  15.397  16.812   3.961 -0.0684  0.0132 -0.4455
 8301W        W24562   6.230   7.829  11.667  0.2085 -0.0870  0.3422
 8302W        W24563   8.071  18.375   0.808  0.4444  0.4218 -0.1563
 8303W        W24564   5.152   6.328  13.876 -0.2279 -0.0600 -0.0710
 8304W        W24565  10.963  15.562  10.438 -0.0050  0.0671  0.1581
 8305W        W24566   8.639  15.875  11.533 -0.0168  0.0043 -0.1434
 8306W        W24567   3.882  14.761  10.771 -0.2189 -0.0450 -0.0351
 8307W        W24568  11.999   7.336  13.522 -0.0383 -0.1514  0.3721
 8308W        W24569   5.408  18.821   0.989  0.1599  0.1052  0.1539
 8309W        W24570   8.231   7.520  12.849 -0.4631  0.2228 -0.0830
 8310W        W24571  14.288  15.659  12.096 -0.2425 -0.1331  0.1836
 8311W        W24572   8.341   9.645  12.890  0.0891  0.1209  0.0725
 8312W        W24573  11.457   7.071   4.773  0.1632  0.2078 -0.1468
 8313W        W24574   3.956  16.047   0.684 -0.1104  0.3919 -0.1585
 8314W        W24575  15.749   7.324   9.905 -0.1352 -0.1934 -0.1034
 8315W        W24576  10.989  10.184   3.142  0.1124  0.3166 -0.0574
 8316W        W24577   9.260  18.387  13.853  0.1725  0.1121  0.1273
 8317W        W24578   6.454  15.306  14.873  0.3482 -0.1607 -0.2265
 8318W        W24579  10.663  17.195   1.431 -0.0642 -0.0337  0.1803
 8319W        W24580  12.366  14.647   0.554 -0.0141  0.0161 -0.0815
 8320W        W24581  12.295  14.608  10.572  0.3799  0.2238 -0.2178
 8321W        W24582   7.820  12.673  14.170 -0.1965  0.0394 -0.1156
 8322W        W24583   7.202  17.918   3.616  0.1712 -0.1161  0.0347
 8323W        W24584  12.691   7.760  14.496  0.0870 -0.2679 -0.0177
 8324W        W24585   6.347  13.838  10.341  0.4003  0.1757  0.0143
 8325W        W24586   6.027   9.286   2.508  0.4718 -0.1105  0.1597
 8326W        W24587  14.665  11.452   0.338 -0.3303  0.2457 -0.1981
 8327W        W24588  16.121   0.520   3.796  0.2266 -0.0099 -0.0584
 8328W        W24589  12.853  11.479  11.774  0.3011  0.3171 -0.0557
 8329W        W24590  13.645  18.664   9.908  0.0197 -0.2052 -0.0538
 8330W        W24591  11.593  15.981  13.227 -0.2279  0.0996 -0.2167
 8331W        W24592  18.196  12.373  11.740 -0.1071 -0.4659 -0.2833
 8332W        W24593  12.504   8.881   3.055 -0.0262  0.0075 -0.1410
 8333W        W24594   6.876  14.973  10.749  0.1526  0.2052 -0.1140
 8334W        W24595  10.110  18.968  12.850  0.1903 -0.0491 -0.3879
 8335W        W24596   6.915   0.155   4.655  0.1397  0.2126  0.2667
 8336W        W24597  15.461  18.100   3.195 -0.1391  0.1344  0.3004
 8337W        W24598  15.087  12.650  12.717 -0.0972 -0.0444 -0.1087
 8338W        W24599  17.663  16.141  14.053  0.1179  0.0777  0.1194
 8339W        W24600   7.614  10.038  14.014  0.1510 -0.2601  0.0225
 8340W        W24601  11.081   6.269   2.845  0.0164 -0.2955  0.1854
 8341W        W24602   2.484  12.194  11.025 -0.0632 -0.1261  0.2471
 8342W        W24603  10.663   3.798  10.704  0.2338  0.1178 -0.2660
 8343W        W24604  11.562   9.099   0.028  0.1836 -0.3156 -0.2367
 8344W        W24605  14.310   9.891   0.288 -0.1812  0.0027  0.1866
 8345W        W24606  12.161  18.001  13.500 -0.0632  0.1885  0.0529
 8346W        W24607  11.529   4.010  10.413 -0.1372  0.2593 -0.1097
 8347W        W24608  14.183   6.641   1.595 -0.0595  0.1819 -0.1764
 8348W        W24609  14.618  12.604  12.879 -0.2722  0.0609 -0.1132
 8349W        W24610   7.399  18.797   0.252  0.3434  0.0639  0.0379
 8350W        W24611  18.592  12.331   3.943  0.1131 -0.2917 -0.0671
 8351W        W24612   4.270   8.165  14.047  0.1015 -0.0709  0.0316
 8352W        W24613  15.397  17.341  12.904 -0.0355  0.0695 -0.2747
 8353W        W24614  18.958   5.773  12.831  0.1170  0.0237 -0.3046
 8354W        W24615  14.064   8.662  13.151  0.0876 -0.3188  0.4300
 8355W        W24616  16.030   3.276   3.239  0.2372 -0.0846  0.0024
 8356W        W24617   7.052   6.095   4.595  0.3045  0.2342 -0.1173
 8357W        W24618   1.325  10.453   1.113 -0.0594  0.2392  0.0061
 8358W        W24619   9.837   9.338  11.809  0.0415  0.3563  0.2016
 8359W        W24620  16.224   3.341   1.074 -0.1061 -0.0914 -0.1902
 8360W        W24621   0.182  10.761   0.613  0.3930 -0.3492 -0.2030
 8361W        W24622   1.576   8.835   1.351 -0.0859  0.2725  0.0728
 8362W        W24623   8.048  18.729   1.776 -0.3370  0.1437 -0.1075
 8363W        W24624  19.080  12.778   2.635  0.0731  0.1367  0.0168
 8364W        W24625   5.580  12.679   2.317  0.2485  0.0992  0.2393
 8365W        W24626   8.030   1.606   1.751 -0.3926  0.3380  0.1547
 8366W        W24627   5.346  18.473  14.147  0.0324 -0.0701  0.4043
 8367W        W24628  14.583  13.435   9.821  0.1545  0.0748  0.0683
 8368W        W24629  18.430   1.538   3.118 -0.4599  0.1950  0.2899
 8369W        W24630   8.771   1.338   4.709  0.0733  0.0156 -0.1134
 8370W        W24631  13.976   2.071  14.644  0.0893  0.1769  0.0320
 8371W        W24632  11.304   3.837   3.799 -0.2285  0.4077  0.0214
 8372W        W24633   6.864  12.156   9.843 -0.1373 -0.2587 -0.2536
 8373W        W24634   4.418  17.012   5.808  0.2648 -0.3854 -0.2832
 8374W        W24635  15.902  12.619  14.117  0.1033 -0.2001 -0.1618
 8375W        W24636   1.396  10.687   0.136  0.1616 -0.2051 -0.0200
 8376W        W24637  15.282   5.234   0.928  0.0110  0.1360  0.2238
 8377W        W24638   9.068  10.484  14.010 -0.1768  0.1069 -0.1997
 8378W        W24639  15.987   4.517   3.026 -0.2269  0.0997  0.0872
 8379W        W24640  11.374   7.940   0.827 -0.0642 -0.0934  0.2476
 8380W        W24641  12.315  15.794  10.524 -0.3112  0.0666  0.0346
 8381W        W24642  11.278  15.423   2.595 -0.1622 -0.2244  0.4088
 8382W        W24643   1.258   4.165  13.095 -0.1841  0.2465 -0.4153
 8383W        W24644  16.329   8.103   0.948 -0.2381  0.0749  0.3642
 8384W        W24645  15.520   2.108  13.776 -0.0679 -0.0536  0.1203
 8385W        W24646  11.971  10.433   2.216  0.0739 -0.0415 -0.1043
 8386W        W24647  10.490  12.852  13.258 -0.2180  0.1181  0.4651
 8387W        W24648  12.151   0.447   2.542 -0.2915  0.0379  0.1077
 8388W        W24649  10.998  14.354  14.393  0.2145 -0.0759  0.0890
 8389W        W24650   2.071  14.759   3.927 -0.1145  0.3781  0.4159
 8390W        W24651  11.817  14.594  14.093  0.0298 -0.0526  0.0408
 8391W        W24652   4.263   0.622   3.950  0.1661  0.3536  0.1301
 8392W        W24653   0.627  12.946  12.338 -0.1344  0.1150 -0.1072
 8393W        W24654  11.909   8.141  11.913 -0.0192  0.0822 -0.0823
 8394W        W24655  14.155   1.789   0.212  0.0884 -0.1662 -0.0206
 8395W        W24656   6.785  10.557  13.000  0.2199 -0.0237  0.3527
 8396W        W24657   4.553   1.665  11.803  0.2006 -0.0797 -0.0959
 8397W        W24658   3.224   4.680   9.983  0.0242  0.1456 -0.3816
 8398W        W24659  15.663  14.612  14.357  0.1613  0.2560 -0.0472
 8399W        W24660   1.191   2.201   0.484 -0.0919  0.0289 -0.0039
 8400W        W24661   6.771   0.971   0.258  0.5075 -0.0147  0.0258
 8401W        W24662   5.625   2.671   9.746  0.0480  0.3883 -0.0932
 8402W        W24663   0.327   4.776  14.726  0.1214 -0.0266 -0.3925
 8403W        W24664  11.723  10.329   9.596  0.1390 -0.1586  0.0271
 8404W        W24665   3.107  14.375  11.721  0.4147  0.0907  0.1493
 8405W        W24666   8.618  14.323  11.870 -0.0890 -0.1474 -0.2768
 8406W        W24667   4.781   9.190   9.888 -0.0386  0.1847  0.3204
 8407W        W24668   8.486  10.537  13.173  0.3470  0.2277  0.0389
 8408W        W24669  18.888   6.513  13.965 -0.0271 -0.2848  0.2313
 8409W        W24670   8.902  19.343   0.367 -0.1949  0.0846 -0.0730
 8410W        W24671   9.491   5.947  13.019  0.4986 -0.0722  0.1182
 8411W        W24672  17.607   2.480   3.715  0.0117  0.0760  0.2317
 8412W        W24673  11.707  14.732   3.605  0.0776  0.0862  0.1745
 8413W        W24674  18.327   6.430  10.944  0.0473  0.0209  0.0245
 8414W        W24675   1.084  11.548  13.955  0.1608  0.0292 -0.1538
 8415W        W24676   4.715   1.244  12.009  0.1562 -0.4861  0.2390
 8416W        W24677   4.389   4.863  10.946 -0.0162 -0.0533  0.2206
 8417W        W24678   7.552   1.917  12.639 -0.1525  0.2612  0.1711
 8418W        W24679  15.059   7.229   4.102 -0.2338 -0.0974 -0.1470
 8419W        W24680  18.830   9.973  14.396 -0.1975  0.3636  0.0458
 8420W        W24681  17.942  18.005  14.527  0.4235  0.0757  0.4335
 8421W        W24682   0.676  14.672   0.006 -0.1950  0.1926 -0.0104
 8422W        W24683  15.655   0.916  14.441  0.0666 -0.2250  0.0529
 8423W        W24684   4.492  15.564   5.163  0.2093 -0.3323  0.1784
 8424W        W24685  15.909   4.061   3.209  0.1488 -0.2994 -0.0062
 8425W        W24686   7.112   8.855  13.441  0.1653 -0.3119 -0.0662
 8426W        W24687   9.333   5.178   4.338  0.2152  0.0734 -0.0455
 8427W        W24688  10.291  17.657   0.671  0.0527 -0.0018 -0.1717
 8428W        W24689  13.862   7.563  10.313  0.1656 -0.0680 -0.0254
 8429W        W24690   5.695  17.300  10.863 -0.3071  0.0234 -0.1962
 8430W        W24691  13.660   3.631   0.538 -0.1097  0.0547  0.1333
 8431W        W24692  16.122  10.650   3.658 -0.0433 -0.0846  0.0398
 8432W        W24693  18.724   5.230  12.256  0.2630 -0.1997 -0.2860
 8433W        W24694  11.375  10.143  10.796 -0.0188  0.0159 -0.2272
 8434W        W24695   0.354  14.629  12.616  0.1411  0.1398  0.1822
 8435W        W24696  17.470   3.411   3.633  0.0269  0.2507  0.3437
 8436W        W24697  15.188  17.483   4.842  0.5864 -0.2323 -0.1039
 8437W        W24698  15.533   6.827   3.093  0.0878 -0.2786 -0.0808
 8438W        W24699  15.346  14.845  14.091 -0.0506  0.1681  0.0220
 8439W        W24700  13.132   6.732   4.475  0.2894 -0.3864  0.3013
 8440W        W24701  14.795  10.264  11.885  0.3148 -0.1169 -0.0291
 8441W        W24702  14.737   5.545   0.985  0.0460 -0.0567  0.0224
 8442W        W24703   0.672   5.051  11.716 -0.0332  0.0600  0.2975
 8443W        W24704  18.479  11.621   1.195 -0.2457 -0.0203 -0.1238
 8444W        W24705   1.803  19.054   2.106 -0.1965 -0.0740 -0.0484
 8445W        W24706  18.046  16.670  10.909  0.0400 -0.1916  0.2267
 8446W        W24707   3.278   3.918   3.672 -0.1630 -0.0563  0.1357
 8447W        W24708   1.890  10.515   5.277  0.1150 -0.2126  0.1498
 8448W        W24709   2.563  18.411   4.929  0.1635 -0.1637  0.0101
 8449W        W24710   5.971  12.369   3.909 -0.2091 -0.0803 -0.2496
 8450W        W24711  13.613   6.445   3.163  0.2067 -0.1445  0.0266
 8451W        W24712  15.678  10.258   5.439 -0.0628 -0.2847  0.0582
 8452W        W24713  15.826  10.094   2.907  0.2929  0.4113  0.2090
 8453W        W24714   4.985  12.003   4.680 -0.0084  0.1404 -0.2937
 8454W        W24715  16.857   6.819  11.410  0.3416  0.0458  0.1326
 8455W        W24716  10.515  12.284   3.737  0.0504  0.1204 -0.0222
 8456W        W24717  12.269   2.368  12.019 -0.0749  0.0106 -0.2412
 8457W        W24718  13.011  16.180  13.234  0.2916  0.3157 -0.4817
 8458W        W24719  13.547   4.705  12.239 -0.0326  0.0618 -0.1755
 8459W        W24720  16.820   9.991   0.945  0.1349  0.1367 -0.2639
 8460W        W24721   9.571  14.061   1.024 -0.2441 -0.1684  0.0228
 8461W        W24722  10.239   9.835   4.836 -0.1875 -0.1265 -0.1594
 8462W        W24723   4.134   7.746  14.339 -0.3414 -0.4391 -0.0395
 8463W        W24724  18.881   2.641  12.634 -0.2035 -0.2655  0.2555
 8464W        W24725   4.631  17.261  11.744  0.0511  0.1918 -0.1488
 8465W        W24726   3.887  18.301  13.570  0.0283 -0.4343  0.0789
 8466W        W24727   3.190   3.544  12.338  0.0564  0.2083 -0.0634
 8467W        W24728  18.299   3.076  13.436 -0.0539  0.2536 -0.5315
 8468W        W24729   2.314  11.252   3.565 -0.1390  0.1906  0.1352
 8469W        W24730   9.196   3.246   0.541  0.0039 -0.0760 -0.1186
 8470W        W24731   1.522   8.207   3.138 -0.2051 -0.0093  0.0020
 8471W        W24732   2.115  17.138   0.452 -0.5629 -0.1460  0.0918
 8472W        W24733  18.881  10.463  14.467 -0.1800 -0.0628  0.1083
 8473W        W24734  17.031  10.982   4.306  0.4734 -0.0344 -0.0772
 8474W        W24735   5.517   5.704   2.564 -0.0332  0.0741  0.2736
 8475W        W24736   4.338  14.085  13.373  0.0660 -0.2570 -0.0888
 8476W        W24737   4.916   8.525  11.458 -0.0505  0.0682 -0.3661
 8477W        W24738  15.449  16.706   1.077  0.1911 -0.1006  0.1591
 8478W        W24739   6.440  14.413   4.169  0.2330  0.3260  0.3151
 8479W        W24740  13.023  16.493   2.068 -0.1863 -0.0689  0.1384
 8480W        W24741  16.839   1.334   3.489 -0.1245 -0.0986 -0.1294
 8481W        W24742   1.766  17.847   0.417 -0.1261  0.0199 -0.2908
 8482W        W24743   2.455  11.059  12.262  0.0612 -0.1421 -0.2610
 8483W        W24744  11.853  17.377   3.201 -0.3415  0.1570 -0.3730
 8484W        W24745   4.636   6.037   2.767 -0.0262  0.3076  0.2796
 8485W        W24746   6.351  13.953  10.847 -0.0640 -0.0464 -0.2379
 8486W        W24747  19.334   2.117   1.059 -0.0014  0.1132  0.4469
 8487W        W24748  17.928  10.518  11.875  0.0704  0.0196  0.0555
 8488W        W24749  15.998  19.413  10.871 -0.1148 -0.3919  0.1506
 8489W        W24750  12.438   6.752  11.813 -0.1649 -0.0242  0.0585
 8490W        W24751   9.949   3.090   1.162 -0.0842 -0.0368 -0.1819
 8491W        W24752   0.034  14.676   0.883  0.2050 -0.0708 -0.0898
 8492W        W24753  13.139   1.352   4.503  0.1670  0.1219 -0.2775
 8493W        W24754  13.978   4.525   2.174  0.1332 -0.0714 -0.1115
 8494W        W24755  18.425  16.676  11.235 -0.1734  0.0331 -0.3313
 8495W        W24756  13.034   4.045  12.578  0.1611  0.2409 -0.2899
 8496W        W24757  10.555  18.304  13.516  0.0401  0.2587 -0.0993
 8497W        W24758  17.941   5.561   4.417  0.3486  0.0045  0.2582
 8498W        W24759  10.252   4.103  13.305 -0.5772  0.3004 -0.1408
 8499W        W24760   0.716   1.090  13.727 -0.1053 -0.0803  0.1863
 8500W        W24761  18.681   7.867   3.274 -0.1947 -0.1414 -0.0980
 8501W        W24762   8.322  16.744  14.300  0.5329 -0.1167 -0.4956
 8502W        W24763   4.151  19.311   5.130 -0.0125 -0.1383  0.1321
 8503W        W24764   8.550  14.681   2.033 -0.2400 -0.1551  0.1666
 8504W        W24765  10.589  18.284   2.048  0.0139 -0.0268 -0.3259
 8505W        W24766  12.782   6.326   1.675  0.1909 -0.2744 -0.1030
 8506W        W24767   1.943   8.316  13.950 -0.1167  0.1075 -0.1156
 8507W        W24768   8.743  18.606   2.398 -0.1324 -0.2138 -0.0155
 8508W        W24769  14.378  13.767   1.177 -0.2252 -0.0642  0.0822
 8509W        W24770  13.185   9.124   4.133 -0.2962  0.0058 -0.2593
 8510W        W24771  16.888  17.244   3.146 -0.3865 -0.3219  0.0971
 8511W        W24772   4.821   4.338   5.246 -0.1977 -0.0434 -0.1112
 8512W        W24773  16.246   0.452   1.292 -0.2511 -0.0009 -0.1891
 8513W        W24774  11.517  18.349   4.492 -0.4639  0.0178 -0.2181
 8514W        W24775   8.469  13.025  12.011 -0.1607 -0.3254  0.0588
 8515W        W24776  12.247   1.543   1.839  0.0007 -0.0936  0.0712
 8516W        W24777  11.356   8.982   2.987 -0.1255  0.1292  0.0486
 8517W        W24778   6.074   3.434   3.841  0.1771  0.0022  0.3848
 8518W        W24779  13.364  12.129  14.762  0.2155  0.3405 -0.1157
 8519W        W24780   0.397  10.432  14.199  0.1153  0.2175 -0.1591
 8520W        W24781   3.975   8.068   4.511 -0.3166  0.1142  0.1092
 8521W        W24782   1.543   9.568   4.732  0.1926  0.0278 -0.0092
 8522W        W24783  18.527  11.037   5.167  0.0158  0.1027  0.1633
 8523W        W24784   6.155  12.256  13.105 -0.0280  0.1896  0.0646
 8524W        W24785  16.667   3.085   0.257  0.1527  0.3331 -0.1819
 8525W        W24786   1.771  19.418  12.482 -0.0286 -0.4091 -0.0485
 8526W        W24787  16.316   5.265   1.194 -0.0853  0.3154  0.1867
 8527W        W24788  10.973   1.137  10.616 -0.1298  0.1114  0.2147
 8528W        W24789   8.995   2.525   5.339  0.2017 -0.2048  0.0582
 8529W        W24790   1.021  12.717  10.014 -0.1015 -0.2010 -0.3990
 8530W        W24791   4.806   9.558  13.339  0.0274 -0.2423  0.2826
 8531W        W24792  15.214   3.182   1.525 -0.2379  0.1171  0.0184
 8532W        W24793  17.581   2.179  14.486 -0.1743 -0.0934 -0.0736
 8533W        W24794  19.419   5.832  14.287 -0.1039 -0.2252  0.4502
 8534W        W24795  14.742   3.004   2.395  0.2382  0.0848 -0.0241
 8535W        W24796   4.841   7.670   4.708 -0.3632 -0.1994  0.1104
 8536W        W24797   3.906   2.870   9.551  0.0182 -0.3049 -0.1500
 8537W        W24798  12.544   9.869  14.563  0.1386 -0.4279 -0.0727
 8538W        W24799  18.119  12.281   3.465  0.1453  0.0396 -0.0836
 8539W        W24800  16.236  13.742  10.984 -0.0287  0.0322  0.0764
 8540W        W24801   6.257  17.485   5.444 -0.0169 -0.3341  0.1012
 8541W        W24802  15.159   9.277   1.595 -0.2117 -0.0171 -0.0656
 8542W        W24803  16.113   7.440   4.082 -0.0199 -0.3182  0.0165
 8543W        W24804   5.321  11.571  14.374 -0.1525  0.2144 -0.1153
 8544W        W24805  14.125  11.363   3.431  0.2308 -0.1552 -0.0445
 8545W        W24806  18.593   5.217   0.975  0.0481 -0.0800 -0.2454
 8546W        W24807   8.287  11.751  12.348  0.1639 -0.0736  0.0589
 8547W        W24808   2.472   6.188  13.730  0.1661 -0.1583  0.0796
 8548W        W24809   5.134  12.253   1.367 -0.2965 -0.0522  0.1803
 8549W        W24810   5.690   3.339   3.139 -0.2790 -0.0547  0.3409
 8550W        W24811  18.016  10.316  11.187 -0.1381  0.0354  0.1283
 8551W        W24812  11.085  16.049   1.669 -0.0336 -0.2444 -0.2517
 8552W        W24813   6.028   1.580  12.237 -0.1080  0.1064 -0.1040
 8553W        W24814  13.218   1.898   0.475  0.0788 -0.1219 -0.0388
 8554W        W24815  18.959   2.944   0.640  0.1208 -0.3484  0.1163
 8555W        W24816  16.241  11.600   1.645 -0.0854  0.0124 -0.2622
 8556W        W24817  15.007   3.788  11.133  0.2166 -0.1697  0.1097
 8557W        W24818   6.775   4.878   4.775 -0.0419  0.0530 -0.3597
 8558W        W24819  14.688   7.490   2.169 -0.0076  0.1379  0.0863
 8559W        W24820   7.038   5.289  10.178 -0.1198 -0.1499 -0.1390
 8560W        W24821  16.757   4.589   0.727 -0.3327  0.2486 -0.2539
 8561W        W24822   7.142   9.058   3.271 -0.2206  0.1161  0.0066
 8562W        W24823  13.157  17.539  12.496 -0.2130  0.2169  0.3449
 8563W        W24824   2.361   4.598   3.394  0.1279 -0.0037 -0.1725
 8564W        W24825  16.343  19.075  12.596  0.1769  0.2098 -0.2184
 8565W        W24826   3.029  12.856   3.885  0.1890  0.2168 -0.0679
 8566W        W24827   0.044   8.440  12.503  0.0310 -0.0325 -0.0703
 8567W        W24828  11.952   2.286  10.782  0.0780 -0.2058 -0.0761
 8568W        W24829  13.945   0.686  10.950  0.0633  0.3207 -0.1457
 8569W        W24830   9.094   6.567   3.565  0.1953  0.1102 -0.0529
 8570W        W24831   7.405   0.425   3.500 -0.1348  0.1417 -0.1141
 8571W        W24832  19.235  18.485   0.168 -0.1387  0.1171  0.0256
 8572W        W24833  15.973  12.799   1.099  0.0481 -0.0922  0.0426
 8573W        W24834  11.120  11.415  11.203 -0.0282 -0.2709  0.2283
 8574W        W24835   6.613  15.426   4.310 -0.1506  0.0673  0.1032
 8575W        W24836   3.893  13.845   1.181  0.5217  0.1882  0.2503
 8576W        W24837  10.255  17.638   4.992  0.1174  0.4308 -0.3416
 8577W        W24838   1.325   9.951  11.277 -0.1443 -0.0779  0.1858
 8578W        W24839  14.977   6.101   1.906 -0.4499 -0.0058 -0.1372
 8579W        W24840  15.426  18.398  14.267 -0.0642 -0.0114  0.2012
 8580W        W24841  16.721   9.091  11.100 -0.1088 -0.1331 -0.1477
 8581W        W24842  12.308   6.415  10.984  0.0719 -0.0142  0.1886
 8582W        W24843   1.075   1.257   0.288 -0.0560 -0.0921  0.1518
 8583W        W24844   3.255  16.647   4.976  0.1694 -0.2629  0.3155
 8584W        W24845   6.257  14.458  11.612  0.0018  0.1811  0.0569
 8585W        W24846   6.448   4.710   3.757  0.2457 -0.3407  0.4697
 8586W        W24847   5.945  15.516   0.132 -0.0437  0.0011  0.2210
 8587W        W24848  10.941  13.223  13.095  0.2023 -0.0989 -0.0216
 8588W        W24849  17.085   3.487   1.389  0.2264  0.0068 -0.0383
 8589W        W24850  12.822   1.149   4.838  0.1526 -0.1803  0.0368
 8590W        W24851  13.678   8.115  12.849  0.1495 -0.1193  0.2074
 8591W        W24852  17.994   7.058   4.238  0.1417 -0.0390  0.1129
 8592W        W24853   8.847   5.166  14.174  0.0392 -0.3652 -0.1134
 8593W        W24854   4.063  12.599   4.630 -0.1687  0.0533  0.0180
 8594W        W24855  18.732  12.337  14.521 -0.1914  0.2558 -0.0271
 8595W        W24856  14.312  16.145  10.406  0.0336 -0.4443 -0.2157
 8596W        W24857   9.354   9.631  14.227 -0.2620  0.1513  0.1342
 8597W        W24858  10.995  13.907  13.667 -0.0680  0.2380 -0.0763
 8598W        W24859   7.598  15.144  13.089  0.1152 -0.0363  0.0011
 8599W        W24860  11.276  13.294   1.916  0.0827  0.2461  0.1040
 8600W        W24861   9.236   1.480   0.740 -0.0829  0.1034 -0.1180
 8601W        W24862   0.141   1.824   1.392 -0.2128  0.0830 -0.1182
 8602W        W24863  16.624   7.455   4.276  0.0076  0.1364 -0.3967
 8603W        W24864  11.334   5.833  11.525  0.1346 -0.3368  0.0179
 8604W        W24865  17.935  14.277  13.445 -0.1733 -0.3174  0.0883
 8605W        W24866  10.290   8.881   3.972  0.1040 -0.1251  0.1424
 8606W        W24867   1.244   4.664  13.563 -0.0167 -0.0272  0.0483
 8607W        W24868  10.991   7.337  13.737  0.1526  0.2308  0.2457
 8608W        W24869  10.734  18.837   0.170  0.0078 -0.1420  0.0573
 8609W        W24870   9.251  14.882   0.430 -0.0518  0.2655  0.0659
 8610W        W24871  17.221  10.281   0.830 -0.1613 -0.0023 -0.1110
 8611W        W24872   9.907   3.513  11.224 -0.1316  0.1474 -0.1976
 8612W        W24873  12.983   4.317  10.359 -0.2490 -0.0437 -0.4359
 8613W        W24874  15.089  13.600  14.054 -0.1137  0.3458 -0.2488
 8614W        W24875   7.900  18.427   2.639  0.2307 -0.0585 -0.3842
 8615W        W24876   2.236  18.622  14.792  0.1070  0.0970 -0.2876
 8616W        W24877  10.919  17.912   5.051  0.1335  0.0061 -0.1496
 8617W        W24878   9.761  11.318  14.382 -0.3040 -0.1816  0.1128
 8618W        W24879   0.246  13.749   0.273 -0.1585 -0.2159  0.0648
 8619W        W24880  19.436  19.057  13.145  0.2503  0.2818 -0.1266
 8620W        W24881   7.201   9.820   0.450  0.3878  0.0035  0.1607
 8621W        W24882   5.477  11.978   3.428 -0.1334 -0.0617 -0.1150
 8622W        W24883  10.585  13.933   2.352  0.2684  0.1256 -0.4883
 8623W        W24884  18.403   0.557   1.362  0.3674 -0.0061 -0.0606
 8624W        W24885   4.844  13.403  11.114 -0.4002  0.3199  0.4415
 8625W        W24886   1.606   2.826   1.845 -0.0331  0.0323  0.2046
 8626W        W24887  16.856   3.310  10.543 -0.0767  0.0373 -0.0726
 8627W        W24888   3.559   3.165  13.201  0.3539 -0.1297  0.1029
 8628W        W24889   1.943  16.613   1.551 -0.0413 -0.0331 -0.0908
 8629W        W24890  16.816  13.422   2.021 -0.0208 -0.1790  0.0750
 8630W        W24891  10.939   5.041  11.337 -0.1435 -0.3969 -0.2259
 8631W        W24892  13.587   4.222   2.017  0.1074 -0.1415 -0.0533
 8632W        W24893   7.073   4.908  12.820 -0.2557 -0.0144 -0.2893
 8633W        W24894  15.715   4.879   1.203 -0.0575 -0.1073  0.3816
 8634W        W24895  19.330  16.249   5.536  0.1214 -0.2565 -0.0580
 8635W        W24896  18.446  15.227  12.664  0.1706  0.3657 -0.0178
 8636W        W24897   8.806   5.000   2.471 -0.1384 -0.1376  0.1354
 8637W        W24898  14.533   1.676   1.317  0.0580 -0.1037 -0.3192
 8638W        W24899  18.830  10.481  13.944  0.0397  0.0557  0.1071
 8639W        W24900   4.323  13.990  12.858  0.2217  0.1907 -0.1663
 8640W        W24901   9.802  12.372  10.060 -0.2265 -0.0360  0.4843
 8641W        W24902   2.034  16.054   4.262 -0.2305 -0.2480  0.1513
 8642W        W24903   3.161  10.581  14.219 -0.4802 -0.0397  0.3303
 8643W        W24904  13.853  15.781  10.705  0.1417  0.3693 -0.0689
 8644W        W24905   5.484  11.921   1.050 -0.0728 -0.0014 -0.0071
 8645W        W24906  15.079   8.837   3.567 -0.0235 -0.2822  0.0142
 8646W        W24907   3.985   5.994  11.551 -0.2212  0.1450 -0.1892
 8647W        W24908   7.340  16.027   0.179 -0.3952 -0.2379 -0.2630
 8648W        W24909   9.392   0.796  13.909  0.0790  0.0301  0.1568
 8649W        W24910  10.372   9.571  14.428 -0.0965  0.1752  0.0805
 8650W        W24911   2.888  15.717   1.495  0.0965  0.1228 -0.1473
 8651W        W24912   2.092  14.187  13.670  0.1335 -0.1113 -0.1813
 8652W        W24913   8.449   3.452   1.701  0.1413  0.2699 -0.0290
 8653W        W24914  16.656   1.079   4.184  0.2004  0.0491 -0.0258
 8654W        W24915  17.285   6.519   2.219 -0.0141  0.2046  0.1179
 8655W        W24916   5.708  10.832   1.191 -0.1284 -0.3520  0.0038
 8656W        W24917  17.946  11.113   1.980 -0.2935  0.1409  0.2263
 8657W        W24918  10.057   1.852   2.042 -0.0351 -0.1199 -0.5237
 8658W        W24919  18.374  17.168   3.329 -0.0461 -0.1058  0.0760
 8659W        W24920  11.910  12.042   3.256 -0.0108  0.0385  0.0781
 8660W        W24921   9.548  12.383  14.129  0.1935 -0.3097 -0.2432
 8661W        W24922   8.764  12.640  12.127  0.2155  0.1675 -0.1677
 8662W        W24923   7.594  14.667  13.252  0.0044 -0.2514  0.0426
 8663W        W24924  10.099  18.574  11.258 -0.1433 -0.1459 -0.4521
 8664W        W24925   3.987   5.407   3.674 -0.1341 -0.2341 -0.0256
 8665W        W24926  16.426  11.592  14.115 -0.0087  0.0317 -0.0631
 8666W        W24927  10.196   0.387  11.731  0.3708  0.0469 -0.1779
 8667W        W24928   9.847   3.636   4.817  0.1002 -0.0207 -0.1264
 8668W        W24929   6.056  11.309   5.334  0.0293 -0.0386  0.0536
 8669W        W24930   4.809   6.936   4.286 -0.1262 -0.2860 -0.1547
 8670W        W24931  19.055  12.151   3.912  0.1907  0.0806 -0.2024
 8671W        W24932   6.798  15.277  11.664  0.0760 -0.1261 -0.0565
 8672W        W24933   9.536  13.309   3.930  0.0699  0.3732  0.0092
 8673W        W24934   4.786   8.503  13.230  0.1717  0.0732 -0.2609
 8674W        W24935   9.490  17.218   0.928  0.1199  0.3385 -0.4012
 8675W        W24936  13.041  15.767  11.986  0.0384 -0.1041  0.3834
 8676W        W24937   9.925   3.130  11.553 -0.0369  0.0703  0.0048
 8677W        W24938   8.820  18.828   4.582 -0.1601 -0.2078  0.0464
 8678W        W24939   4.143  14.841   2.237 -0.0777 -0.4060  0.0847
 8679W        W24940   9.956  11.213   1.910 -0.2188  0.1491 -0.0397
 8680W        W24941   1.659   0.237   1.347  0.0807  0.0196 -0.2861
 8681W        W24942  19.175  17.491   2.620 -0.1129  0.0483  0.0748
 8682W        W24943   2.498  16.206  11.867 -0.3947  0.0926  0.1253
 8683W        W24944   7.033  19.293   2.814  0.0122 -0.0187  0.0817
 8684W        W24945  10.453   2.636   4.499 -0.1165  0.2594  0.1738
 8685W        W24946   1.465   1.598   3.917  0.0537  0.0194 -0.0522
 8686W        W24947  14.451   0.217   3.809  0.1576  0.1849  0.0327
 8687W        W24948  11.590   4.283   4.663  0.1478 -0.3697 -0.2309
 8688W        W24949  18.743  19.301  14.025 -0.2899  0.1936  0.2441
 8689W        W24950  17.771  14.604  14.186 -0.0109  0.0017 -0.2065
 8690W        W24951   8.422  15.641   0.658  0.1714 -0.0678 -0.4793
 8691W        W24952  12.377   1.200  13.376 -0.2239  0.1623 -0.0815
 8692W        W24953  14.995  10.695  14.306  0.0763 -0.0444  0.1995
 8693W        W24954   4.481   8.746  11.914  0.1218  0.0383  0.2593
 8694W        W24955  16.500   4.122  13.766  0.0584 -0.1136  0.2216
 8695W        W24956  13.232  11.297  12.788 -0.0653  0.2117 -0.0540
 8696W        W24957  13.427  17.895  14.582 -0.0716  0.2817  0.0549
 8697W        W24958  16.465   6.927  14.315 -0.0201  0.1098  0.3704
 8698W        W24959  11.895   1.751  12.784  0.3028  0.2067 -0.1970
 8699W        W24960   2.792  14.262   2.474 -0.0612  0.4982 -0.1968
 8700W        W24961  14.065   8.090  14.105  0.2578  0.2578  0.0968
 8701W        W24962  11.378  12.763  13.034 -0.0740  0.1167  0.1084
 8702W        W24963  15.078   1.560  14.624  0.2184  0.0984 -0.0290
 8703W        W24964  12.442   2.319  10.126  0.2971  0.2884 -0.2582
 8704W        W24965   7.016  17.507  12.708 -0.1056 -0.0452  0.3960
 8705W        W24966   7.167   0.569   3.095 -0.0980 -0.2591  0.0431
 8706W        W24967  16.797   2.390   2.788  0.1340 -0.1384 -0.1176
 8707W        W24968  18.567   4.491   3.053 -0.1096 -0.1824  0.0202
 8708W        W24969  14.271  18.808   2.029  0.0706  0.2388  0.0604
 8709W        W24970  14.721  18.987  10.731  0.0222  0.0118  0.1873
 8710W        W24971  10.411  15.160  12.056  0.2628  0.3679 -0.0201
 8711W        W24972   2.082  12.798   4.152  0.1951  0.0558  0.2522
 8712W        W24973  12.646  10.290  11.675  0.2003  0.1555 -0.0849
 8713W        W24974   1.404   1.092   1.870 -0.0286  0.2040  0.1168
 8714W        W24975  16.923   1.215  12.895 -0.1479 -0.1376 -0.0642
 8715W        W24976  19.280   8.869   1.444 -0.0038  0.0063 -0.1138
 8716W        W24977  15.889   8.520  14.593  0.3787 -0.0008  0.3136
 8717W        W24978   0.034   6.556  12.195  0.3330 -0.0392  0.1743
 8718W        W24979   6.528  18.872  13.676 -0.3637 -0.1358  0.1460
 8719W        W24980  16.201   1.188  12.079  0.2258 -0.0324  0.2596
 8720W        W24981   4.192   3.590  14.764  0.1028  0.1457 -0.2680
 8721W        W24982   3.600  13.052   3.255  0.0097 -0.0508 -0.0883
 8722W        W24983   6.752   7.161  11.156  0.2426  0.0231 -0.2876
 8723W        W24984  12.831   7.742   0.086  0.1229 -0.0570  0.2824
 8724W        W24985   2.271   5.718  13.335  0.1110 -0.1121  0.2651
 8725W        W24986   3.010   1.140   9.893  0.1899 -0.0917 -0.1666
 8726W        W24987  14.914   4.659  11.412  0.2053 -0.0806 -0.1615
 8727W        W24988   3.135   4.439  13.494  0.1500 -0.1051  0.0484
 8728W        W24989  13.356  14.643  13.491 -0.0658 -0.0779 -0.2207
 8729W        W24990  19.158  17.293  13.144 -0.1465  0.0380  0.2828
 8730W        W24991  13.423   9.808   0.355 -0.1300 -0.0952  0.2088
 8731W        W24992  10.536  18.516   2.701 -0.0570 -0.0930  0.2666
 8732W        W24993   4.294   6.542  11.915 -0.1242  0.2454 -0.0354
 8733W        W24994   5.736  17.491  12.215 -0.1642 -0.1114 -0.1582
 8734W        W24995   7.033  11.681   3.121  0.2218  0.0349 -0.2743
 8735W        W24996  10.587   6.267   2.688 -0.0147  0.0399  0.1894
 8736W        W24997   2.849  14.009  11.088 -0.0176  0.1502 -0.2026
 8737W        W24998   7.019   5.317   1.807 -0.2701  0.1889  0.1642
 8738W        W24999  12.225   9.294   2.444 -0.5214  0.3092 -0.1344
 8739W        W25000  10.870  16.324  12.887 -0.1053 -0.0502 -0.2873
 8740W        W25001   6.524   1.860  13.067 -0.0940 -0.3007 -0.1648
 8741W        W25002  15.250  18.492   2.341 -0.4898  0.1098  0.4370
 8742W        W25003  17.844  14.395  10.976  0.1329 -0.1705  0.2813
 8743W        W25004  16.158   7.573  12.514  0.0891  0.1491 -0.0013
 8744W        W25005  12.973   3.361  14.762 -0.0568  0.1844 -0.2714
 8745W        W25006   4.825  10.792   3.091  0.4478  0.1161 -0.2099
 8746W        W25007   5.625  15.888  12.102  0.2208 -0.1967  0.1654
 8747W        W25008   5.656   6.889  11.679  0.4346  0.4001 -0.3242
 8748W        W25009  16.446   2.344  13.510  0.0616  0.2742  0.2027
 8749W        W25010  14.157  16.933  13.408 -0.1306  0.2066 -0.1850
 8750W        W25011  18.392  18.284   2.351  0.1514 -0.4967 -0.0145
 8751W        W25012   0.342  10.255   2.971 -0.1185 -0.0040 -0.2198
 8752W        W25013   7.767  11.079   0.999 -0.1397 -0.1839  0.2476
 8753W        W25014  11.886   6.967   0.713 -0.0023 -0.3167  0.1615
 8754W        W25015  11.840   0.079   1.397 -0.2313  0.3083  0.0604
 8755W        W25016  12.159  17.112  11.219  0.0431  0.2821 -0.1849
 8756W        W25017   4.477  15.251  12.049  0.2613 -0.1959  0.0558
 8757W        W25018   3.219  16.365  12.527  0.2520  0.0719  0.2806
 8758W        W25019  13.580  16.123   9.417  0.0218 -0.1666 -0.2065
 8759W        W25020  10.324   1.833   3.101  0.2682  0.1668  0.0570
 8760W        W25021  14.326  15.988   2.195 -0.1176 -0.1030  0.0928
 8761W        W25022   4.483  13.953   3.326 -0.2223  0.2414  0.1120
 8762W        W25023   0.564  17.194  14.246  0.2510  0.2890 -0.1340
 8763W        W25024   5.688   1.089   4.126  0.0458  0.0764 -0.2008
 8764W        W25025  12.262   2.340   0.100  0.0044 -0.1158  0.0047
 8765W        W25026  15.863  12.418  12.370  0.2923  0.2343  0.0481
 8766W        W25027   9.838  11.614   4.269  0.1293  0.1356 -0.1844
 8767W        W25028   5.791   8.292  11.788 -0.3354 -0.0587  0.0641
 8768W        W25029  16.575  18.009   0.308 -0.0890 -0.1879  0.2821
 8769W        W25030  15.602  16.139   3.694  0.0941 -0.0125  0.1852
 8770W        W25031  14.842  17.857  11.564 -0.2278  0.2155  0.2798
 8771W        W25032   4.225  11.176  10.935 -0.0232 -0.2031  0.2654
 8772W        W25033  12.689   4.312   0.908  0.0389  0.0607 -0.3251
 8773W        W25034  17.431   0.164   2.926  0.0827  0.0568 -0.0068
 8774W        W25035  15.407   1.356   2.661 -0.0233 -0.0406  0.4693
 8775W        W25036  10.493  12.251  12.488 -0.1045  0.0056  0.5410
 8776W        W25037   1.718  14.109   0.801 -0.2253 -0.1738  0.1520
 8777W        W25038   9.912  18.114   8.730 -0.0574  0.0571 -0.3443
 8778W        W25039  15.048   5.551   0.626  0.1305 -0.0808  0.0516
 8779W        W25040   3.512   5.786  13.736 -0.1626 -0.2305  0.0830
 8780W        W25041   6.338   6.360  11.442 -0.1769  0.1270  0.1647
 8781W        W25042   6.018   6.570   1.454 -0.2352 -0.0918  0.0266
 8782W        W25043  13.998   0.948  12.129  0.0530 -0.0281 -0.0849
 8783W        W25044  13.185  19.419   9.786  0.0683 -0.0636 -0.0743
 8784W        W25045  17.568  16.245  10.191  0.5324  0.0146  0.0749
 8785W        W25046   9.308  12.844   9.700 -0.1669 -0.4719 -0.4250
 8786W        W25047   7.575   8.354  12.671 -0.0262  0.1230  0.0578
 8787W        W25048   4.496   6.473   0.950  0.0372  0.0425 -0.2713
 8788W        W25049   1.061  11.679   1.508  0.1984  0.3071 -0.0105
 8789W        W25050   3.752  13.357   2.207 -0.3985  0.3423  0.0187
 8790W        W25051   8.111  10.419   0.383  0.0566  0.0654  0.1257
 8791W        W25052   0.778   4.117   3.611 -0.1405 -0.0307 -0.0231
 8792W        W25053   0.242  10.437   1.114  0.0031 -0.3233  0.2294
 8793W        W25054  14.422   0.426  13.586  0.0638 -0.1126  0.1088
 8794W        W25055   8.637  12.632  13.970 -0.3107  0.1720  0.0307
 8795W        W25056  13.341   4.723  11.761  0.1785 -0.1748  0.1694
 8796W        W25057   5.530  11.147  14.496 -0.0210 -0.0964  0.0761
 8797W        W25058  10.928   1.727  14.695  0.0697  0.3263 -0.3218
 8798W        W25059   0.769  14.683   5.388 -0.1300  0.5578 -0.2008
 8799W        W25060   5.136  17.214  10.793 -0.0975 -0.1299  0.1178
 8800W        W25061  17.746   9.014   0.217 -0.1449  0.0252  0.2766
 8801W        W25062  18.554  13.489  11.123  0.0374 -0.1984 -0.1708
 8802W        W25063   1.940   9.332  11.759 -0.1022 -0.3304 -0.2185
 8803W        W25064  10.557  11.847   4.105  0.1930 -0.1227 -0.2436
 8804W        W25065   6.879   0.401   3.607 -0.0622 -0.1516  0.0528
 8805W        W25066   9.919  14.170  10.683 -0.0323 -0.3561  0.0505
 8806W        W25067  11.522   2.448   0.716  0.0528 -0.2676 -0.1777
 8807W        W25068   8.133  13.396  13.646  0.6254  0.0272  0.3137
 8808W        W25069   9.208  16.173   3.505  0.0286  0.2799 -0.1073
 8809W        W25070  10.408  11.852   0.836 -0.1422 -0.1424  0.0135
 8810W        W25071   0.788   6.647  11.557  0.2106 -0.0509 -0.1813
 8811W        W25072  15.407   9.738   1.749  0.0348 -0.3509  0.1359
 8812W        W25073   3.474   5.285   3.570 -0.1967  0.1682  0.0120
 8813W        W25074   5.725   1.905   2.454  0.0032  0.0606  0.2481
 8814W        W25075   7.547  15.136   4.902 -0.0211  0.1368  0.0617
 8815W        W25076   2.697   0.912   4.515  0.3238 -0.0184 -0.4735
 8816W        W25077   8.662  17.610   4.437 -0.1896 -0.2032  0.0417
 8817W        W25078  16.696  11.472   0.479 -0.0212 -0.0319  0.2447
 8818W        W25079   3.320   6.201  13.958  0.1476 -0.5463 -0.0174
 8819W        W25080   5.149  17.018   3.113 -0.0632 -0.1354 -0.1260
 8820W        W25081   8.604   6.557  14.737  0.1043  0.0191  0.1633
 8821W        W25082  10.245  16.662  11.969 -0.1275  0.0849 -0.2449
 8822W        W25083   5.682  16.852  14.749 -0.3605  0.1960 -0.0652
 8823W        W25084   1.846  19.151  10.981 -0.0240 -0.0863  0.2318
 8824W        W25085   7.549   6.703  13.521  0.1337 -0.2020 -0.3318
 8825W        W25086   2.960   5.985  13.649 -0.1223 -0.1703  0.3231
 8826W        W25087   7.759   7.048   3.338 -0.0504 -0.0324 -0.1740
 8827W        W25088  19.245  11.347  12.632 -0.0328 -0.0510  0.1919
 8828W        W25089   7.212  16.449  14.419  0.2638  0.3851 -0.2638
 8829W        W25090   7.784   6.932   5.983  0.0664 -0.1023 -0.0758
 8830W        W25091   1.222   3.199   0.471  0.3397  0.1859 -0.0951
 8831W        W25092   8.386  17.550  13.105 -0.0082  0.3315 -0.0820
 8832W        W25093  15.023   8.287   2.166 -0.0913  0.2403 -0.0210
 8833W        W25094   1.186  11.502   0.770 -0.1139  0.0060 -0.0235
 8834W        W25095  13.200   7.327   3.588  0.2413 -0.0009 -0.1015
 8835W        W25096   0.182  14.630  11.274  0.0342 -0.1353  0.1132
 8836W        W25097   1.406   4.419  12.298 -0.4785  0.1529  0.0548
 8837W        W25098   1.402  15.148   2.067  0.0189 -0.0133  0.1975
 8838W        W25099  15.499   5.634  12.195  0.2746 -0.1203  0.2312
 8839W        W25100   3.383  10.133   3.393  0.0271  0.0236  0.0675
 8840W        W25101   5.252   3.153  13.612  0.1340  0.1360 -0.1784
 8841W        W25102  10.770  14.071   3.327 -0.0060 -0.1974 -0.1721
 8842W        W25103  17.173   8.791   3.087 -0.0805 -0.1533 -0.2113
 8843W        W25104   0.086   3.724  14.516  0.0218  0.0185 -0.1560
 8844W        W25105   9.021  10.708   5.253 -0.0736 -0.0004 -0.2780
 8845W        W25106   5.741   0.433  13.123  0.4798  0.1382 -0.0236
 8846W        W25107  14.594   1.611   2.392  0.0871  0.0158  0.0210
 8847W        W25108   5.147  11.045  12.057 -0.0145  0.2347  0.5479
 8848W        W25109  10.872  15.744   4.689 -0.1812  0.2313 -0.0050
 8849W        W25110   9.875  15.605  14.206  0.3307  0.1739  0.1771
 8850W        W25111   5.380   0.223   2.178  0.0465  0.4252  0.0457
 8851W        W25112   8.105  13.308  10.484  0.0908 -0.1990 -0.1906
 8852W        W25113  14.561   9.851   1.502  0.1943 -0.2002  0.1416
 8853W        W25114   4.383  15.013  11.261  0.0498  0.0569 -0.0742
 8854W        W25115  16.144   0.410  12.205 -0.0928  0.0861  0.0377
 8855W        W25116   6.365   6.820  14.445  0.2681  0.1860 -0.0744
 8856W        W25117   4.877  11.368  10.235  0.1967 -0.0750  0.1964
 8857W        W25118   5.699   2.500   0.147  0.3218 -0.0483 -0.0987
 8858W        W25119  17.091  10.741  10.619  0.1907 -0.3369  0.0349
 8859W        W25120   6.414  19.262  11.769 -0.0008  0.3077  0.0132
 8860W        W25121   7.155  13.260  11.898 -0.0899 -0.1999  0.1174
 8861W        W25122   3.366   2.133  13.617  0.4445 -0.1784  0.0159
 8862W        W25123  10.956   2.065   1.924  0.3010  0.1498  0.0291
 8863W        W25124  13.698   7.204   2.833  0.1869 -0.2434  0.1883
 8864W        W25125  10.020  13.764   0.029  0.0730 -0.2590  0.2733
 8865W        W25126   2.446   6.867   2.684 -0.4495  0.1345  0.0364
 8866W        W25127  16.889   4.835  12.722 -0.2745 -0.3157 -0.1523
 8867W        W25128   2.581   0.269   6.101  0.0713 -0.2128 -0.0362
 8868W        W25129   0.193  17.886  14.808 -0.3920 -0.1756  0.1010
 8869W        W25130   9.573   6.209  14.231 -0.2405  0.1224  0.0176
 8870W        W25131  10.042  14.203  11.597  0.2796 -0.0118 -0.2650
 8871W        W25132   7.413   6.480   4.005  0.2097 -0.0483  0.0551
 8872W        W25133  16.397   6.248   3.232 -0.1284 -0.3367 -0.1382
 8873W        W25134  11.021   1.236  12.654 -0.3080  0.0670 -0.1205
 8874W        W25135  14.473  17.115  12.565  0.0338 -0.0515 -0.2046
 8875W        W25136   1.084  10.634   1.694 -0.3589 -0.2682  0.1464
 8876W        W25137   7.322  13.201  11.369  0.0041 -0.0868 -0.0380
 8877W        W25138   8.121   4.048  12.967 -0.0680  0.0786 -0.2202
 8878W        W25139  11.552  17.128  11.737 -0.0877 -0.0535 -0.2139
 8879W        W25140  19.305   5.027  13.046  0.1643  0.2438 -0.4534
 8880W        W25141  14.959   4.537   1.757 -0.2046  0.0975 -0.0116
 8881W        W25142   8.817  19.263   5.004  0.0265 -0.3128  0.4352
 8882W        W25143   3.527  13.798  13.915 -0.2837  0.0526 -0.0720
 8883W        W25144  17.700   9.657   1.935  0.2207 -0.0532 -0.3511
 8884W        W25145   9.508   4.120   4.622  0.0712 -0.0137 -0.0958
 8885W        W25146  12.740   4.175   4.845 -0.0801 -0.0626 -0.0549
 8886W        W25147  17.215  12.521  10.861  0.1099  0.0806 -0.2788
 8887W        W25148   3.154  10.426   2.869  0.0429 -0.2345  0.3073
 8888W        W25149   6.388   4.086  14.865  0.1546  0.2247 -0.1523
 8889W        W25150   5.267   9.476  12.405  0.0598 -0.0105  0.2099
 8890W        W25151   3.551   4.181  13.263 -0.0646 -0.0405 -0.1130
 8891W        W25152  13.523  14.870   3.450  0.4569 -0.2945  0.0136
 8892W        W25153   4.916  17.714  10.916 -0.0900 -0.3231  0.1118
 8893W        W25154  16.877   1.702   1.481  0.0103 -0.2036  0.3829
 8894W        W25155   1.227   2.097   4.976 -0.0934  0.7045  0.0098
 8895W        W25156  19.212  18.566   5.948  0.0168 -0.2791  0.0671
 8896W        W25157   7.938   6.137  11.475  0.1139 -0.0083 -0.0091
 8897W        W25158  18.196   1.355   3.658 -0.0082 -0.1678 -0.1134
 8898W        W25159  18.824   8.490  13.941 -0.2947  0.1357  0.3280
 8899W        W25160   5.793  12.865   9.215  0.3232  0.0905 -0.1308
 8900W        W25161  18.430   6.184   3.963  0.0728  0.0514 -0.0141
 8901W        W25162   2.683  11.799  14.567  0.0519  0.2957 -0.1911
 8902W        W25163  11.899   3.878   1.730 -0.3297 -0.2397  0.0072
 8903W        W25164   6.950  15.836   4.348  0.2217  0.3359 -0.3014
 8904W        W25165   8.313  19.305   0.984 -0.0766 -0.1445 -0.0076
 8905W        W25166  16.437   7.252  12.858 -0.0415 -0.0355 -0.0028
 8906W        W25167  10.297   6.601   2.517  0.0986  0.1047  0.0397
 8907W        W25168   7.875  13.766   4.623  0.2671 -0.1601  0.1168
 8908W        W25169   8.913  16.653   2.818  0.0351  0.0295  0.1282
 8909W        W25170  10.700   6.261  12.836 -0.0394 -0.0953 -0.1231
 8910W        W25171   1.185  18.630  10.980 -0.2341  0.2615 -0.4789
 8911W        W25172  17.159   8.335  12.905 -0.1581  0.0546 -0.1998
 8912W        W25173   8.844  18.927  12.205 -0.1312  0.0220  0.0926
 8913W        W25174  12.122   2.679   1.087  0.0013 -0.1290 -0.0038
 8914W        W25175   0.697  16.795   0.315  0.0984  0.3132  0.5302
 8915W        W25176   3.497   6.028   3.013  0.0332  0.1471  0.1900
 8916W        W25177  13.365  16.260  11.217  0.1114  0.0490 -0.1626
 8917W        W25178  15.143   4.838   4.107  0.2359  0.0483  0.1207
 8918W        W25179   7.324  10.258   1.358 -0.1281 -0.0122  0.0610
 8919W        W25180  18.300  10.486   0.544  0.0730 -0.1048  0.2251
 8920W        W25181   4.374  15.048   4.377  0.0191  0.4013  0.0493
 8921W        W25182   5.099  12.023   2.558  0.0548 -0.2108  0.0625
 8922W        W25183  17.887   7.741   4.219  0.1528  0.0412  0.2399
 8923W        W25184  11.482   1.382  12.332 -0.2974  0.0223 -0.1682
 8924W        W25185   0.333  12.221  12.459 -0.1433  0.0147 -0.1783
 8925W        W25186   7.329   8.229   3.038  0.0271 -0.0028 -0.4127
 8926W        W25187  15.200   3.100   4.339  0.1945  0.1782 -0.1822
 8927W        W25188   3.409   4.048   1.013  0.3643 -0.0059  0.2190
 8928W        W25189   7.706  10.198  13.025 -0.0033 -0.1275  0.3856
 8929W        W25190  18.341   3.037  13.902 -0.0481  0.1529 -0.0902
 8930W        W25191   8.134   1.112   2.488  0.1567  0.0046  0.1706
 8931W        W25192   2.047  10.039   4.014  0.0589  0.0949  0.1064
 8932W        W25193  10.607   5.339  11.618 -0.0622  0.0098 -0.1542
 8933W        W25194   3.097   8.831  10.879  0.1010 -0.3039 -0.0931
 8934W        W25195   1.132   9.875   3.791 -0.1291  0.1220 -0.0825
 8935W        W25196   6.793  11.063   1.019  0.3440  0.1229 -0.2198
 8936W        W25197  14.093  18.711   4.560  0.2748  0.1027 -0.4703
 8937W        W25198   5.532  11.698  10.901  0.1146  0.1076  0.1016
 8938W        W25199   6.093  14.567   3.133  0.3173 -0.2694  0.0605
 8939W        W25200  11.853  13.517   3.235  0.2749  0.2131 -0.3244
 8940W        W25201  15.651   6.732   2.574 -0.3272 -0.1876  0.1911
 8941W        W25202  11.439   5.132   1.049 -0.0950 -0.3383 -0.1430
 8942W        W25203  13.360  16.004   9.863 -0.0992  0.0655 -0.0415
 8943W        W25204   3.771  12.747  14.879  0.0532 -0.3217  0.0932
 8944W        W25205   5.519  14.750  11.063 -0.1233 -0.0757  0.3885
 8945W        W25206   5.249  17.592  13.659 -0.1441  0.0091 -0.0192
 8946W        W25207  10.968  14.849   4.482 -0.3051  0.1958  0.6050
 8947W        W25208  19.151  16.691  14.742 -0.0672 -0.1092 -0.2561
 8948W        W25209   6.150  17.806   1.224 -0.0608  0.0413 -0.0663
 8949W        W25210  18.950   9.868   5.239  0.1109 -0.0361 -0.0797
 8950W        W25211  16.683   5.543   3.843  0.1008  0.0389 -0.0355
 8951W        W25212   2.992   8.479   1.273 -0.0753  0.0072  0.1039
 8952W        W25213   9.028  15.996  10.139 -0.1724 -0.2877 -0.0716
 8953W        W25214  18.897  18.306   5.098  0.0990  0.1151  0.1533
 8954W        W25215  13.393  10.918   1.776  0.0266 -0.1242  0.0226
 8955W        W25216   8.248  13.274   9.984  0.5982  0.0394  0.0735
 8956W        W25217  13.184  15.236  12.102  0.2530 -0.2323 -0.0320
 8957W        W25218  18.624  15.772   0.019  0.3025  0.0608  0.0520
 8958W        W25219  14.276   6.726  13.641 -0.0185 -0.0567  0.1736
 8959W        W25220  16.744   7.432   1.949 -0.0233  0.2108 -0.0655
 8960W        W25221   0.334  15.692  10.958 -0.0652  0.0480 -0.3119
 8961W        W25222  14.784   4.091   3.302 -0.0850  0.0207  0.1010
 8962W        W25223  17.543   5.278   1.593 -0.3534  0.2728 -0.2243
 8963W        W25224   3.909   5.568  14.812  0.1214  0.0467  0.2772
 8964W        W25225  10.145  17.315   3.143 -0.1448 -0.0812  0.0368
 8965W        W25226   3.331   6.188  12.165  0.2854 -0.0567  0.0399
 8966W        W25227  18.086  16.239   3.072 -0.0700 -0.1621  0.0030
 8967W        W25228   2.658   5.231   4.138  0.0018  0.4088 -0.1237
 8968W        W25229   0.493   0.415   4.984  0.2411  0.4660 -0.0234
 8969W        W25230  18.622  13.669   2.598  0.2881  0.1043 -0.0181
 8970W        W25231  11.148  17.704   0.746  0.1978 -0.2253  0.0392
 8971W        W25232  16.615   4.376   1.157 -0.0858 -0.2186  0.1093
 8972W        W25233  10.765   7.680  14.214 -0.0606 -0.0178 -0.3398
 8973W        W25234   2.126   3.099   0.495  0.0305 -0.4244 -0.0606
 8974W        W25235  13.283   0.252  11.872 -0.0399  0.1125 -0.2640
 8975W        W25236  16.751   9.477  14.032 -0.2260  0.2586 -0.0714
 8976W        W25237  18.159   1.050   2.228 -0.4105  0.3041 -0.2025
 8977W        W25238   3.911  19.168  11.249 -0.1407  0.2032  0.1678
 8978W        W25239   2.006  12.409  13.467 -0.1334  0.1840 -0.1610
 8979W        W25240   7.633   9.282   5.490  0.0494  0.1845 -0.4138
 8980W        W25241   2.680  19.329   4.534 -0.2218  0.0659  0.1063
 8981W        W25242   7.376  14.317   1.304 -0.1588 -0.2385 -0.0586
 8982W        W25243   5.488   0.111   5.777 -0.0683 -0.2721  0.0533
 8983W        W25244  14.096   4.862  12.235 -0.1763  0.2290 -0.0553
 8984W        W25245  11.461  15.604   2.132 -0.4276  0.1107 -0.0987
 8985W        W25246   2.056  18.116   0.834 -0.1686 -0.0374  0.2217
 8986W        W25247  10.915   4.205   3.842  0.2525 -0.0687  0.0078
 8987W        W25248  19.190  13.844  10.774 -0.0023 -0.2256 -0.0218
 8988W        W25249   5.645  10.568   2.160  0.1448  0.0286 -0.1988
 8989W        W25250  12.398   3.829  11.945 -0.0513  0.1123 -0.0589
 8990W        W25251   0.339   5.517   0.295  0.1346  0.0874 -0.3748
 8991W        W25252   5.192  11.381   2.969 -0.2239 -0.0564 -0.1301
 8992W        W25253  18.882   0.266   2.003 -0.1616  0.0293 -0.2663
 8993W        W25254  10.875  16.512  10.025 -0.0776  0.1737 -0.1399
 8994W        W25255  14.884   9.130   0.601  0.1162 -0.1925 -0.2269
 8995W        W25256   2.302  13.800   4.158  0.3862  0.0726  0.1837
 8996W        W25257   5.895  17.588  13.796 -0.1220 -0.1165 -0.0028
 8997W        W25258   0.093  12.953   3.426  0.0698 -0.1036  0.2294
 8998W        W25259   0.039   5.496  11.287  0.1989  0.3122  0.0555
 8999W        W25260  18.905   4.494  14.792 -0.0413  0.3865 -0.0698
 9000W        W25261  12.563   5.993   3.486 -0.1390  0.2997 -0.0116
 9001W        W25262   8.589  18.609   1.477  0.0561  0.4479  0.0821
 9002W        W25263  18.008  11.217   1.130 -0.0365  0.1009  0.2808
 9003W        W25264   1.374   0.382   4.977 -0.1139 -0.1202  0.1935
 9004W        W25265   5.361  13.343  11.235  0.0589 -0.2328 -0.1082
 9005W        W25266   6.880   2.071   5.501 -0.0918 -0.4377  0.3013
 9006W        W25267   4.290   3.275   1.370  0.2097 -0.3776  0.0272
 9007W        W25268  15.100   4.144   4.193 -0.1353  0.1308 -0.0212
 9008W        W25269  17.206   2.686   2.698 -0.1772 -0.3852  0.0852
 9009W        W25270   4.716  16.028  12.369 -0.1314 -0.0866 -0.1804
 9010W        W25271  18.236  12.848   0.331  0.1217 -0.3471 -0.2729
 9011W        W25272  14.313  15.394  11.478  0.1996 -0.1693 -0.0312
 9012W        W25273  18.064  11.401  12.186 -0.1793  0.0144 -0.1317
 9013W        W25274   7.717   4.985   0.748  0.2753 -0.2545 -0.1081
 9014W        W25275  16.646   8.652  11.667  0.1772 -0.1249 -0.1559
 9015W        W25276   7.374   5.932   0.278  0.2196  0.3214  0.0934
 9016W        W25277   3.229   2.506  10.644 -0.1129 -0.1595  0.0024
 9017W        W25278   8.626   6.936  12.214 -0.0562 -0.0890  0.0969
 9018W        W25279  14.051   8.940   3.117 -0.3308  0.1767 -0.4128
 9019W        W25280  13.733  12.856   0.905  0.1808  0.0416  0.0959
 9020W        W25281  14.917  11.607   1.501  0.1337  0.1003 -0.1897
 9021W        W25282  18.798   9.756   4.730 -0.1063  0.0423  0.0784
 9022W        W25283  16.768   3.783  12.488  0.0341 -0.1460 -0.3456
 9023W        W25284   4.060  17.421   2.048  0.0690  0.4064  0.2639
 9024W        W25285  12.119   0.334   1.060 -0.2387 -0.0143 -0.1266
 9025W        W25286   0.899  15.237  13.691 -0.2097 -0.1381 -0.0009
 9026W        W25287  15.679   5.373  14.842 -0.1219  0.1479  0.1956
 9027W        W25288   5.290  12.817   4.314  0.2833 -0.1433 -0.0013
 9028W        W25289   1.700  14.853  10.996 -0.1425  0.0574  0.1288
 9029W        W25290  17.117  10.228   2.096 -0.0700  0.1371  0.0762
 9030W        W25291  11.035   6.107   4.737  0.0845  0.0502 -0.0816
 9031W        W25292  10.521  15.548  11.292 -0.1979  0.2663 -0.4097
 9032W        W25293   9.599  11.688  13.003 -0.2175  0.1687  0.1956
 9033W        W25294  14.615  12.968   3.648  0.0068 -0.0095  0.0895
 9034W        W25295  11.996  14.358   4.648 -0.4694 -0.1163  0.0814
 9035W        W25296  14.898   9.893  14.175 -0.2705 -0.2309 -0.3313
 9036W        W25297  12.032  12.904  12.445 -0.2281 -0.0057 -0.3153
 9037W        W25298   1.239  17.236  11.614  0.1055 -0.1418 -0.2209
 9038W        W25299  16.620   2.658  14.376  0.0843 -0.2040 -0.0821
 9039W        W25300   0.310   0.441  12.109  0.1051 -0.4217 -0.2478
 9040W        W25301   6.424   0.222   3.492  0.0518  0.1842 -0.1573
 9041W        W25302  16.357  11.156  12.558  0.0995 -0.1903 -0.0554
 9042W        W25303   4.232  18.371   1.510 -0.1150  0.2359  0.1605
 9043W        W25304   5.281   0.993   2.726 -0.3960  0.0355  0.0406
 9044W        W25305  18.335   0.734  13.327  0.1183  0.3237  0.1681
 9045W        W25306   5.117  16.759  13.698 -0.2795 -0.1178  0.3177
 9046W        W25307  16.966   8.291   3.980  0.0464  0.2453  0.0596
 9047W        W25308  12.060  17.262   9.265 -0.0675 -0.2328  0.2200
 9048W        W25309  10.883   9.380  14.749 -0.0976  0.1018  0.0587
 9049W        W25310  10.228   7.536   3.181 -0.3141  0.0867 -0.0113
 9050W        W25311   8.998   0.920  10.424 -0.1180 -0.0643  0.3410
 9051W        W25312  18.958   1.620  11.533 -0.1026  0.0792  0.1300
 9052W        W25313   2.842   2.631  11.473  0.0752 -0.0135  0.1131
 9053W        W25314  17.597  18.394  14.197  0.2239 -0.1380 -0.2278
 9054W        W25315  10.933   8.476   2.402 -0.0861  0.1258  0.2260
 9055W        W25316  11.487   2.966   3.377 -0.3897  0.3463 -0.0682
 9056W        W25317  10.161   7.619   9.526 -0.0625 -0.1872  0.0005
 9057W        W25318   3.182   4.818   1.960  0.4134  0.1838  0.2925
 9058W        W25319   8.753   2.987   2.281  0.2316  0.1426  0.2499
 9059W        W25320   1.835   1.244   3.817  0.4293 -0.2349  0.0461
 9060W        W25321  13.833  11.946  12.730 -0.1154  0.1100  0.0841
 9061W        W25322   6.143  12.754   2.484 -0.1728 -0.1472 -0.1370
 9062W        W25323   3.675   9.062  12.250 -0.2479  0.2464  0.2811
 9063W        W25324   9.466  14.519   0.088 -0.1745 -0.1110  0.1182
 9064W        W25325  17.282   9.447   5.549 -0.0062  0.3874  0.1802
 9065W        W25326  12.340  14.951   0.092 -0.3624 -0.2620 -0.3132
 9066W        W25327   9.630  14.079   2.662  0.3866  0.4327 -0.1834
 9067W        W25328   0.536   0.928  13.323 -0.2009 -0.1478  0.1690
 9068W        W25329   5.908  13.278  11.331 -0.1796 -0.2734 -0.2966
 9069W        W25330   3.649  10.204  13.394  0.1532  0.2190 -0.2621
 9070W        W25331  17.252   2.494  14.290  0.0598  0.0231  0.0331
 9071W        W25332   6.925   2.034   0.022 -0.0065  0.1992 -0.0110
 9072W        W25333   4.628  17.904   4.181 -0.2078  0.2198 -0.0219
 9073W        W25334   9.692   6.947  12.418 -0.1857  0.3328 -0.2270
 9074W        W25335   2.328  19.274  11.080 -0.1357  0.4005 -0.3869
 9075W        W25336  10.615  10.281   2.802  0.0252 -0.0521  0.0845
 9076W        W25337   4.215  12.977   0.059 -0.1426  0.1692  0.0892
 9077W        W25338  17.660  16.670  14.114 -0.0839  0.0074  0.1483
 9078W        W25339  15.885   9.826  13.930  0.0443  0.1498  0.3965
 9079W        W25340   0.363  16.465  13.717 -0.1391  0.2798  0.1774
 9080W        W25341   8.637   1.178   0.138 -0.1280  0.0397  0.3243
 9081W        W25342   5.904  14.633  10.558 -0.0310  0.0366  0.1465
 9082W        W25343   4.173   5.707  12.861  0.0770  0.0945  0.0804
 9083W        W25344  16.178  17.288   1.459  0.0919 -0.2025  0.1540
 9084W        W25345  11.849  12.195   4.298 -0.3804  0.3442 -0.2012
 9085W        W25346   3.355   8.416   0.922 -0.0909  0.2299  0.1777
 9086W        W25347  15.240   4.654  12.453  0.0519  0.0506 -0.0961
 9087W        W25348   6.337  14.325  12.613  0.2773 -0.0022 -0.0297
 9088W        W25349   4.900  10.668   1.182  0.1004  0.5969 -0.3673
 9089W        W25350   2.749   6.688  11.874 -0.2485 -0.0948  0.0855
 9090W        W25351   2.201   0.485   4.372  0.1053 -0.1243  0.0033
 9091W        W25352  15.089  10.506   1.047  0.3473 -0.1812  0.3397
 9092W        W25353  15.378   5.904   0.573 -0.1385  0.0795  0.0303
 9093W        W25354  10.733  13.304   2.597 -0.0117 -0.3066 -0.4225
 9094W        W25355   6.436  16.244   3.800 -0.0848  0.4767 -0.0110
 9095W        W25356   2.015   4.232   1.633  0.0424  0.0309  0.0250
 9096W        W25357  17.653  18.827  12.004 -0.0783  0.1534 -0.1910
 9097W        W25358   5.080   9.680  14.570 -0.3091  0.0410 -0.1007
 9098W        W25359  11.145  17.590   5.376 -0.0125 -0.2845 -0.1701
 9099W        W25360  13.772  19.119  11.992  0.4807 -0.0953 -0.0678
 9100W        W25361  18.054   7.602   1.304 -0.1439  0.1633  0.0651
 9101W        W25362  14.397  17.104   4.582  0.0755 -0.2077  0.0229
 9102W        W25363  16.981  11.573   2.329  0.1356 -0.5482 -0.0310
 9103W        W25364  13.997  14.825   1.093 -0.0060 -0.0863 -0.1060
 9104W        W25365   0.099   4.997   5.257  0.2719 -0.0251 -0.0798
 9105W        W25366   3.666   7.113   3.548 -0.1230  0.0124 -0.2122
 9106W        W25367  11.538   8.656  12.735  0.2616 -0.1815  0.0085
 9107W        W25368   7.960  16.070   2.000  0.2144 -0.0100 -0.1064
 9108W        W25369  18.291   2.079  11.947 -0.3293 -0.3016  0.2486
 9109W        W25370  13.372  13.091   1.162  0.4419  0.0646  0.0256
 9110W        W25371   2.115   1.144  13.435 -0.1351 -0.0047  0.1453
 9111W        W25372   1.916  11.084   1.592 -0.3492 -0.1426  0.0400
 9112W        W25373   2.468   8.976   0.666 -0.3039 -0.0411  0.0065
 9113W        W25374   8.810  12.315  12.581  0.3151 -0.1058 -0.0004
 9114W        W25375   4.297  16.452  11.060  0.0080 -0.1374 -0.0419
 9115W        W25376   4.140   2.750  10.644  0.1552  0.2242  0.1352
 9116W        W25377  13.224  13.428   3.706  0.1687 -0.3524  0.0174
 9117W        W25378   2.367  12.869  10.785 -0.0710 -0.0120  0.1298
 9118W        W25379   0.290  18.881   0.112  0.3839 -0.1568  0.2270
 9119W        W25380  17.758  15.269  13.546 -0.0046  0.0456  0.2320
 9120W        W25381  14.714  14.850  10.621  0.0809 -0.1145 -0.3059
 9121W        W25382   9.287   3.007   3.045 -0.0540 -0.1710  0.2392
 9122W        W25383   2.775   5.765   4.047  0.1922  0.2131 -0.1946
 9123W        W25384   0.138   9.289   5.428  0.2505 -0.0979 -0.2384
 9124W        W25385   6.377   6.967   1.641  0.0809  0.0652 -0.3370
 9125W        W25386  13.069   0.765   1.076 -0.1093  0.1753  0.1427
 9126W        W25387   2.023  16.449   2.505 -0.0821 -0.2263  0.0390
 9127W        W25388   1.055   7.162  13.383 -0.1319  0.3117 -0.2596
 9128W        W25389   4.802   9.247   3.804 -0.3886  0.0225 -0.5461
 9129W        W25390   0.015   3.170   5.282 -0.1332  0.2566  0.2806
 9130W        W25391  15.380   3.162  13.787 -0.0563  0.4103  0.0443
 9131W        W25392   9.780  16.871   0.737  0.1980  0.2920  0.2700
 9132W        W25393  10.760  14.193  11.389  0.0334 -0.0081  0.3096
 9133W        W25394   3.240   4.469   4.451  0.0652  0.1488 -0.0239
 9134W        W25395   5.653   0.967   3.642  0.1198 -0.1149 -0.0659
 9135W        W25396  19.111  13.002   5.413  0.2023  0.1071 -0.2244
 9136W        W25397  18.161  10.372  10.419  0.1165  0.0716  0.1924
 9137W        W25398   7.954  14.364   9.946  0.2189 -0.0885 -0.0499
 9138W        W25399   4.987  11.170   1.598 -0.0423 -0.0379 -0.0824
 9139W        W25400   9.343   1.304  11.130  0.1894 -0.0003 -0.3584
 9140W        W25401  17.248  13.106   0.626 -0.1298 -0.2995 -0.0502
 9141W        W25402  14.880   0.591  13.199 -0.2874 -0.0835 -0.1672
 9142W        W25403  14.442  16.589   3.658 -0.1906  0.0226 -0.0980
 9143W        W25404   2.437   9.723   0.062 -0.0144 -0.0958  0.1196
 9144W        W25405   5.919   4.550  10.906  0.4107 -0.4610  0.2419
 9145W        W25406  12.718   0.529   0.215 -0.1750 -0.0894 -0.2503
 9146W        W25407  16.903  10.112  13.034 -0.2032  0.2727 -0.1675
 9147W        W25408  14.199   2.919  11.803  0.3478  0.1555 -0.1006
 9148W        W25409   2.079   1.744   1.724  0.4025  0.3195 -0.4504
 9149W        W25410   6.591   3.488   4.538  0.0516  0.0673 -0.0340
 9150W        W25411   8.170  11.608  10.847  0.2986 -0.0906 -0.1955
 9151W        W25412   8.618   3.951  12.757 -0.2268 -0.1831  0.0120
 9152W        W25413  18.754  17.008   1.450 -0.1818  0.0058 -0.1908
 9153W        W25414   5.687  18.824   1.985 -0.2022 -0.1989 -0.0743
 9154W        W25415   6.115  13.381  13.008  0.2488 -0.4928 -0.2126
 9155W        W25416  11.457   7.966   4.324  0.0074 -0.2279 -0.2317
 9156W        W25417   6.895  11.178  10.864 -0.2065  0.2029  0.1827
 9157W        W25418  12.329   1.072  10.317 -0.0186 -0.1020 -0.2394
 9158W        W25419  11.958   8.810  11.395  0.1139 -0.0695  0.0518
 9159W        W25420   6.348   0.059  13.829  0.2729 -0.0376  0.0429
 9160W        W25421  15.109  11.236   0.269  0.0078 -0.2763  0.2270
 9161W        W25422  12.770   8.236  14.276 -0.0105  0.2325  0.0919
 9162W        W25423   9.052   1.337  11.632  0.2229 -0.0961 -0.0132
 9163W        W25424  13.725   2.103   4.410  0.0489  0.1651 -0.1144
 9164W        W25425  16.182   7.912   3.757 -0.1455  0.2350  0.1631
 9165W        W25426  13.199  12.638   3.036 -0.0197  0.0300  0.0362
 9166W        W25427  16.087  11.279  12.972  0.1837 -0.1952 -0.3416
 9167W        W25428  12.158   0.430  12.673  0.0817  0.1918 -0.3388
 9168W        W25429  15.935  19.181   4.746  0.0372 -0.2142 -0.1260
 9169W        W25430   8.135  13.442  12.099 -0.0656 -0.1669  0.0895
 9170W        W25431  12.399  17.209  13.128  0.2151 -0.1975 -0.0147
 9171W        W25432   7.704   6.460  14.678  0.2194 -0.0566 -0.1229
 9172W        W25433   7.498   9.785   1.405 -0.1699 -0.1878 -0.1870
 9173W        W25434   4.626   4.824   4.852  0.2182 -0.0006  0.0721
 9174W        W25435   0.819   8.392   4.684 -0.0513  0.0642 -0.0607
 9175W        W25436   1.826   0.642  11.060  0.3577  0.0371 -0.0479
 9176W        W25437  14.298   8.985   0.140 -0.1458  0.0074 -0.0631
 9177W        W25438  10.554   6.290  11.121  0.0794 -0.0584  0.0333
 9178W        W25439   5.573  16.105  13.529 -0.1346 -0.0556  0.2457
 9179W        W25440   7.290  12.775  11.108  0.2126  0.0994 -0.1086
 9180W        W25441  13.714   2.318  13.755 -0.0713  0.1777  0.0380
 9181W        W25442  15.151   5.288  11.356 -0.0545  0.1636  0.0260
 9182W        W25443   6.638   1.006   2.127  0.1722 -0.1871 -0.1422
 9183W        W25444   6.112  10.611  10.504  0.1120 -0.1975 -0.1222
 9184W        W25445  11.818   7.020   2.035 -0.2389 -0.1397  0.0771
 9185W        W25446  17.093   8.484  14.831 -0.2989 -0.1848 -0.3318
 9186W        W25447   8.620  13.236  14.240  0.1645 -0.2005 -0.2484
 9187W        W25448   3.061  13.873   2.519 -0.3238 -0.1208  0.3382
 9188W        W25449   5.167  19.378  12.402 -0.0162  0.4083  0.0177
 9189W        W25450   5.121  17.990   4.423 -0.3349 -0.0731 -0.2224
 9190W        W25451   7.566   5.268  12.746 -0.0377  0.0311 -0.2429
 9191W        W25452  13.274   1.512  12.328 -0.0484 -0.0704  0.0615
 9192W        W25453  15.565  13.140  14.852  0.3410 -0.0971 -0.1057
 9193W        W25454   0.915  14.578  10.649  0.3527 -0.0030  0.0803
 9194W        W25455  13.576  14.195  12.855  0.1737  0.0498 -0.2224
 9195W        W25456   3.286  16.326  13.884 -0.2113  0.1286 -0.1941
 9196W        W25457   0.040  13.488   1.064  0.0826  0.0065 -0.0804
 9197W        W25458   2.562   7.948  14.838  0.0098  0.1321 -0.1894
 9198W        W25459   3.889  15.503   3.371 -0.0121  0.0111 -0.0264
 9199W        W25460  18.970  11.334   0.306 -0.1472 -0.0503 -0.0339
 9200W        W25461   9.155  12.185   2.888  0.4717  0.0195 -0.1140
 9201W        W25462  10.654   1.643   9.879 -0.0317  0.0407  0.0892
 9202W        W25463  11.986  16.608  13.784 -0.1386 -0.3859 -0.5363
 9203W        W25464   3.137  15.297  14.604 -0.2071 -0.2386  0.0098
 9204W        W25465  14.221   4.970   3.003 -0.4545 -0.0855  0.3706
 9205W        W25466   4.604   3.859  13.193 -0.1841  0.1604 -0.1547
 9206W        W25467  13.976   3.904  12.814  0.3166 -0.1540 -0.1812
 9207W        W25468  15.792  10.500   9.702  0.0405  0.0599 -0.4411
 9208W        W25469   9.802   0.891  14.641 -0.1434 -0.0825  0.1209
 9209W        W25470  10.870  11.611  11.914 -0.0689  0.1567 -0.0410
 9210W        W25471  18.367   3.366   4.658 -0.1881 -0.1066 -0.0056
 9211W        W25472  15.785   9.159   2.978  0.3547 -0.2426  0.1491
 9212W        W25473  16.836  12.605  12.054 -0.0989 -0.0307 -0.0143
 9213W        W25474   3.792   3.094   1.439  0.0734 -0.1599  0.1352
 9214W        W25475   6.242   4.280  11.357  0.0032 -0.1724  0.2208
 9215W        W25476   7.226  16.974  14.335 -0.0489 -0.0176 -0.0930
 9216W        W25477  15.301   7.614   1.439 -0.1017 -0.0169  0.0547
 9217W        W25478   6.187  17.569   4.110 -0.0702  0.2806  0.2059
 9218W        W25479   1.906   6.414   0.105  0.0432 -0.1691 -0.1772
 9219W        W25480   0.133  11.333  10.895 -0.1628  0.1390 -0.0495
 9220W        W25481   2.653   5.554   5.361 -0.1971  0.0438  0.4247
 9221W        W25482  19.400  13.630  13.985  0.0184  0.1488 -0.1303
 9222W        W25483   0.802   5.428  14.178 -0.1380 -0.1340 -0.2760
 9223W        W25484   3.993   6.461   0.825  0.3389  0.1542  0.1890
 9224W        W25485  15.876   5.694  10.701  0.3521 -0.1076 -0.0067
 9225W        W25486   1.060  15.844  14.424  0.4189  0.0743 -0.3088
 9226W        W25487   8.614  15.251  12.000 -0.1497 -0.4295  0.0982
 9227W        W25488   3.081   5.505   0.197  0.1043 -0.1010  0.0574
 9228W        W25489   4.412   7.212   4.053 -0.2434  0.0396 -0.2475
 9229W        W25490  19.214   2.876   3.283 -0.1973 -0.1801 -0.1087
 9230W        W25491   8.703  19.224   3.324  0.4887  0.2574  0.0654
 9231W        W25492  17.120   2.957   0.517 -0.0722 -0.1055 -0.2134
 9232W        W25493  17.604   1.315  10.912  0.0375 -0.2404  0.0350
 9233W        W25494   9.692   2.660  12.478  0.1799 -0.1228  0.1772
 9234W        W25495  18.062  15.511   5.523  0.1446  0.0008  0.2368
 9235W        W25496  13.157  14.304   0.990  0.0363  0.0840 -0.3260
 9236W        W25497  16.779  19.319   5.544  0.3671 -0.0490  0.2095
 9237W        W25498   7.640  11.197   5.368 -0.0837 -0.2322 -0.1960
 9238W        W25499  18.332  14.337  11.176 -0.4626 -0.0404  0.0759
 9239W        W25500  18.195  10.706  13.369  0.0173  0.0819 -0.0281
 9240W        W25501  14.228   8.698  10.430  0.0675 -0.1366  0.2278
 9241W        W25502  13.412   3.473  11.847  0.1630 -0.0183 -0.3372
 9242W        W25503   4.578   2.935  10.838  0.2119 -0.0076 -0.1900
 9243W        W25504   9.830   5.212   0.284 -0.0120  0.1208 -0.3904
 9244W        W25505  10.835   8.918   3.236 -0.0116 -0.1663 -0.0137
 9245W        W25506  12.619   9.356   4.241 -0.1007  0.1873 -0.1404
 9246W        W25507  18.087  17.202   5.234  0.1896  0.1110  0.1319
 9247W        W25508   1.133   7.956   0.546  0.1137 -0.1274  0.0363
 9248W        W25509   9.378  12.723   2.260  0.2038 -0.1186 -0.5275
 9249W        W25510  12.385   5.198   1.471 -0.0048 -0.1371 -0.4682
 9250W        W25511  15.122  12.645   3.546 -0.0853 -0.0530  0.2050
 9251W        W25512   9.146  17.749  11.181  0.0396 -0.0668  0.0502
 9252W        W25513   2.034   4.514   2.890 -0.0701 -0.0958  0.2416
 9253W        W25514  11.036   7.177   2.743  0.0012 -0.0532 -0.1908
 9254W        W25515   5.182  10.886   2.321  0.2059 -0.4485  0.1984
 9255W        W25516   8.438  10.835  10.380 -0.0166 -0.0713 -0.0538
 9256W        W25517  12.924  16.573  12.245  0.3570  0.0451 -0.0409
 9257W        W25518  18.833   6.198   3.642 -0.0845 -0.0360 -0.0404
 9258W        W25519   5.709  10.400   3.826 -0.1371  0.1594  0.0192
 9259W        W25520   7.992   9.624  11.042 -0.0276  0.1816  0.0628
 9260W        W25521  10.790  16.238   3.392  0.0585  0.0900 -0.1131
 9261W        W25522  18.844   6.287  10.639 -0.0540  0.0539  0.0266
 9262W        W25523  15.518  12.917   4.319 -0.2122  0.0471 -0.1201
 9263W        W25524  19.424  10.038  11.584 -0.1633 -0.1763 -0.0107
 9264W        W25525  15.839   1.154   3.244 -0.1825 -0.0218  0.1845
 9265W        W25526   4.987  13.238   3.428 -0.2164 -0.0776 -0.5448
 9266W        W25527   7.498  18.115   0.185  0.2104  0.2708 -0.1137
 9267W        W25528   5.796   1.898  13.731  0.4573  0.0676  0.0588
 9268W        W25529  13.107   3.853  13.896 -0.1915 -0.0264 -0.0669
 9269W        W25530   3.411   0.081  12.994 -0.1261 -0.1809  0.1558
 9270W        W25531  15.731  10.430  10.222 -0.0063 -0.0914 -0.0576
 9271W        W25532  15.722  15.461   0.442 -0.2166  0.1563 -0.2888
 9272W        W25533   7.492   7.471   0.418  0.2733  0.2061 -0.1437
 9273W        W25534  17.976  19.215   4.971  0.4028  0.1930  0.0745
 9274W        W25535  17.041   3.831   0.888 -0.1706  0.0137  0.0344
 9275W        W25536  14.107  17.669  10.810 -0.0657 -0.2129 -0.0275
 9276W        W25537   1.767   4.925  12.911  0.0576 -0.0042 -0.1943
 9277W        W25538   2.171   5.326   5.289 -0.1086  0.1642  0.1038
 9278W        W25539   0.368   4.686  11.500 -0.1717 -0.2226 -0.0434
 9279W        W25540  16.379   5.620  13.739 -0.0144 -0.0073  0.1479
 9280W        W25541  18.074   5.835   2.115 -0.0286  0.0992  0.1395
 9281W        W25542   1.608   6.036   0.027  0.1150 -0.0357  0.2850
 9282W        W25543  13.809  17.810   2.418 -0.2385 -0.0483  0.1983
 9283W        W25544  17.581   4.598   4.664  0.2802  0.1413  0.0870
 9284W        W25545   1.280   9.122  13.744  0.1764  0.0668  0.0699
 9285W        W25546  18.592  18.761   3.384 -0.2184 -0.4148 -0.1200
 9286W        W25547   4.379   1.330   1.679  0.4090 -0.5878 -0.0766
 9287W        W25548   1.657  13.525   2.190  0.0626 -0.3979 -0.0211
 9288W        W25549  15.094  16.024   2.354 -0.1377 -0.0549 -0.4080
 9289W        W25550   9.681  12.192  11.232 -0.1119  0.2474 -0.6182
 9290W        W25551  13.647  15.045   0.638 -0.3191 -0.3695 -0.1696
 9291W        W25552   2.975   0.979  13.452 -0.0596  0.3721 -0.0061
 9292W        W25553   5.998   8.063  10.513 -0.2593 -0.1168  0.2509
 9293W        W25554  19.222   1.229  11.585  0.1021  0.0214 -0.1449
 9294W        W25555  19.350  18.158   4.979 -0.0148  0.3733 -0.0968
 9295W        W25556  18.032  11.736  13.423 -0.0107 -0.2141 -0.0627
 9296W        W25557   3.277  15.693  10.851 -0.0387 -0.0149  0.0886
 9297W        W25558  14.108   9.002  12.742 -0.4137 -0.0999  0.1861
 9298W        W25559  10.980  16.365   2.622  0.0950 -0.0821 -0.0801
 9299W        W25560  17.663   0.052   1.806  0.5361 -0.0557 -0.0900
 9300W        W25561   1.740   6.664   4.966  0.1560  0.0153 -0.4438
 9301W        W25562  12.007  10.167   3.569  0.0536  0.2372 -0.1776
 9302W        W25563  11.395   1.347   3.341  0.0137 -0.0705 -0.0839
 9303W        W25564   3.955  16.248  11.678 -0.2888  0.0655 -0.1981
 9304W        W25565  18.619  12.451  10.762 -0.0170  0.0451  0.3456
 9305W        W25566   0.032  11.683  14.481  0.2189  0.1686  0.3788
 9306W        W25567   4.374   8.168   4.145 -0.2014  0.3751 -0.1729
 9307W        W25568  18.162   3.254  14.820  0.0021 -0.4535  0.3138
 9308W        W25569   1.160  16.172  12.225  0.0500 -0.0671  0.1217
 9309W        W25570  13.026  14.736  12.743 -0.3250 -0.0753  0.3858
 9310W        W25571   8.303   3.005   4.977 -0.1594 -0.0321 -0.1680
 9311W        W25572   4.403   2.354  12.514  0.2715  0.1225  0.0979
 9312W        W25573   8.836  11.137  10.305 -0.0662  0.1531 -0.2078
 9313W        W25574  10.963   1.229   4.230 -0.1929  0.0529  0.0370
 9314W        W25575   2.844   4.574   5.728 -0.0695 -0.0098 -0.1428
 9315W        W25576   1.117  14.077   0.529  0.1106 -0.2097  0.2058
 9316W        W25577   2.936  12.078   1.690 -0.1919 -0.4779 -0.1377
 9317W        W25578  14.360   3.161  10.901 -0.0820  0.2719  0.0093
 9318W        W25579   9.497   8.430  12.631  0.1109 -0.0842 -0.2352
 9319W        W25580  12.597   3.945   1.214  0.0664  0.2785  0.1145
 9320W        W25581   0.771  11.933   1.037 -0.1038  0.3707 -0.3273
 9321W        W25582  19.050  14.926  14.839 -0.2626  0.0543  0.1233
 9322W        W25583   7.482  13.094  10.179 -0.0225 -0.1226  0.1521
 9323W        W25584  19.225   7.426   5.231  0.3644  0.1765 -0.1423
 9324W        W25585  10.960  12.509   4.660 -0.2002  0.1534  0.1063
 9325W        W25586   2.431  14.342  10.499  0.1208 -0.2775 -0.3704
 9326W        W25587   0.002   1.002  11.230  0.1173 -0.1111  0.0647
 9327W        W25588  19.102  10.941   1.418 -0.1796  0.0356 -0.0887
 9328W        W25589  14.603   2.703   0.151 -0.0341 -0.0284  0.0111
 9329W        W25590  12.159  18.166  11.681 -0.0514 -0.0049 -0.1502
 9330W        W25591  18.047  13.680   2.458  0.0949 -0.0834  0.0691
 9331W        W25592   7.265   5.701  13.411  0.1118 -0.0154 -0.2637
 9332W        W25593   4.032  17.989   3.588  0.0086  0.1525  0.0240
 9333W        W25594   7.061  16.383   0.374 -0.1991  0.1276  0.2057
 9334W        W25595  17.175   5.650   2.121  0.0562  0.1508 -0.0179
 9335W        W25596  14.286   9.326   2.309  0.2202  0.1087 -0.1140
 9336W        W25597  14.508   9.729  12.737  0.0188  0.0178 -0.1571
 9337W        W25598   5.882   5.066   1.197 -0.0324  0.2551 -0.0563
 9338W        W25599   4.107   2.333   2.908  0.0342 -0.0660  0.4106
 9339W        W25600   5.355  10.399  14.308  0.3587  0.0857  0.0320
 9340W        W25601  10.592   7.635   1.361 -0.1754  0.1545 -0.1275
 9341W        W25602   1.633  14.365  14.072  0.0768  0.0387  0.0622
 9342W        W25603  14.114   8.354   4.310  0.1073  0.1775  0.0791
 9343W        W25604  17.095  17.990   2.961 -0.0723  0.2219 -0.1910
 9344W        W25605  19.225  12.521  10.567  0.1763  0.1719 -0.1591
 9345W        W25606   1.888   5.905  13.674 -0.1353 -0.0992 -0.0243
 9346W        W25607  14.408   0.567   3.245  0.0130  0.0063  0.2816
 9347W        W25608   9.646   6.906   3.343  0.0243  0.0204  0.1495
 9348W        W25609  16.981  10.770   2.163 -0.1227 -0.0449  0.4905
 9349W        W25610   3.734  11.422   2.246 -0.0461  0.0765  0.1803
 9350W        W25611   8.308   1.622  14.874  0.0895 -0.0662  0.0731
 9351W        W25612  19.371   7.775  13.469 -0.0189  0.0533  0.0641
 9352W        W25613  11.785   1.571  10.363 -0.3077  0.2926  0.0620
 9353W        W25614  18.519  17.448  11.972 -0.3922  0.1106  0.0090
 9354W        W25615  13.681  17.433  14.729 -0.1835  0.3542 -0.3076
 9355W        W25616   1.923  14.016   2.401  0.0518 -0.1694 -0.1776
 9356W        W25617  11.006  15.768  14.540  0.2349  0.0549  0.0824
 9357W        W25618  18.118   7.127   2.588  0.1726  0.1503 -0.0933
 9358W        W25619   9.386  11.693  12.499 -0.0923 -0.1834 -0.0067
 9359W        W25620   7.187   6.933   5.175 -0.1200  0.3123  0.1014
 9360W        W25621  13.561   4.157   3.586  0.0817 -0.0007 -0.0030
 9361W        W25622  14.898  14.442  12.267  0.0904 -0.2341 -0.1002
 9362W        W25623  18.587  10.937  12.001 -0.0699  0.1593  0.0378
 9363W        W25624  16.548  18.077   1.435 -0.3602  0.0708  0.1455
 9364W        W25625  13.204   0.579   5.367  0.0534  0.0485  0.1239
 9365W        W25626   2.092  13.085   5.667  0.0365  0.0966  0.0175
 9366W        W25627  12.296   9.348   1.734  0.1714 -0.0872  0.1359
 9367W        W25628  10.527   6.356  12.274  0.1956  0.1077 -0.0039
 9368W        W25629   4.929   2.926   3.651 -0.1322 -0.1129  0.2329
 9369W        W25630  13.194   1.679   0.026  0.3612 -0.2054 -0.0405
 9370W        W25631  12.591  12.220  12.946  0.2339  0.0686 -0.0090
 9371W        W25632   3.327  11.716   2.818  0.2070  0.0715 -0.1563
 9372W        W25633   3.561   8.717  13.922 -0.0725 -0.1472  0.0915
 9373W        W25634  12.214  11.110   3.322 -0.1226 -0.0081  0.1477
 9374W        W25635  17.027   5.370  14.410 -0.1534  0.0794 -0.0481
 9375W        W25636   0.703  15.244   3.211  0.2009  0.0393 -0.2569
 9376W        W25637   9.363  16.548  13.386  0.2174  0.0657 -0.0733
 9377W        W25638  18.702  17.778   0.217  0.0524 -0.1430  0.0497
 9378W        W25639  10.609   4.612   3.923 -0.2041  0.0582 -0.0429
 9379W        W25640  11.355   0.023   2.097 -0.2285 -0.1249 -0.1114
 9380W        W25641  17.875   6.218   1.298  0.1109  0.1190 -0.2670
 9381W        W25642  16.367   6.074  12.314  0.0247 -0.0776 -0.0293
 9382W        W25643   9.882   9.387  13.115 -0.1329  0.0244  0.0857
 9383W        W25644   5.731   2.832   1.007  0.1285  0.1350  0.1666
 9384W        W25645  11.321  11.071   4.614 -0.4012 -0.1119 -0.1881
 9385W        W25646   0.616  14.771   1.630 -0.3528  0.0592 -0.2914
 9386W        W25647   8.679  10.911   3.088 -0.1662 -0.1227  0.1900
 9387W        W25648  11.862   8.808  13.202  0.1315 -0.0731  0.1962
 9388W        W25649   4.337  11.290  11.539  0.0724  0.3091  0.3798
 9389W        W25650  12.747   1.838   3.413 -0.0900  0.3552 -0.1968
 9390W        W25651   3.645  18.980  13.479 -0.0419 -0.2090 -0.1285
 9391W        W25652   9.714  11.030   0.318  0.1226 -0.2542 -0.0243
 9392W        W25653  15.053  16.167   4.790 -0.3522  0.1948 -0.2508
 9393W        W25654   6.633  12.281   5.128 -0.4246 -0.1658  0.2827
 9394W        W25655  10.821  16.709   2.243  0.3042  0.4162  0.0249
 9395W        W25656   1.225  16.180   0.425  0.0836 -0.1054 -0.1867
 9396W        W25657   8.299   6.255   4.152  0.3157 -0.2360 -0.0287
 9397W        W25658  10.787  17.408   9.977 -0.0099 -0.2318  0.1952
 9398W        W25659   5.722  16.857   0.521  0.4223 -0.1494 -0.1269
 9399W        W25660  18.502  10.104   2.985 -0.2827 -0.2468 -0.0168
 9400W        W25661  19.117   4.945   3.922 -0.0382 -0.0065  0.2972
 9401W        W25662  10.112   4.735  13.896 -0.2783 -0.1516 -0.0208
 9402W        W25663  18.083  10.135  11.651 -0.0251  0.2204 -0.2705
 9403W        W25664  10.122  14.545   2.826 -0.1748 -0.0756 -0.1527
 9404W        W25665  17.416  18.701   3.810  0.3273  0.0145 -0.0020
 9405W        W25666   5.770   4.548  13.911  0.1057 -0.0054  0.2204
 9406W        W25667  13.145   8.025   0.369 -0.1830  0.2061  0.1212
 9407W        W25668  16.960  11.854   4.168  0.1292 -0.1930  0.1770
 9408W        W25669  17.196  14.696  13.083  0.0953 -0.2988 -0.3820
 9409W        W25670  12.317  14.126   4.331 -0.2225  0.0956 -0.2084
 9410W        W25671   5.777   8.288  10.129 -0.0645  0.0834  0.2390
 9411W        W25672  16.514   1.504   5.341  0.0248  0.1896 -0.1876
 9412W        W25673   7.962   1.190  11.734 -0.0069 -0.2282 -0.1930
 9413W        W25674   7.629   9.019   2.360 -0.1390 -0.1224  0.1001
 9414W        W25675   5.523  15.847  11.131  0.0626 -0.0814  0.0146
 9415W        W25676  15.691  15.458  14.287 -0.2347  0.2598  0.0380
 9416W        W25677  12.720  13.714   1.059  0.0584  0.2100 -0.1532
 9417W        W25678  10.736   1.108   1.787  0.3516 -0.5261 -0.0805
 9418W        W25679   9.268   6.086   5.106 -0.1027  0.3199  0.2329
 9419W        W25680   7.920   1.008  13.992 -0.1753  0.2240 -0.3724
 9420W        W25681   6.365  12.777  11.646 -0.3130  0.0312 -0.1512
 9421W        W25682  13.527   0.386   3.748 -0.2432 -0.0530 -0.1337
 9422W        W25683   5.895  17.923   5.420 -0.0818  0.2113  0.1389
 9423W        W25684  10.455   0.636  13.258  0.0891  0.2100 -0.1123
 9424W        W25685  15.799   0.396   2.770  0.2518 -0.2580  0.1712
 9425W        W25686  15.209   6.355   0.343 -0.0222 -0.2097 -0.0381
 9426W        W25687   4.058   2.080   1.562  0.0563  0.0547  0.1047
 9427W        W25688   8.155   8.032   3.201  0.1346  0.0837  0.2767
 9428W        W25689  15.708   2.199   1.697  0.0948 -0.1394 -0.1598
 9429W        W25690   2.652  10.359  10.771 -0.0641 -0.1632  0.1638
 9430W        W25691  15.015  11.180  11.051 -0.2472 -0.0525  0.0084
 9431W        W25692  18.973  13.770  12.223  0.2476 -0.2789  0.3119
 9432W        W25693  17.600   8.847   4.985 -0.1679 -0.1733  0.0524
 9433W        W25694  18.461   9.995  11.254 -0.0239 -0.4229  0.0253
 9434W        W25695   6.117  18.570  13.671 -0.0054  0.0953 -0.3797
 9435W        W25696   8.712   7.526  13.941  0.2501 -0.1663 -0.2583
 9436W        W25697  17.892  15.884  13.280  0.0094 -0.1136 -0.1152
 9437W        W25698  14.785   3.742  12.923  0.1068 -0.0562 -0.0317
 9438W        W25699   6.599   3.934   1.005 -0.3728 -0.1248 -0.2517
 9439W        W25700  11.573  12.838  11.596  0.1380 -0.1484 -0.1960
 9440W        W25701   7.692  19.227   0.372 -0.1658  0.1031 -0.0488
 9441W        W25702   6.753  17.873   2.811  0.0437 -0.1795  0.2390
 9442W        W25703  10.675   7.607   2.846  0.0395 -0.2328  0.1690
 9443W        W25704  17.963  14.160  14.469 -0.0166 -0.0091  0.1860
 9444W        W25705  16.480   9.643   1.210  0.0521 -0.0763  0.1353
 9445W        W25706  11.737   4.392   4.116  0.0792 -0.2188 -0.1458
 9446W        W25707  19.392   0.257   0.353 -0.2796  0.1333 -0.1109
 9447W        W25708  15.452   9.404   1.122  0.1878 -0.3449 -0.1235
 9448W        W25709  16.289   1.736   2.865  0.3702  0.1317 -0.1789
 9449W        W25710  11.739  14.264  13.614 -0.2045 -0.0272 -0.3339
 9450W        W25711   9.457   1.320  11.974 -0.0539 -0.1434 -0.2739
 9451W        W25712   7.984   7.221   1.075  0.0594 -0.0697  0.2870
 9452W        W25713  16.344   8.409   1.336  0.0428 -0.0701  0.0946
 9453W        W25714   6.132  16.011  12.365 -0.3993 -0.1565  0.1824
 9454W        W25715   1.621   2.985   0.395 -0.2753 -0.1755  0.1032
 9455W        W25716   0.778  18.837   0.517 -0.0380  0.0180  0.2923
 9456W        W25717   3.144   8.491  12.654  0.0487 -0.0252 -0.2454
 9457W        W25718  10.345  18.295   0.946  0.2262  0.0498  0.0759
 9458W        W25719   2.496   0.205   2.691  0.1283 -0.1086 -0.0023
 9459W        W25720  14.907   3.454  13.900 -0.0661 -0.2156  0.0708
 9460W        W25721  13.240   8.253  14.013  0.0592  0.0548 -0.1160
 9461W        W25722  12.349   7.712  11.437 -0.0817  0.2890  0.3593
 9462W        W25723  11.307  12.232  13.543  0.0300 -0.0367 -0.1400
 9463W        W25724   0.161   5.602  11.853 -0.2610  0.1510 -0.3066
 9464W        W25725  15.220   8.308   1.712 -0.1855 -0.0968  0.1907
 9465W        W25726  13.830   1.067   1.659 -0.1662  0.3441 -0.1635
 9466W        W25727   4.177   7.284  14.559  0.1247  0.0090 -0.0096
 9467W        W25728   9.132  14.941  14.779  0.0088 -0.1199  0.2263
 9468W        W25729   7.922  17.326  11.432  0.2603 -0.1016 -0.3143
 9469W        W25730   0.772  16.029   2.878  0.0648  0.3297 -0.0650
 9470W        W25731   5.510   8.347  11.335  0.2494  0.0536 -0.0549
 9471W        W25732  14.310   2.769   1.483 -0.0890 -0.2428  0.4720
 9472W        W25733   4.021  15.919  13.080  0.1922 -0.1835 -0.1058
 9473W        W25734  12.042  19.370  13.452  0.1665  0.2154 -0.3209
 9474W        W25735   1.391  16.647   4.761 -0.0132  0.0437  0.2768
 9475W        W25736   3.248   9.938   1.299 -0.0224 -0.2521 -0.1253
 9476W        W25737   0.602  12.353   0.254 -0.0162 -0.2994 -0.0125
 9477W        W25738  18.291  13.149  10.184  0.0807  0.3123 -0.0448
 9478W        W25739  16.013   3.901  13.021  0.1088  0.0307 -0.2101
 9479W        W25740   5.295  10.592   3.738 -0.1013  0.2790 -0.1723
 9480W        W25741   8.817  14.790   3.576  0.0889 -0.1297  0.1031
 9481W        W25742   0.017   9.577   1.624 -0.2155 -0.2050 -0.0639
 9482W        W25743   2.345  18.205  12.328  0.0416 -0.3043 -0.4682
 9483W        W25744   0.196  19.427  10.020 -0.4237  0.1463  0.1005
 9484W        W25745  10.695  13.723  12.958 -0.2585  0.0098  0.1665
 9485W        W25746   9.401  10.964  11.369  0.0383  0.0457 -0.2596
 9486W        W25747  12.230   3.096   0.163  0.1656 -0.1053  0.0408
 9487W        W25748  15.327  15.536  13.949  0.1932 -0.0784  0.1276
 9488W        W25749   3.892   5.240   1.745 -0.4213  0.2716 -0.1806
 9489W        W25750   0.058  12.219  14.432  0.2628 -0.2927  0.1144
 9490W        W25751   7.266   7.021  11.905  0.0798 -0.3617  0.0814
 9491W        W25752  17.215   7.190  13.454  0.0835 -0.1946  0.0085
 9492W        W25753  12.693  14.297   3.434  0.2144 -0.0037 -0.1271
 9493W        W25754   7.206  14.965   0.672  0.2476 -0.0924  0.2882
 9494W        W25755   6.318  15.440   0.473  0.0707 -0.1333 -0.3308
 9495W        W25756  13.685   5.934  11.931  0.1584 -0.0469  0.2511
 9496W        W25757  14.133  13.691  11.523 -0.0854  0.0921  0.3079
 9497W        W25758   1.749   3.637   1.179 -0.0901  0.3002 -0.3814
 9498W        W25759   8.951  14.889   2.734  0.2361 -0.1322  0.0652
 9499W        W25760   7.193   0.499  10.739  0.1952  0.2431  0.2762
 9500W        W25761   5.270   1.936  11.130 -0.1965 -0.1027  0.0834
 9501W        W25762  13.451   6.365   0.271  0.0234 -0.1755 -0.3758
 9502W        W25763  12.500  16.527  12.804 -0.2512 -0.2577 -0.1011
 9503W        W25764  19.299   0.140   2.747 -0.0956  0.0464  0.0906
 9504W        W25765  16.273  10.605  10.951 -0.1584  0.3389 -0.0022
 9505W        W25766   9.022   1.527  12.152 -0.2021  0.4376 -0.0070
 9506W        W25767  11.341  17.554  14.465  0.0136 -0.0946  0.2803
 9507W        W25768   3.940  18.730   1.912 -0.0299 -0.1964  0.1125
 9508W        W25769   2.746   5.789  14.813  0.1633 -0.1802  0.0520
 9509W        W25770   2.670   7.835   3.070  0.5475  0.3108 -0.1093
 9510W        W25771   2.177   0.709  11.515 -0.0809  0.3456  0.0194
 9511W        W25772   2.939  13.689   2.066  0.2026 -0.0748 -0.2011
 9512W        W25773  11.049  10.292  11.485  0.1318 -0.0119  0.0362
 9513W        W25774  18.019   2.801  12.818  0.0666  0.1348 -0.3450
 9514W        W25775  12.911   3.517   1.269 -0.0353 -0.4140  0.0086
 9515W        W25776  14.480  12.201  13.128 -0.2499  0.1160  0.2528
 9516W        W25777   8.379  12.928   4.121  0.3933 -0.0372  0.0892
 9517W        W25778   0.950   3.872  13.508  0.3660  0.6559  0.0857
 9518W        W25779   4.125   6.095   3.386 -0.1874  0.0696 -0.1113
 9519W        W25780   8.761  10.361   4.219  0.1386  0.0528  0.0357
 9520W        W25781  19.004  16.079  11.116 -0.2418 -0.0536  0.2801
 9521W        W25782   8.820   1.360  13.734  0.1878  0.0552 -0.1176
 9522W        W25783  16.861  13.790  14.169 -0.0894 -0.3419 -0.1056
 9523W        W25784  17.298   1.302   2.408  0.1032 -0.1794  0.2370
 9524W        W25785  12.631  18.848   5.241 -0.2709 -0.3261  0.0361
 9525W        W25786  19.185   5.843   1.186 -0.1998 -0.0288  0.2502
 9526W        W25787   8.240   8.150  11.071  0.1575 -0.0326  0.1721
 9527W        W25788  10.065  15.434  13.114  0.1314 -0.0516  0.0351
 9528W        W25789   9.724  10.761   4.769  0.0506 -0.2455 -0.2251
 9529W        W25790   9.358  18.595   3.562  0.2124  0.1767  0.0284
 9530W        W25791   8.496  10.092   2.782  0.1018 -0.1084 -0.2256
 9531W        W25792   9.776   8.978   4.203 -0.1478 -0.2280 -0.1524
 9532W        W25793  15.670  15.737  10.707  0.1053  0.3276 -0.1302
 9533W        W25794  12.339  10.990  14.119 -0.1796 -0.2037 -0.1882
 9534W        W25795   5.589   6.438   5.016  0.0110 -0.0858 -0.3135
 9535W        W25796  11.036  16.529   3.064  0.1112 -0.2471  0.1680
 9536W        W25797  11.059   7.598  10.470  0.1930 -0.0198  0.0592
 9537W        W25798  11.497   6.103   1.846  0.4142 -0.1708  0.2408
 9538W        W25799  12.927  18.052  10.022  0.3624 -0.0529 -0.5393
 9539W        W25800   1.814   6.965   0.378 -0.0573  0.3641  0.1085
 9540W        W25801  11.851   0.304   0.593  0.0107  0.3464  0.0854
 9541W        W25802   9.032   8.840  10.362 -0.2640 -0.3554  0.0672
 9542W        W25803   5.699  11.798  11.707 -0.0262 -0.0034  0.2380
 9543W        W25804   4.276   9.886   0.972 -0.0595  0.3012  0.0435
 9544W        W25805  12.832  11.161  12.388 -0.2552  0.2739  0.2121
 9545W        W25806  16.149  11.946   9.031  0.0905 -0.0128 -0.1125
 9546W        W25807   9.347  13.793  12.827 -0.0055 -0.0649 -0.0361
 9547W        W25808   0.811   3.503  12.037 -0.1334 -0.1798  0.1322
 9548W        W25809   6.894   8.386   3.695 -0.0556 -0.2394  0.1829
 9549W        W25810   9.272  10.202   4.406 -0.1328  0.0629 -0.0383
 9550W        W25811  13.043  15.698   2.666  0.1133 -0.2444 -0.1165
 9551W        W25812  10.774   6.730   2.899 -0.2049 -0.0125 -0.0799
 9552W        W25813  10.704   7.669   3.370  0.1835 -0.1298  0.0410
 9553W        W25814   3.889   5.440  13.914 -0.0279 -0.1567 -0.2418
 9554W        W25815  14.807   4.551   4.359  0.2078 -0.4100 -0.1675
 9555W        W25816   2.729   4.245  14.073  0.0200 -0.1323  0.0330
 9556W        W25817  14.480  14.652   1.116 -0.2203  0.0923  0.0409
 9557W        W25818  12.313  11.157   0.289 -0.0740 -0.1210  0.1692
 9558W        W25819   8.950  16.163  13.270  0.1455 -0.1268  0.3133
 9559W        W25820   8.470  15.739   2.543  0.3058  0.0380  0.1056
 9560W        W25821  11.659   6.151  11.811  0.0551 -0.1035 -0.3591
 9561W        W25822   6.474   5.587  11.680 -0.1494  0.2183  0.0030
 9562W        W25823   8.027  14.458  13.419 -0.3415  0.0903 -0.0743
 9563W        W25824   4.269  16.530  11.969 -0.0250 -0.2070  0.3383
 9564W        W25825  16.197  13.141  14.197 -0.0376  0.0310 -0.0943
 9565W        W25826   7.413   2.781   3.138 -0.0009 -0.0141 -0.0542
 9566W        W25827   6.491   0.766   2.606  0.5087  0.0517 -0.1639
 9567W        W25828   7.563  13.546  12.130 -0.0381  0.0808 -0.0974
 9568W        W25829   6.594   2.292   4.386 -0.1183  0.2903  0.1671
 9569W        W25830   1.116  11.977  11.879  0.1844  0.0574 -0.1518
 9570W        W25831   3.493   8.500  14.843  0.0332  0.2698  0.4245
 9571W        W25832  14.596   3.969   2.776 -0.0278 -0.0760 -0.0079
 9572W        W25833   3.395   2.570   1.561  0.2230 -0.3367 -0.0941
 9573W        W25834  18.440   9.871   0.002 -0.0529 -0.1543 -0.1064
 9574W        W25835  19.338  10.402  12.884  0.2145  0.1832 -0.0851
 9575W        W25836  11.850   0.699  11.962  0.0541  0.5257 -0.3359
 9576W        W25837  18.521   7.846  11.379 -0.1287 -0.2939  0.1549
 9577W        W25838  17.043   7.304   1.005  0.1155 -0.2955 -0.1679
 9578W        W25839  19.395   1.467  12.647  0.2031 -0.0047 -0.1505
 9579W        W25840  12.961   3.561  12.833 -0.1106  0.0019  0.1047
 9580W        W25841  11.696   4.336   3.564  0.2501 -0.1536 -0.2550
 9581W        W25842   6.077  18.949  12.775 -0.1127 -0.0133  0.2416
 9582W        W25843   1.386   0.935   3.835  0.0571  0.3397 -0.4075
 9583W        W25844  17.087  16.380   3.808  0.2180  0.0211 -0.0810
 9584W        W25845   9.553   9.514  13.546  0.0008 -0.1918 -0.1441
 9585W        W25846  14.193  18.112   2.235  0.1080  0.2957 -0.1528
 9586W        W25847   9.569   8.146   3.977  0.0739 -0.0976  0.2400
 9587W        W25848  15.928   5.684   1.922  0.0302 -0.1421  0.4359
 9588W        W25849  18.382   8.937  11.020  0.0354 -0.0941  0.2554
 9589W        W25850   3.527   6.822   4.342 -0.0778 -0.0934  0.3083
 9590W        W25851  11.531  16.993   3.065 -0.4273 -0.2539  0.0208
 9591W        W25852   3.894  18.320  14.207  0.6677  0.1735  0.1611
 9592W        W25853  10.092  13.103  14.177 -0.0623  0.0837  0.2260
 9593W        W25854   1.182  15.290  14.146  0.0067  0.0135 -0.1288
 9594W        W25855  13.526   0.486  14.279 -0.1943 -0.2998 -0.2236
 9595W        W25856  10.454   6.497  13.710 -0.0640 -0.2947 -0.0747
 9596W        W25857  15.011  17.613  13.787  0.2355  0.0342 -0.1628
 9597W        W25858  17.169  15.074   2.888 -0.2701 -0.1945 -0.2339
 9598W        W25859  10.467   9.704  12.478 -0.3208  0.2874  0.1874
 9599W        W25860   3.248  15.762  14.758  0.0634  0.0733  0.1260
 9600W        W25861  11.390   5.472   0.057  0.0079 -0.0124 -0.1269
 9601W        W25862   9.251  14.823  13.854  0.1682  0.3060 -0.2345
 9602W        W25863   0.708  13.616   1.427 -0.1346  0.1149 -0.4306
 9603W        W25864  14.562  11.751  14.294  0.3686 -0.2602  0.2226
 9604W        W25865   6.414   4.464   0.516 -0.0656 -0.0822 -0.0619
 9605W        W25866   0.676   7.024  13.685 -0.0143 -0.0681 -0.0502
 9606W        W25867  10.329  11.215   9.090  0.2860 -0.0849  0.0024
 9607W        W25868  18.165   6.721   2.228  0.0704  0.0322  0.0587
 9608W        W25869  12.927   7.611   2.157  0.1548 -0.4538  0.0135
 9609W        W25870   3.585  11.551   1.473 -0.0740 -0.2285 -0.2254
 9610W        W25871   7.355   6.959   3.126  0.0423  0.0001  0.0948
 9611W        W25872   2.824   4.665  12.197  0.0127  0.4871  0.3134
 9612W        W25873  10.614  16.742   3.349 -0.0706 -0.2085  0.0104
 9613W        W25874  11.113   8.830   2.019  0.0779  0.0431  0.1689
 9614W        W25875  12.226  10.575   3.788  0.0515 -0.4785  0.1938
 9615W        W25876   6.250  10.021  14.079 -0.1431 -0.3517 -0.0850
 9616W        W25877   3.226  14.727   0.458 -0.1576 -0.2190 -0.2179
 9617W        W25878  17.810  18.978   3.990 -0.1414  0.0050  0.3489
 9618W        W25879   2.976   6.179  11.815 -0.0265  0.1436  0.2273
 9619W        W25880   4.247  15.211  10.823  0.0217  0.0856 -0.0587
 9620W        W25881   2.337   0.140   4.825 -0.2857 -0.0327  0.1904
 9621W        W25882   4.563  13.664   2.447  0.0415  0.0057 -0.3373
 9622W        W25883  17.098   6.162  11.060 -0.0709  0.2477 -0.0610
 9623W        W25884   0.520   2.234   4.677 -0.3615 -0.1541 -0.0073
 9624W        W25885   3.675  11.716  11.468  0.0455  0.4347 -0.4558
 9625W        W25886  13.352  17.246  14.357  0.1951 -0.0123  0.1942
 9626W        W25887  16.214   7.330   0.441  0.0732  0.0885  0.0739
 9627W        W25888  15.380  11.746  14.006 -0.0466  0.3339  0.1238
 9628W        W25889  18.308  16.811   1.637  0.0768 -0.2712  0.0602
 9629W        W25890  18.947  16.986  13.569 -0.3008  0.1562 -0.1363
 9630W        W25891   0.024   2.034  11.059 -0.3606 -0.1468  0.1330
 9631W        W25892  17.822   8.229   4.037  0.1649  0.3678  0.2690
 9632W        W25893   7.401   1.657   2.127  0.4186 -0.2761 -0.2308
 9633W        W25894   7.458   1.417  10.982  0.2204  0.4464  0.0356
 9634W        W25895   2.540  13.042   4.031  0.1167  0.0623  0.1954
 9635W        W25896   9.581   1.331   1.178 -0.2151 -0.0597 -0.0320
 9636W        W25897   7.890  12.734   1.063 -0.2770  0.3777  0.1986
 9637W        W25898  14.716  15.226   9.259 -0.1770 -0.2174 -0.1562
 9638W        W25899  19.256  14.591   4.143 -0.3770  0.0732 -0.0502
 9639W        W25900  12.422  13.613  11.150  0.1937  0.4252 -0.0137
 9640W        W25901  13.849  10.248  14.471  0.1136  0.1624  0.4122
 9641W        W25902   7.588  10.294   2.313  0.0794 -0.0053  0.5416
 9642W        W25903  17.646  12.013  10.892 -0.2618  0.0663 -0.1523
 9643W        W25904  15.495  15.100   2.285 -0.2297 -0.3319  0.2382
 9644W        W25905  12.566  16.948   2.582 -0.2611  0.0241 -0.1223
 9645W        W25906  15.197   7.139   3.503 -0.1945  0.3324  0.1741
 9646W        W25907  10.071  12.922   3.500  0.0840  0.1269  0.1465
 9647W        W25908   5.847   6.787  12.681  0.2313  0.2846  0.2075
 9648W        W25909   7.355  14.761  13.942 -0.0360  0.1616 -0.0492
 9649W        W25910  17.462  18.074  12.673  0.1033  0.4762  0.0988
 9650W        W25911   7.275  10.858   0.239  0.1114  0.0760  0.2769
 9651W        W25912   6.887   3.735  10.355  0.0039  0.0233 -0.2116
 9652W        W25913  19.295   7.724   1.696 -0.0449 -0.2099 -0.2085
 9653W        W25914  17.878   4.636   2.042 -0.1518  0.0845 -0.3505
 9654W        W25915  15.125   6.682   1.753  0.1789 -0.0737  0.0235
 9655W        W25916   3.379   4.649   2.386  0.2570 -0.2866  0.1604
 9656W        W25917   0.130   5.664   2.156  0.1728 -0.1451  0.0893
 9657W        W25918  17.631   4.890   5.241 -0.1189 -0.0339  0.0345
 9658W        W25919  12.499   3.550   2.072  0.1249 -0.1424 -0.4679
 9659W        W25920  17.396   7.127   0.660 -0.2421  0.0593 -0.1111
 9660W        W25921  11.324  13.782   1.177  0.1233 -0.3017 -0.0025
 9661W        W25922  15.957  18.146   0.310  0.0222 -0.1287  0.4849
 9662W        W25923   6.056   4.194   3.192  0.2096 -0.3498 -0.0595
 9663W        W25924  16.641   0.059   2.023  0.3301  0.0741 -0.1953
 9664W        W25925   2.548  13.295  14.322 -0.1818  0.1314  0.0073
 9665W        W25926   3.600  16.125  12.866  0.0722  0.2430 -0.1367
 9666W        W25927  15.270  11.257  13.263 -0.0443 -0.4632 -0.3523
 9667W        W25928   6.928  10.710   0.659  0.0663 -0.1427 -0.0126
 9668W        W25929   2.462  15.897   5.410 -0.6067 -0.1830  0.0519
 9669W        W25930   6.938   9.170   4.369 -0.0421  0.0428  0.2625
 9670W        W25931  15.461  12.200  10.275  0.2237 -0.1734  0.1037
 9671W        W25932  10.096  12.079   4.130  0.0933  0.4115 -0.0074
 9672W        W25933  17.890  10.922   2.504  0.1245 -0.1172 -0.2202
 9673W        W25934  15.094   5.237  12.324 -0.1041  0.1550  0.0761
 9674W        W25935  13.798  18.995  10.407  0.3253 -0.0443 -0.0849
 9675W        W25936   5.840   0.627  12.663  0.0809 -0.2078  0.0657
 9676W        W25937  16.920   1.701  14.105 -0.0844 -0.2734 -0.2449
 9677W        W25938  14.358   6.659   4.500 -0.0868 -0.2795 -0.3524
 9678W        W25939  10.208   2.919  13.397  0.1519  0.0993 -0.0650
 9679W        W25940  10.994   9.432  11.303  0.4415  0.1195 -0.2502
 9680W        W25941   2.053  18.155   3.575 -0.1285  0.0255  0.1207
 9681W        W25942  12.892   6.068   1.083 -0.1232 -0.3050 -0.3702
 9682W        W25943  18.953   5.057  14.738  0.3702 -0.0769  0.0850
 9683W        W25944   5.449   1.037  11.649  0.0519 -0.0134  0.2221
 9684W        W25945   8.955   0.980  14.696  0.3384  0.1534 -0.0511
 9685W        W25946   0.761   6.870   3.573  0.0504 -0.3494 -0.0982
 9686W        W25947  18.094   2.267   0.739 -0.0091 -0.2349  0.2014
 9687W        W25948  12.465   0.041   5.453  0.0014  0.3746 -0.0011
 9688W        W25949  11.141   4.982  10.579  0.0722  0.3338 -0.1730
 9689W        W25950   6.800  10.998  11.442  0.2109 -0.0499 -0.2825
 9690W        W25951  13.705   8.990  13.902 -0.1439 -0.1417 -0.1050
 9691W        W25952  18.591   4.011  13.489  0.1197 -0.1540  0.0020
 9692W        W25953  13.232  13.452   0.886 -0.1461 -0.1087 -0.0586
 9693W        W25954  11.111  11.803   1.668 -0.2003 -0.1551 -0.0022
 9694W        W25955  10.434  18.689   0.567 -0.1737  0.2526  0.0748
 9695W        W25956   8.028   2.958   3.719 -0.0284  0.3090 -0.0804
 9696W        W25957  11.927   3.703   3.008 -0.1750 -0.2035 -0.1225
 9697W        W25958   1.170  17.065   2.690 -0.0205 -0.0606  0.0342
 9698W        W25959  13.275  10.221   1.200  0.0140  0.0712  0.0917
 9699W        W25960   2.580  11.473  14.123 -0.0708  0.0014  0.0804
 9700W        W25961   5.039   7.746  14.632 -0.0939 -0.1222  0.3004
 9701W        W25962  16.168  18.257  13.822  0.1167  0.2274  0.0617
 9702W        W25963   7.433  18.931  13.373  0.1018  0.3419  0.3821
 9703W        W25964  10.064   7.294  13.761 -0.0697  0.1092 -0.0557
 9704W        W25965  11.409   2.018  14.684 -0.0203 -0.1163  0.0697
 9705W        W25966  10.959  18.979  12.627  0.0726  0.0431  0.1650
 9706W        W25967  11.957   3.162   1.063 -0.0496 -0.0947 -0.3261
 9707W        W25968  17.720  13.299  13.400 -0.0909  0.4494  0.1822
 9708W        W25969   7.565   1.299   3.331  0.1786 -0.0749  0.1146
 9709W        W25970   3.455  16.468   2.272 -0.1059  0.1150 -0.0365
 9710W        W25971  10.358   3.093  11.245  0.1412  0.0156 -0.0549
 9711W        W25972   6.417   5.854  12.094 -0.2441 -0.2370  0.0604
 9712W        W25973  12.027   2.166  14.486 -0.0789 -0.1472  0.1265
 9713W        W25974  13.959  11.315  10.542  0.2225  0.2101 -0.1796
 9714W        W25975  18.808   0.344   1.240 -0.0528  0.0930 -0.0375
 9715W        W25976  17.824  15.025  11.863 -0.2175  0.2398  0.0764
 9716W        W25977  17.220  13.966   2.734 -0.2262  0.0959  0.0290
 9717W        W25978  10.215  14.669  13.436  0.0333 -0.3882  0.2687
 9718W        W25979  18.060  17.125  11.690  0.0462  0.1017 -0.2628
 9719W        W25980  12.683  18.822  11.493  0.1344 -0.1084  0.1593
 9720W        W25981   4.365   9.978  10.913 -0.0134  0.2856  0.1265
 9721W        W25982  18.994  18.591  11.072 -0.2366 -0.0018 -0.2745
 9722W        W25983   5.042   4.997  14.275  0.1161  0.0464  0.3675
 9723W        W25984   6.576   8.780  14.640 -0.0766 -0.0352 -0.3390
 9724W        W25985   2.795   9.094   2.081 -0.0016  0.1928  0.2266
 9725W        W25986  14.029  18.712   2.917  0.0855 -0.3193  0.5726
 9726W        W25987   4.943  19.324   0.764 -0.1043 -0.1714 -0.2654
 9727W        W25988  15.561   1.708  11.680  0.0622 -0.1001  0.0535
 9728W        W25989   4.342  15.505  14.855  0.0739  0.3306 -0.0693
 9729W        W25990  15.069   3.374   1.061 -0.0370  0.2132  0.0721
 9730W        W25991  13.010   3.128  10.603 -0.2681 -0.0423  0.2794
 9731W        W25992   1.625   9.091   5.027 -0.0147  0.0094 -0.2574
 9732W        W25993  14.602  18.121  14.556  0.2393 -0.1228  0.2012
 9733W        W25994   9.533  19.216   2.134  0.0422  0.1759 -0.5601
 9734W        W25995  14.144  16.125   3.436  0.0778  0.2417 -0.0284
 9735W        W25996   8.544  13.796   0.361 -0.0506 -0.0358  0.2825
 9736W        W25997   7.755   2.329   0.860  0.0900  0.1974  0.1027
 9737W        W25998  17.486  17.478  11.020  0.1236  0.0992  0.3389
 9738W        W25999  19.167  13.678   2.681 -0.0008 -0.0536 -0.0681
 9739W        W26000   5.694   8.334  14.286 -0.0613 -0.0271  0.1278
 9740W        W26001   1.787  12.653  11.517  0.2800  0.2352 -0.1826
 9741W        W26002  16.155   4.326  12.408 -0.2133 -0.2144 -0.1550
 9742W        W26003  19.384   9.611  10.303  0.1024  0.1562 -0.0913
 9743W        W26004  10.851  13.689   3.906  0.0285 -0.0250 -0.3044
 9744W        W26005  15.423   2.441   2.504 -0.1541  0.2599  0.2068
 9745W        W26006  12.025  10.866   2.436  0.0273 -0.1655 -0.4086
 9746W        W26007  16.265   8.450  12.710  0.1779  0.2127 -0.0534
 9747W        W26008   7.664   9.023   0.685  0.0810  0.0295  0.0655
 9748W        W26009   0.899   1.581  10.999  0.3772 -0.0748 -0.2556
 9749W        W26010   8.541   9.928   1.341 -0.2792  0.2562 -0.0728
 9750W        W26011   8.600   0.670   4.162 -0.1922  0.0708 -0.0179
 9751W        W26012   2.019  15.871  14.541 -0.1807  0.0042  0.3110
 9752W        W26013   1.737  19.112  13.998  0.0786  0.0725  0.3558
 9753W        W26014  12.050  17.764  10.128 -0.1893  0.2020 -0.1803
 9754W        W26015   2.423  13.325   9.568  0.1072 -0.1431  0.0493
 9755W        W26016  13.843   4.528   4.300 -0.2109 -0.2166  0.1237
 9756W        W26017  18.498  12.545   2.601  0.1344 -0.0664  0.1762
 9757W        W26018  12.788   6.866   2.970  0.0368  0.1629 -0.1603
 9758W        W26019   7.236  10.181   2.883 -0.0501  0.0592 -0.3407
 9759W        W26020  17.196  10.419  10.204 -0.0021  0.0193  0.0146
 9760W        W26021  16.631   6.528   0.533 -0.1488  0.0862  0.3110
 9761W        W26022  13.408  13.758   4.486  0.5336  0.0794 -0.1662
 9762W        W26023   0.182   7.177   2.219 -0.2711 -0.0772 -0.2594
 9763W        W26024  16.914   7.836   5.288 -0.0393 -0.0832 -0.1477
 9764W        W26025  15.572   8.720   3.915  0.0574 -0.0037  0.1758
 9765W        W26026   8.415  13.610  14.002 -0.0081 -0.0813  0.0321
 9766W        W26027   9.757   3.407   1.476  0.3910 -0.2243 -0.3500
 9767W        W26028  16.002   1.866   5.305  0.1375  0.0264  0.1176
 9768W        W26029  13.316  17.340  12.103  0.1275  0.0674 -0.0090
 9769W        W26030  10.530  15.891  10.172  0.0754 -0.0921  0.2320
 9770W        W26031   2.836  17.190  11.975 -0.0185 -0.4929  0.0125
 9771W        W26032  15.605  11.013  14.825 -0.1303  0.1076  0.2423
 9772W        W26033  11.238   8.095   2.938  0.2380 -0.1127 -0.0487
 9773W        W26034   0.269  16.735   3.109 -0.1591 -0.1158 -0.1110
 9774W        W26035  19.285   9.458  12.833  0.3407  0.3434 -0.0959
 9775W        W26036   0.029  10.967  12.914  0.0615 -0.3818 -0.0724
 9776W        W26037   2.611  14.372  12.527 -0.1832 -0.1996  0.1106
 9777W        W26038   9.852   1.008  12.007 -0.0523  0.3048 -0.0803
 9778W        W26039   2.191  15.046  11.324  0.2370 -0.2888 -0.0224
 9779W        W26040   6.540   6.193   4.688 -0.3311 -0.1111 -0.3067
 9780W        W26041  15.251   3.477   4.698  0.0020 -0.2241  0.3030
 9781W        W26042  13.720   0.387   1.048 -0.0787 -0.1326  0.0021
 9782W        W26043  12.935   2.626  11.684  0.0225 -0.0672  0.1895
 9783W        W26044  16.283  16.133  13.130 -0.0550  0.1835  0.0733
 9784W        W26045  13.736  19.379   0.914  0.0612 -0.2229 -0.1963
 9785W        W26046  13.033   6.773   9.791 -0.2591  0.0482  0.0487
 9786W        W26047   3.573   6.132   2.054 -0.0595  0.0300 -0.0605
 9787W        W26048   5.722   5.277  13.386  0.3187  0.0184  0.0617
 9788W        W26049  17.093   9.136  14.019  0.0092  0.0870  0.2753
 9789W        W26050  12.336   6.709   2.049 -0.2412 -0.0840 -0.2844
 9790W        W26051   3.062  11.490  11.209  0.0238  0.1310 -0.0008
 9791W        W26052  12.962  16.286   9.986  0.0565 -0.1683 -0.0506
 9792W        W26053   6.042   0.099  13.344 -0.0203 -0.4183 -0.3928
 9793W        W26054  18.435   3.860   2.199 -0.1841 -0.0131 -0.2532
 9794W        W26055  10.898   2.344  14.797 -0.0510  0.4045 -0.0713
 9795W        W26056  14.818  12.231  11.931 -0.2997  0.1402 -0.3397
 9796W        W26057   5.724  17.628   1.020  0.0930 -0.1375 -0.1522
 9797W        W26058   8.933  16.234   1.262 -0.0190  0.2035  0.1917
 9798W        W26059  10.208   4.848  12.832 -0.1144  0.2066 -0.1353
 9799W        W26060  14.853  10.681   1.568  0.1280  0.5981  0.4310
 9800W        W26061  15.551  12.982   1.726 -0.0128 -0.3373  0.1083
 9801W        W26062   4.519   5.415   3.852 -0.1032  0.1230  0.3563
 9802W        W26063   5.823  16.100   2.368  0.2154  0.4504  0.1056
 9803W        W26064  16.038   1.450   3.768 -0.0841 -0.0166 -0.0346
 9804W        W26065  12.670  10.329   1.393  0.0790 -0.3782 -0.2793
 9805W        W26066  17.689   0.923   2.228  0.0184  0.1262  0.0303
 9806W        W26067   2.036   2.102  13.795 -0.2305  0.1173 -0.1264
 9807W        W26068  10.117   5.255   2.679  0.0710  0.0208 -0.0222
 9808W        W26069  14.236   9.175  10.538  0.3037 -0.3655 -0.0568
 9809W        W26070  14.779  11.382   5.240  0.1534  0.0982  0.1818
 9810W        W26071   5.375  17.949  14.390  0.0134  0.1204  0.1770
 9811W        W26072  11.354  17.991  10.655 -0.1435  0.0176 -0.0041
 9812W        W26073   3.191   6.659   0.950 -0.1094  0.1906  0.0239
 9813W        W26074  15.362  13.880   1.051 -0.1654 -0.0333  0.4559
 9814W        W26075   8.217   6.030   0.691  0.1588 -0.1144 -0.3169
 9815W        W26076  18.964   0.435  10.508  0.3239  0.1950 -0.0034
 9816W        W26077  14.072  12.009   1.086 -0.3019  0.2052  0.3675
 9817W        W26078   6.892   0.328  12.410  0.0183 -0.1419  0.1426
 9818W        W26079  13.324   2.451   9.843 -0.1293  0.1805 -0.0153
 9819W        W26080   3.268  16.197   4.243  0.1454  0.2127  0.0241
 9820W        W26081  17.947   1.807   1.628 -0.0928 -0.0020  0.1783
 9821W        W26082   1.062  12.576   3.559 -0.2413  0.1507 -0.2261
 9822W        W26083   4.578  18.869  13.068  0.1264  0.1621 -0.0394
 9823W        W26084  15.102  19.340  10.577  0.0612 -0.3975 -0.0491
 9824W        W26085  16.185   4.235   2.045  0.0047 -0.1373 -0.0082
 9825W        W26086  13.609   1.036   3.683  0.1066  0.0318 -0.0258
 9826W        W26087  14.233   5.475   0.941  0.2152 -0.1523 -0.0627
 9827W        W26088  17.208  12.847  11.800 -0.3430 -0.0765 -0.3205
 9828W        W26089  17.133  13.831   3.830  0.3439  0.2737  0.0123
 9829W        W26090  13.586   9.967  10.349  0.1555 -0.1615 -0.0335
 9830W        W26091  17.918   0.540   4.103  0.1045 -0.0329  0.0942
 9831W        W26092   5.299   3.293  14.080 -0.1864 -0.3255 -0.0493
 9832W        W26093  16.557  13.659   5.106 -0.0894  0.0931 -0.1902
 9833W        W26094  11.890  11.639  13.267  0.0713 -0.0100  0.1360
 9834W        W26095   2.028  19.236  11.468  0.0267  0.1500  0.2012
 9835W        W26096  17.743  19.033  12.514  0.2488 -0.4090  0.3569
 9836W        W26097  19.177   2.167   0.556 -0.2241  0.0740  0.1860
 9837W        W26098  15.720   7.942   3.838  0.0458 -0.1425 -0.0584
 9838W        W26099   3.524  17.575  11.428 -0.0369 -0.1698 -0.5540
 9839W        W26100  12.046   4.773   9.987  0.0074 -0.1819 -0.0806
 9840W        W26101   3.039   0.763   3.407 -0.0695 -0.2072 -0.3611
 9841W        W26102  15.971  11.639  13.901  0.3407  0.1693 -0.0117
 9842W        W26103   4.063   4.643   1.334 -0.2070  0.1799 -0.0508
 9843W        W26104   0.804   9.369  13.443 -0.0245  0.2656 -0.1510
 9844W        W26105   5.947   7.020  11.174  0.3246  0.0040  0.2421
 9845W        W26106  12.511  19.106  10.243 -0.0896 -0.2304  0.2138
 9846W        W26107  19.307   8.012   1.278 -0.1370  0.3297  0.0774
 9847W        W26108   0.324  13.783   1.750  0.0397  0.0616  0.2363
 9848W        W26109   3.109   0.026  13.952  0.1229 -0.0672  0.3244
 9849W        W26110  16.004   6.870   0.003  0.0712 -0.2622  0.0153
 9850W        W26111  17.680   5.298   0.700  0.6735  0.0403 -0.2826
 9851W        W26112  14.659   6.494  10.820 -0.2195  0.0258  0.2138
 9852W        W26113  16.689  13.172  10.557 -0.0942 -0.0399 -0.1230
 9853W        W26114   4.412  10.195   1.841 -0.2127  0.0243  0.1227
 9854W        W26115   9.582  13.599   3.380  0.2244 -0.0104  0.0354
 9855W        W26116  10.627  11.519   9.959  0.0571 -0.1164 -0.2167
 9856W        W26117  14.921   9.637   1.859  0.1687 -0.2060 -0.1205
 9857W        W26118  16.394  10.092  11.818  0.1623  0.1357  0.1928
 9858W        W26119  10.275   0.935   1.683  0.1121  0.0837  0.1012
 9859W        W26120   0.819  15.922  10.277 -0.0072 -0.2167 -0.1022
 9860W        W26121  18.438  16.773   1.157 -0.0552 -0.2900  0.3754
 9861W        W26122  17.745   2.783  11.698  0.4110 -0.2828 -0.0296
 9862W        W26123   9.447   3.683   3.843 -0.2743  0.1018 -0.1368
 9863W        W26124  18.402  18.788   2.165  0.0863  0.1346 -0.3399
 9864W        W26125  16.276  16.409   8.728 -0.1557 -0.2645 -0.2600
 9865W        W26126   2.537  10.452   1.748 -0.3043  0.0638  0.2971
 9866W        W26127  15.647  18.595  10.521  0.1780  0.0530  0.3044
 9867W        W26128   6.223   9.914   2.648  0.1164 -0.0137 -0.0673
 9868W        W26129   4.828   9.818   1.622 -0.1759 -0.1747  0.0732
 9869W        W26130   3.834   3.686  14.080 -0.0940 -0.1041  0.3362
 9870W        W26131   4.166   6.449  10.997 -0.2083 -0.1133 -0.4305
 9871W        W26132  13.435  10.998   0.515  0.2311 -0.2398 -0.2133
 9872W        W26133  10.160  16.426  11.198  0.0368  0.0720  0.0035
 9873W        W26134   2.371  15.737   4.162  0.1058 -0.1837 -0.0408
 9874W        W26135   2.272  13.740  14.264  0.1060 -0.1459  0.0083
 9875W        W26136  13.961   1.359  12.491  0.0325  0.4482  0.1218
 9876W        W26137   0.331   9.270  11.705 -0.0153  0.1409  0.2563
 9877W        W26138   1.009  11.380  10.437 -0.2923  0.1633  0.2157
 9878W        W26139  11.311   8.545   3.291  0.0703 -0.1576  0.3355
 9879W        W26140  13.356  15.104  12.522  0.0506  0.1955 -0.1071
 9880W        W26141   0.555  11.326  12.135  0.0627 -0.1255  0.1569
 9881W        W26142  15.660   6.764  12.101 -0.1407 -0.4116 -0.4477
 9882W        W26143   1.579   9.873  11.857 -0.1083 -0.2055  0.1620
 9883W        W26144   1.435   5.791   3.944  0.0504 -0.2866  0.0673
 9884W        W26145  12.222   6.517   4.739  0.4986 -0.1727  0.0038
 9885W        W26146   2.165   6.844   3.695  0.0310 -0.1260 -0.1344
 9886W        W26147  14.563  12.790  10.492 -0.3224  0.1328 -0.0099
 9887W        W26148   7.890   1.173   2.916  0.0687 -0.4600  0.0757
 9888W        W26149   0.705   8.313   0.896 -0.0861 -0.2826 -0.0675
 9889W        W26150   8.714   1.462   3.943  0.1345 -0.1940 -0.0767
 9890W        W26151   2.054  14.094  10.630 -0.0758  0.0879 -0.3189
 9891W        W26152  14.837   1.698  13.483 -0.0048 -0.1857 -0.4578
 9892W        W26153  13.629   5.243   3.792  0.1042 -0.1949 -0.2368
 9893W        W26154  12.838   1.591   0.818 -0.5713 -0.0362 -0.1080
 9894W        W26155  18.462   3.072   0.393  0.1917  0.1822 -0.0366
 9895W        W26156  15.793   2.572   4.586  0.1341 -0.0141  0.2381
 9896W        W26157  17.411   1.187  12.759  0.0172  0.1672 -0.1246
 9897W        W26158  14.933  15.205  10.904  0.1908  0.2030 -0.1003
 9898W        W26159  13.770  15.971   1.160  0.3104  0.2150 -0.0761
 9899W        W26160  11.648   1.397   9.905 -0.1219 -0.0604  0.1083
 9900W        W26161  10.771   9.779   2.398 -0.1732  0.2459  0.2902
 9901W        W26162  13.673  10.573  14.047 -0.5818 -0.1605 -0.1060
 9902W        W26163   9.973   2.151  11.059  0.2008  0.0924  0.0710
 9903W        W26164   9.147  15.974   0.112 -0.3220  0.1631  0.0494
 9904W        W26165   9.318   3.200  10.173 -0.2909 -0.1670 -0.2327
 9905W        W26166  12.678   9.840   4.383  0.1044 -0.1047 -0.1375
 9906W        W26167   4.949   6.431   3.453  0.3962 -0.2217 -0.1679
 9907W        W26168   9.630  11.681   4.746  0.3220  0.1452 -0.1948
 9908W        W26169   2.146   6.831   2.047 -0.3655 -0.0204  0.0012
 9909W        W26170   2.992  12.657  14.458 -0.0988 -0.1026 -0.1333
 9910W        W26171   6.935   0.496  11.167  0.1102 -0.0201 -0.3661
 9911W        W26172  14.819   1.636  14.212  0.1708 -0.3693  0.0859
 9912W        W26173  12.831   8.865  10.913 -0.1121  0.0857 -0.0572
 9913W        W26174   1.930   4.803  11.249  0.1163  0.0014 -0.2355
 9914W        W26175  12.140   6.556  12.314 -0.2199 -0.0889 -0.1374
 9915W        W26176  14.867  15.993  10.812  0.0898 -0.2906 -0.1155
 9916W        W26177   5.426  14.876  12.034  0.0293  0.0918 -0.2803
 9917W        W26178   8.985   7.625   3.223  0.2359 -0.0107  0.1759
 9918W        W26179   0.862   1.975   2.729  0.2321  0.0854 -0.0515
 9919W        W26180   7.893  11.126   4.299 -0.1134 -0.0678 -0.3656
 9920W        W26181   5.895   6.719   2.840 -0.0504 -0.1719 -0.0118
 9921W        W26182  13.649   2.347   2.657 -0.1478  0.1450  0.1376
 9922W        W26183   9.611  13.964  13.206  0.0219  0.0225 -0.1308
 9923W        W26184   5.359   8.533   0.843 -0.0644 -0.0439 -0.2775
 9924W        W26185   8.144  11.210  10.546  0.2239  0.1309  0.0933
 9925W        W26186  16.185  15.397   1.367 -0.0332  0.0512 -0.1534
 9926W        W26187   8.472   1.838   4.853 -0.0668 -0.5677  0.1079
 9927W        W26188  15.108  10.960   0.711 -0.1507  0.2401 -0.3401
 9928W        W26189   6.487   4.735   5.237  0.0819  0.0273  0.1471
 9929W        W26190  10.235   5.033  12.243  0.1047 -0.1300 -0.2270
 9930W        W26191  11.238  15.339   1.680 -0.0534  0.1519 -0.2607
 9931W        W26192  16.960   5.242  10.891 -0.0414 -0.0836  0.2615
 9932W        W26193  15.217  15.087   0.361 -0.0742 -0.2536 -0.0907
 9933W        W26194  11.872  11.280  12.874 -0.0836  0.0082 -0.2458
 9934W        W26195   9.632   5.860  14.603 -0.3052  0.2658 -0.3187
 9935W        W26196   3.160   1.636  12.748  0.1778  0.2823  0.1607
 9936W        W26197   7.161  16.402  10.225 -0.1555  0.1337  0.0614
 9937W        W26198   4.950   3.668  11.448  0.0154 -0.2774  0.0950
 9938W        W26199   4.748   0.661  14.497  0.1032  0.2954  0.1039
 9939W        W26200   6.822  14.309  10.758  0.0679  0.5332 -0.0805
 9940W        W26201   8.799   9.610   2.132  0.0137  0.1884 -0.2703
 9941W        W26202   5.141  13.177  12.090  0.4596 -0.0752 -0.5366
 9942W        W26203  18.934   3.142  13.585 -0.0909 -0.1062  0.2507
 9943W        W26204   5.883   9.056  14.053  0.0552 -0.1083  0.0324
 9944W        W26205  12.499   0.412   3.414 -0.2349  0.1024 -0.0022
 9945W        W26206   5.377  11.468   3.432  0.2402 -0.1027 -0.0840
 9946W        W26207  15.395   3.374  14.235 -0.2645  0.0093 -0.2033
 9947W        W26208  11.586  13.539   0.815  0.0268 -0.1216 -0.0876
 9948W        W26209   4.471   2.407   1.693 -0.2256  0.0704 -0.0219
 9949W        W26210  14.273  13.663   2.927  0.2805  0.0860  0.0012
 9950W        W26211  11.926  14.770   0.281 -0.0985 -0.0887  0.1374
 9951W        W26212  18.332   4.527  14.447 -0.1456  0.1686 -0.2943
 9952W        W26213   8.851   6.238   0.503  0.0111 -0.0993  0.2126
 9953W        W26214  16.699  11.721  11.059  0.1678  0.1650 -0.1774
 9954W        W26215  13.522  17.810  12.248 -0.1038  0.4066  0.4896
 9955W        W26216  19.430   8.638  14.303  0.0665 -0.1309 -0.1108
 9956W        W26217  10.270   9.716  10.901  0.2115  0.0617 -0.0599
 9957W        W26218  10.100   9.507   1.127  0.3372  0.1859 -0.0220
 9958W        W26219   9.861   8.413  10.528 -0.0618  0.0539 -0.2891
 9959W        W26220   8.278   6.772  11.240  0.1427 -0.2138  0.1012
 9960W        W26221  10.132  13.283   5.049  0.1279 -0.0916  0.2570
 9961W        W26222  10.353  16.534  13.812 -0.0406  0.0069 -0.2221
 9962W        W26223  11.421   1.041   0.987  0.0115 -0.1242  0.1179
 9963W        W26224   1.811  14.275   5.457  0.0520 -0.0753 -0.3286
 9964W        W26225  10.360  15.602  11.849 -0.3053 -0.1431 -0.1158
 9965W        W26226   2.838  16.994   4.795  0.0968 -0.2481  0.0100
 9966W        W26227   2.587   8.428   0.944  0.2557 -0.1273 -0.3645
 9967W        W26228   0.079   0.540  11.437 -0.0746  0.0895  0.1515
 9968W        W26229  10.086   6.664   2.037 -0.2487 -0.3680 -0.0808
 9969W        W26230  19.159   2.793   1.359  0.4826  0.0283 -0.1456
 9970W        W26231   6.973  12.327   0.742 -0.0655  0.1000  0.1684
 9971W        W26232  12.430  13.809   0.654 -0.2352 -0.0172 -0.0148
 9972W        W26233  12.401  18.856  12.424 -0.3794  0.0273  0.1728
 9973W        W26234   2.343  16.467   1.166  0.1183  0.0593  0.0294
 9974W        W26235   0.434   7.687   3.088  0.0936 -0.0516  0.2755
 9975W        W26236  14.538   6.126   2.072  0.2733  0.1715  0.0721
 9976W        W26237   1.752   8.714   2.450  0.0079 -0.0043  0.0609
 9977W        W26238  12.584   5.396  12.684  0.0223  0.2555 -0.3876
 9978W        W26239   2.668   9.849  12.241  0.0678 -0.0484 -0.0679
 9979W        W26240   8.632   0.798   5.421  0.2362 -0.5848  0.1599
 9980W        W26241   8.908   7.140   0.310 -0.3221  0.1911 -0.2620
 9981W        W26242   4.556   8.479   4.497  0.1651 -0.0258 -0.0401
 9982W        W26243  17.205   8.170   0.438  0.1399  0.2035 -0.2889
 9983W        W26244   2.337   7.608   5.208 -0.1892  0.2936 -0.4067
 9984W        W26245   7.825  10.043   3.014  0.1129 -0.0989  0.3187
 9985W        W26246  11.814   1.094   3.206 -0.1354 -0.0339 -0.1370
 9986W        W26247  12.086  18.612  11.907 -0.3197 -0.0365  0.1425
 9987W        W26248  18.310  17.108  13.735 -0.0891 -0.1770 -0.0831
 9988W        W26249   7.728   7.357   5.642 -0.0441 -0.1435  0.1827
 9989W        W26250   5.075  16.507   2.495 -0.1069 -0.0947 -0.1885
 9990W        W26251  11.127  15.458   3.059  0.2277  0.2192 -0.1944
 9991W        W26252  11.371   5.279  11.482 -0.2193 -0.1298  0.1382
 9992W        W26253  14.837  12.172   1.556  0.0017  0.1740  0.2108
 9993W        W26254   7.143   5.588   4.696 -0.1710  0.4227 -0.0547
 9994W        W26255   3.707   4.575  14.583  0.1305  0.1429  0.0921
 9995W        W26256   8.981  14.986  10.510  0.1142 -0.1327 -0.2323
 9996W        W26257   7.512   8.936  14.258  0.0645 -0.0405  0.0947
 9997W        W26258  18.788  15.403  13.098  0.0985 -0.1843 -0.1296
 9998W        W26259   9.114  15.030  11.840  0.1346  0.0451 -0.6085
 9999W        W26260  18.675   4.410   1.586 -0.2177  0.3521  0.3905
10000W        W26261  17.500  12.996   2.038 -0.0721  0.1918  0.0254
10001W        W26262   8.200  17.192   9.952  0.0447 -0.2084  0.3076
10002W        W26263  13.134  11.760   4.225 -0.0556 -0.1641  0.0480
10003W        W26264   3.813   8.521  11.450  0.1226 -0.2690 -0.1798
10004W        W26265   6.069  18.743  10.902  0.1475  0.0817 -0.1260
10005W        W26266  11.417   6.511  13.928  0.0227  0.0532 -0.1331
10006W        W26267   1.200   3.996  13.976 -0.1732 -0.0115  0.0423
10007W        W26268  13.041  11.083   3.239  0.1308  0.4515 -0.2753
10008W        W26269  14.954   8.380  10.712  0.2794 -0.0746  0.0134
10009W        W26270  10.250   1.143  14.822 -0.2012 -0.0388 -0.5162
10010W        W26271   4.403   4.090   5.353  0.0588  0.1575  0.2165
10011W        W26272  18.344   6.577   2.665 -0.4327 -0.3336  0.1686
10012W        W26273   8.245  11.001  13.116 -0.2501 -0.3706 -0.4657
10013W        W26274   6.410  15.043  13.642  0.1391 -0.2357  0.1247
10014W        W26275  17.610   5.971  10.785 -0.2120 -0.4948  0.0998
10015W        W26276  18.566   5.517  13.090  0.0548  0.4094 -0.1588
10016W        W26277   2.991  10.563   2.376 -0.2206 -0.0196  0.0571
10017W        W26278   7.590  12.723  10.639  0.3279 -0.0439 -0.1591
10018W        W26279   9.995   3.870  12.916 -0.0537  0.0185 -0.0888
10019W        W26280   0.086  18.271   1.174 -0.1817  0.2401  0.0700
10020W        W26281   0.684  12.853   2.014  0.2643 -0.3167  0.1364
10021W        W26282  12.926   4.476  13.463  0.1048  0.1324  0.4276
10022W        W26283  16.183  17.738   0.124  0.2574 -0.0548  0.3423
10023W        W26284   9.626  18.952   2.571  0.3204  0.1764  0.2009
10024W        W26285   7.671  15.910  13.540 -0.0682  0.0645 -0.0869
10025W        W26286  12.396  16.761   3.433 -0.0646  0.1167 -0.1584
10026W        W26287   5.549   1.344  12.051 -0.0039  0.0764 -0.0969
10027W        W26288   7.996   9.452   2.320  0.0416  0.0563  0.4302
10028W        W26289   9.396   2.266   1.343 -0.1244  0.0937  0.1239
10029W        W26290  11.468   6.216   2.409  0.2998 -0.0906  0.1947
10030W        W26291   6.944  10.530  11.342 -0.1883  0.0949  0.2983
10031W        W26292   4.816   1.154   1.393  0.0826 -0.2376 -0.0269
10032W        W26293   6.679   9.647  11.128 -0.0026  0.0141  0.0736
10033W        W26294  11.802   6.402  13.674  0.2038  0.1927  0.0158
10034W        W26295   7.439  11.252   3.196  0.1376  0.1406  0.0241
10035W        W26296  13.078   2.917   3.622 -0.1670 -0.1862 -0.1965
10036W        W26297  13.046  18.572  10.696  0.0405 -0.1160 -0.1760
10037W        W26298  11.753  11.801  10.469 -0.0502  0.1415 -0.2240
10038W        W26299   3.866   7.176   0.083  0.0347 -0.2621 -0.1270
10039W        W26300   6.206   9.762  11.486  0.0152  0.1303 -0.1005
10040W        W26301   4.907   7.824  11.700  0.0078 -0.0854 -0.0019
10041W        W26302  10.910  15.889  13.191  0.3433 -0.0886 -0.0675
10042W        W26303   0.912   6.163  13.988 -0.1721  0.1621 -0.1766
10043W        W26304  18.024   6.090   3.651 -0.1299 -0.2765 -0.1463
10044W        W26305   9.572   4.774   0.773  0.1664  0.0126  0.0161
10045W        W26306   2.246  18.469   2.720 -0.1756  0.2235 -0.0221
10046W        W26307  10.897  11.031   0.087 -0.5785 -0.1903  0.4572
10047W        W26308   1.190  14.076  11.485 -0.1211 -0.0190  0.1740
10048W        W26309  11.911  15.283  12.310  0.1969  0.2322 -0.2077
10049W        W26310   1.310   4.691   1.425 -0.0669  0.0154 -0.2282
10050W        W26311   4.984  14.765  13.746  0.0398  0.0886  0.1429
10051W        W26312   5.118  18.325  14.641 -0.2550 -0.0710 -0.2849
10052W        W26313  11.811  11.643  11.749 -0.0954 -0.0552 -0.0640
10053W        W26314   4.893   5.505   3.504  0.0172 -0.6050 -0.0403
10054W        W26315   1.453  17.164  14.341 -0.2105 -0.4203  0.0491
10055W        W26316  18.428   2.328  14.622  0.1768 -0.0416  0.1300
10056W        W26317   1.799  10.640  13.394  0.1790 -0.0112 -0.1088
10057W        W26318  11.160  12.327  10.847 -0.2857  0.1173  0.1100
10058W        W26319   6.565   2.296  13.343 -0.2884  0.2784 -0.0275
10059W        W26320   2.881  15.862   0.950  0.0645 -0.3664 -0.3038
10060W        W26321  13.472  11.277   3.474 -0.0162 -0.2048  0.0882
10061W        W26322   6.771  10.800   3.761  0.2233 -0.0265  0.1020
10062W        W26323   9.730   0.741   0.248  0.0533 -0.2475 -0.0198
10063W        W26324  11.648  11.622  14.572 -0.0169  0.0238 -0.1860
10064W        W26325  15.393   1.433  14.264  0.0733 -0.2982 -0.0572
10065W        W26326   9.944  11.543  13.418  0.0499 -0.2201  0.0438
10066W        W26327  10.214   1.546  13.418 -0.0103  0.1327  0.0200
10067W        W26328   2.194  12.461  11.389 -0.0258 -0.1319  0.0635
10068W        W26329  13.241   2.131  13.938 -0.1278  0.2430  0.4083
10069W        W26330   3.128   3.011  13.299  0.2672 -0.0662  0.3163
10070W        W26331  13.231  13.836   5.125 -0.3939  0.2203 -0.3296
10071W        W26332  16.489   5.794   4.398  0.2717  0.1887 -0.1765
10072W        W26333   3.312  18.459   1.080 -0.2951  0.0744  0.0677
10073W        W26334  14.643   8.704  14.796 -0.2084  0.0010 -0.2944
10074W        W26335  17.683  13.085   0.864 -0.2325 -0.0496  0.0676
10075W        W26336   4.304   9.278   2.158 -0.0042  0.0246 -0.2833
10076W        W26337   1.868   0.167   3.496  0.3721 -0.2884  0.0253
10077W        W26338   4.645  12.113  10.690  0.2096 -0.1895 -0.0849
10078W        W26339   7.808  16.620   2.636 -0.0137 -0.4468 -0.0928
10079W        W26340   5.135  12.844   3.069 -0.1155  0.1448  0.3343
10080W        W26341  12.911  12.794  10.854 -0.2760 -0.1855  0.0259
10081W        W26342  17.564  18.297  11.463 -0.0292 -0.0370 -0.3236
10082W        W26343   9.146   0.448  11.868  0.1972  0.0011  0.0470
10083W        W26344  18.938   6.787   1.855  0.1695  0.0096  0.1342
10084W        W26345  18.740  16.645   0.136 -0.2166 -0.1956  0.0921
10085W        W26346  18.960   6.795   3.702  0.0913  0.2278  0.0470
10086W        W26347   9.680  16.126  11.593  0.2863  0.0862  0.3237
10087W        W26348  18.482  11.447   0.193 -0.0629  0.0825  0.4834
10088W        W26349   6.683  17.027  14.426 -0.0445 -0.0638  0.2105
10089W        W26350  18.718   1.108   5.182 -0.0968 -0.0907 -0.0552
10090W        W26351  18.037  18.867  11.077 -0.2003  0.0594 -0.0820
10091W        W26352   3.741  15.752  11.078  0.0210 -0.0515 -0.1773
10092W        W26353  10.127  11.717  12.948  0.2246  0.2099  0.1582
10093W        W26354  11.822   5.722   3.595 -0.0356 -0.1824  0.2514
10094W        W26355  15.260   7.528  11.569  0.1266 -0.0535 -0.0995
10095W        W26356  17.921   5.921   0.892  0.2619  0.0907 -0.0567
10096W        W26357  17.327  14.874  13.520 -0.1596  0.1514 -0.3324
10097W        W26358  13.078   9.873  12.313  0.0919  0.1165  0.0996
10098W        W26359   3.842   8.861  13.403 -0.0177 -0.0650  0.1050
10099W        W26360  12.912  13.454  14.165  0.0056  0.1932  0.0911
10100W        W26361   5.211  13.341  10.743  0.2775  0.1145 -0.2680
10101W        W26362  17.997   2.608   4.892  0.2797 -0.1653  0.2055
10102W        W26363  14.279  10.707  12.133 -0.0042  0.0444  0.3289
10103W        W26364   0.846  10.156   1.065 -0.3179  0.1615 -0.0525
10104W        W26365  16.536   7.504   3.754 -0.1802 -0.4815 -0.4679
10105W        W26366   1.837   4.702   1.676  0.0427 -0.1871 -0.0233
10106W        W26367   4.796   7.831   4.191 -0.1177  0.0411  0.1848
10107W        W26368  10.445  16.400  11.594  0.2101  0.2674 -0.0871
10108W        W26369  11.144   1.096  14.191 -0.0472  0.0845  0.1268
10109W        W26370   8.999   6.922   3.838 -0.2060 -0.4016 -0.1602
10110W        W26371  17.193  11.390   9.335  0.4059  0.0617 -0.0313
10111W        W26372  10.849   1.448   2.477  0.2053  0.1056 -0.0056
10112W        W26373   8.158  10.086  13.097  0.0364 -0.0679  0.0255
10113W        W26374  11.288   5.305  10.942  0.0218  0.0480 -0.4297
10114W        W26375  10.404   0.182  14.850 -0.3112  0.0784 -0.1080
10115W        W26376   3.229   7.217   2.249  0.0563 -0.4323 -0.0029
10116W        W26377  14.898   4.570  13.294  0.1803  0.2572 -0.4495
10117W        W26378   7.553   7.258  13.437 -0.2387 -0.0192  0.4053
10118W        W26379   3.084   7.948  13.344  0.1259 -0.1119  0.0692
10119W        W26380   3.057  11.768   2.261  0.1687  0.0038  0.0031
10120W        W26381   7.376   0.190  12.720 -0.0731  0.3065  0.2863
10121W        W26382   5.365  15.013   4.486 -0.2017  0.0013  0.0325
10122W        W26383   5.542  13.577   2.264 -0.3009 -0.0008 -0.0911
10123W        W26384  14.132   7.527   0.009 -0.1037  0.4207  0.4307
10124W        W26385  14.946   8.113   0.905 -0.1123  0.1346  0.2897
10125W        W26386  10.352  11.085  14.746 -0.0527 -0.4519 -0.0404
10126W        W26387  16.652  11.498   1.868 -0.1002  0.2281 -0.1278
10127W        W26388  15.564  19.389   2.018  0.1216 -0.1421 -0.0134
10128W        W26389  13.776   3.727   3.501  0.0746 -0.3991 -0.0417
10129W        W26390  17.268   4.899   3.429  0.0270  0.2389 -0.1732
10130W        W26391   8.146   8.820   4.236 -0.0077 -0.0445 -0.1878
10131W        W26392   6.664   8.877   0.694  0.0243  0.0426 -0.0412
10132W        W26393   6.937  11.143  12.695  0.0705  0.2744 -0.2624
10133W        W26394   9.292   5.669   4.772  0.0812 -0.0075  0.4864
10134W        W26395   0.139  15.102  12.725 -0.1346  0.2081 -0.0372
10135W        W26396  13.274   9.547  12.754  0.2821  0.0711 -0.0317
10136W        W26397  10.127  12.519  12.380  0.3097 -0.1595 -0.0757
10137W        W26398   0.179   1.241   4.937  0.3893 -0.1821 -0.0411
10138W        W26399   0.123   7.353   4.425  0.2475  0.0323 -0.3442
10139W        W26400  15.044  18.311  12.251 -0.0061 -0.1157 -0.0466
10140W        W26401  14.969   5.347   4.905 -0.2667 -0.0648  0.3138
10141W        W26402  15.135  10.989   1.301  0.4252  0.4940 -0.3105
10142W        W26403   9.483   3.973  11.483  0.0179  0.0091 -0.0630
10143W        W26404  14.721  19.103   0.115  0.1491 -0.1719 -0.0025
10144W        W26405   4.678  12.602  10.418 -0.0378  0.1576 -0.0258
10145W        W26406   3.587  14.713   2.321  0.0322 -0.0877  0.1884
10146W        W26407  12.437  11.797   3.503 -0.0076 -0.3231  0.1648
10147W        W26408   7.011   4.876  14.709  0.0740 -0.2372 -0.2705
10148W        W26409   2.231   1.289  10.426  0.1278  0.1765 -0.0060
10149W        W26410  12.446  18.961  14.441 -0.1062 -0.1347 -0.0392
10150W        W26411   9.441   1.072   3.948  0.2070  0.0242 -0.0752
10151W        W26412   8.280   7.192  12.008  0.0705 -0.0186 -0.0820
10152W        W26413   6.384   9.085   0.996 -0.0421 -0.0667 -0.2297
10153W        W26414  18.050   2.101   2.423 -0.0247 -0.2217 -0.1011
10154W        W26415  19.231  16.039   3.687 -0.2283  0.2742 -0.1082
10155W        W26416  11.396   9.536  14.631 -0.1240  0.2321 -0.0969
10156W        W26417   1.724  15.238   3.134 -0.2613 -0.0921  0.0077
10157W        W26418   2.982  11.876   4.118  0.1159  0.1114 -0.0788
10158W        W26419   7.280   5.710   2.120  0.1989  0.0241  0.2003
10159W        W26420  15.969   6.260   3.815 -0.0172  0.0800  0.1278
10160W        W26421   2.174   9.795  13.138 -0.2108 -0.0874 -0.0318
10161W        W26422   1.159  13.369   4.565  0.1691  0.2077 -0.2583
10162W        W26423   9.529  17.694   0.692 -0.5049 -0.1105 -0.0583
10163W        W26424  17.813  18.016   4.660  0.3243  0.1027 -0.1544
10164W        W26425  15.410  15.509  13.143  0.1068 -0.1986 -0.2067
10165W        W26426   6.914   4.814   0.685 -0.0407  0.1653 -0.2049
10166W        W26427   0.793   9.673   2.847  0.0241 -0.4049  0.1795
10167W        W26428   5.800  17.737   4.920  0.0287 -0.0152 -0.0346
10168W        W26429   5.422  11.990  13.438 -0.1044  0.0789  0.0615
10169W        W26430  12.748  19.430   0.925 -0.0573 -0.1639 -0.0024
10170W        W26431   9.579   8.875   4.692 -0.0188  0.0796  0.0636
10171W        W26432  16.550   8.485   5.033 -0.1265  0.0190  0.2410
10172W        W26433  17.420   5.813   0.743  0.3946 -0.0069 -0.1167
10173W        W26434  13.042   6.055  12.271 -0.0458 -0.1397 -0.1755
10174W        W26435  18.404  13.794  14.425 -0.0678 -0.2110  0.0555
10175W        W26436   3.856   7.365  10.774 -0.2292  0.2655 -0.2366
10176W        W26437   4.199   4.074  14.470  0.1313  0.1594 -0.2609
10177W        W26438   3.994  15.542  14.385 -0.2187  0.3304  0.1854
10178W        W26439   7.010   5.168  10.668  0.0405 -0.0466  0.3159
10179W        W26440  12.808   4.647  10.686  0.3712  0.3411 -0.2237
10180W        W26441  15.562  12.369   1.093  0.0054  0.1768  0.1459
10181W        W26442  17.031  13.312  11.580  0.0089  0.2353 -0.2586
10182W        W26443  18.284   7.356   0.171  0.2057  0.1030  0.3162
10183W        W26444  18.009   4.189   2.180  0.3763  0.2819 -0.0871
10184W        W26445  17.904   5.581   3.441 -0.2083  0.0170  0.2146
10185W        W26446   5.710  16.080  12.774  0.0620  0.1636  0.2603
10186W        W26447   1.402  13.602  10.282  0.1811  0.0575 -0.2070
10187W        W26448   8.240   2.451   2.872  0.1783 -0.0771 -0.1310
10188W        W26449   5.417  11.649   4.813 -0.1324 -0.0859 -0.0528
10189W        W26450  16.403  11.029  11.162  0.0695  0.4738 -0.0852
10190W        W26451   8.805   3.200   3.204 -0.0369 -0.0161 -0.1576
10191W        W26452   9.309   6.346  12.057 -0.0159  0.0208  0.5165
10192W        W26453   5.558   5.203  11.366 -0.0103 -0.0250 -0.1649
10193W        W26454  10.277   3.258   9.919  0.0222 -0.2401  0.4028
10194W        W26455  16.107   8.773   4.110 -0.0802  0.4652 -0.0516
10195W        W26456  14.931  10.138  12.662 -0.1770 -0.0111  0.1356
10196W        W26457   2.642   7.933   4.224  0.1866  0.0617  0.1736
10197W        W26458   3.774  11.471   2.798 -0.0695 -0.2538  0.0586
10198W        W26459  14.489  11.740  11.107 -0.1763  0.3099  0.3216
10199W        W26460  19.019  14.432   4.556  0.1915 -0.0348 -0.2681
10200W        W26461   8.744   2.142   1.165  0.0492 -0.0339 -0.3319
10201W        W26462   8.650   4.090   0.763  0.1187 -0.2153  0.1316
10202W        W26463   5.442  18.721  14.556  0.3067  0.0152  0.0397
10203W        W26464  12.508  12.281  12.197 -0.1263  0.3483  0.0115
10204W        W26465  10.766   7.836  12.837 -0.0581 -0.0406  0.1332
10205W        W26466  11.431   2.256  13.500  0.2934  0.2107 -0.4897
10206W        W26467  15.923   9.835   1.931  0.0952 -0.1485 -0.3903
10207W        W26468  11.971   6.232   1.682 -0.1400 -0.3153  0.0577
10208W        W26469   9.526  15.491  13.108  0.1550  0.2644 -0.1352
10209W        W26470  18.309  16.273   1.672  0.0568  0.3011 -0.0276
10210W        W26471  12.419  13.486  14.455 -0.1851 -0.0149 -0.0241
10211W        W26472   1.363  10.492   2.137  0.1872  0.0653 -0.1807
10212W        W26473  17.902   7.786  11.924  0.0090 -0.0480 -0.0529
10213W        W26474   6.958   2.649   5.506 -0.0111  0.1053 -0.1497
10214W        W26475   1.822  17.207  10.964 -0.0777 -0.5293  0.3166
10215W        W26476  16.004   3.430   1.582 -0.1668 -0.0155  0.2086
10216W        W26477   1.589  15.063  13.809  0.2697  0.3820 -0.1279
10217W        W26478   0.811   9.397  11.947 -0.0123 -0.1066 -0.6251
10218W        W26479   2.157   0.311  13.470  0.2651 -0.2410  0.2619
10219W        W26480  12.171   5.962  13.625  0.0527 -0.0249  0.2044
10220W        W26481  16.299  18.747  13.558  0.0285  0.0669  0.0883
10221W        W26482  18.156   7.740  14.643 -0.0039  0.0904 -0.1858
10222W        W26483   7.719   6.010   1.884 -0.0091 -0.0396  0.1762
10223W        W26484  18.193  15.935   0.560  0.0422  0.0457  0.0869
10224W        W26485   5.911  18.591  14.112 -0.0028  0.0403 -0.2693
10225W        W26486  18.519   1.575  12.683  0.2116 -0.3189  0.5741
10226W        W26487  14.188   2.081   1.287  0.0349  0.0567 -0.0358
10227W        W26488  14.801   1.588  12.218  0.1604 -0.3766  0.1164
10228W        W26489  18.643   3.693   3.625  0.3083  0.0719  0.1298
10229W        W26490  15.741  12.339   0.622  0.1172 -0.0764  0.3543
10230W        W26491   6.403   1.572   1.110  0.3094  0.3082 -0.2565
10231W        W26492   4.976  12.143   1.887  0.2142 -0.0439 -0.2694
10232W        W26493   5.118   1.943   1.823  0.1184 -0.1390  0.0491
10233W        W26494  18.763   2.797   4.312 -0.2255 -0.0312  0.0219
10234W        W26495  17.680  10.664  11.284 -0.3125 -0.0651  0.2860
10235W        W26496  16.436  16.153   4.129 -0.1075 -0.0832  0.0289
10236W        W26497  15.968  16.857  10.386 -0.1618  0.2942  0.0920
10237W        W26498  19.168  10.365  13.577  0.1286 -0.3341 -0.1643
10238W        W26499   9.557  17.603  10.396  0.0730  0.2733  0.0327
10239W        W26500   3.942   4.255  12.942  0.0429  0.0623  0.2334
10240W        W26501  14.684  15.658   0.631  0.3118 -0.0096 -0.1774
10241W        W26502   0.882   8.211  10.668 -0.1237  0.2452 -0.0314
10242W        W26503  18.951  15.951  13.026  0.0472 -0.1082 -0.1101
10243W        W26504  12.704   1.139   2.629 -0.1978  0.3096  0.3430
10244W        W26505  15.121   2.502   5.061 -0.0585  0.3106 -0.3258
10245W        W26506  10.811  18.874   3.895 -0.1274 -0.1039  0.0710
10246W        W26507   7.431   5.298  11.502  0.3200 -0.0136  0.3357
10247W        W26508   3.258  13.975  14.429  0.2845  0.0451 -0.1448
10248W        W26509  14.023  10.922  10.219  0.0531 -0.1630 -0.1218
10249W        W26510  10.661  19.198  12.166  0.0360  0.1053 -0.0643
10250W        W26511   8.389  19.302  13.054 -0.0010  0.0855  0.3722
10251W        W26512  18.944  10.264   4.945 -0.0285  0.1253  0.2136
10252W        W26513   8.324   2.767  14.704 -0.0355 -0.1395  0.2450
10253W        W26514   6.977  12.786   2.910 -0.2267 -0.1950  0.1982
10254W        W26515   4.150   5.867  11.047 -0.2122 -0.0212  0.0878
10255W        W26516  19.448   5.926   4.219 -0.1155  0.2182 -0.0475
10256W        W26517   9.218  15.476  12.084 -0.1809  0.0726  0.0902
10257W        W26518  16.998  18.736   2.193  0.1878  0.3729 -0.2156
10258W        W26519  13.490   0.937  10.860  0.2261 -0.1560 -0.0083
10259W        W26520   1.269   9.450  12.586 -0.1491  0.1778  0.1405
10260W        W26521  18.460   5.952   4.735  0.1278  0.0981 -0.0895
10261W        W26522  12.613   7.165  10.567  0.3465  0.0583  0.0784
10262W        W26523   4.080  14.199  13.855 -0.0575 -0.4579  0.0146
10263W        W26524  15.199  15.607  10.602  0.0170 -0.1580  0.1063
10264W        W26525   5.956  15.788  13.677  0.0432 -0.1082  0.0261
10265W        W26526  10.394   2.035  13.552 -0.0040 -0.0437  0.0257
10266W        W26527  11.983   2.489  11.335  0.1888 -0.2471  0.0441
10267W        W26528  19.391   7.501   3.051 -0.2237 -0.0425 -0.5042
10268W        W26529  19.238   4.124  12.155 -0.1189  0.0931 -0.0997
10269W        W26530   1.197  18.768   5.541  0.0067  0.2043 -0.1834
10270W        W26531  10.003  12.626  10.437 -0.3887  0.1217 -0.0914
10271W        W26532  14.951  17.065  12.312 -0.1448  0.2670  0.1440
10272W        W26533   3.122  15.699   4.115 -0.0061  0.1245 -0.0353
10273W        W26534   5.711  18.477   3.395 -0.0858 -0.3823 -0.0097
10274W        W26535  13.546  12.331   2.674  0.4737 -0.0854 -0.2990
10275W        W26536   0.608  10.400   4.690 -0.2322  0.3396  0.0669
10276W        W26537  11.283   7.489  12.943 -0.1123  0.4073 -0.0518
10277W        W26538  16.923  18.308  11.510  0.2989  0.1161  0.1292
10278W        W26539  13.994   3.065  13.422  0.3184 -0.3087 -0.2150
10279W        W26540   1.120   3.267  14.257  0.1624  0.0651 -0.1401
10280W        W26541   6.528   3.350  13.073  0.0170  0.0916  0.1425
10281W        W26542  13.804   0.659   3.255 -0.1250 -0.0393  0.1525
10282W        W26543   2.308   5.841   1.730 -0.0985  0.0999 -0.1650
10283W        W26544  16.596   5.612  14.461 -0.0931  0.0414  0.1123
10284W        W26545  16.253   6.534  14.472 -0.0522  0.1362 -0.3764
10285W        W26546   1.926   8.561  10.086  0.1472 -0.1240  0.2133
10286W        W26547   3.887  17.649  12.187  0.4510  0.0724 -0.1873
10287W        W26548   9.182   7.046  11.443 -0.3289  0.0476 -0.1247
10288W        W26549   2.653   4.758   2.718  0.2247 -0.0764  0.1749
10289W        W26550  13.586  17.034  13.425  0.3106 -0.3640  0.0096
10290W        W26551  15.961  13.951  12.028 -0.0030  0.2613 -0.3204
10291W        W26552  16.408   6.120   0.261  0.0956  0.1085  0.2280
10292W        W26553  11.037  16.294  11.549  0.3083  0.0857 -0.1086
10293W        W26554   1.215  15.668   0.667  0.1493 -0.0635 -0.2132
10294W        W26555  13.415   7.053  13.682  0.1796 -0.0626 -0.3793
10295W        W26556   2.713   5.109   0.872 -0.0608  0.2949  0.4481
10296W        W26557  13.254   6.803  11.085 -0.0367 -0.3036  0.1209
10297W        W26558   6.462   4.796   3.257 -0.1351 -0.3668  0.2217
10298W        W26559   5.030  14.891   3.998 -0.1031 -0.1089  0.3425
10299W        W26560   1.772  19.373   4.860 -0.2767  0.0611 -0.3201
10300W        W26561  16.428  16.278   0.191 -0.1186 -0.2059  0.2062
10301W        W26562   6.371  17.193  13.978 -0.2252 -0.1120  0.0801
10302W        W26563  18.033   5.434  14.731 -0.1320 -0.3830 -0.1237
10303W        W26564  15.423   3.652   2.267 -0.1183 -0.2464 -0.1435
10304W        W26565  12.582  13.868  14.153  0.0076  0.0973  0.3705
10305W        W26566   0.202  17.839   4.563  0.0968 -0.0408  0.4458
10306W        W26567  13.809  19.410  13.629  0.1815  0.0827  0.2320
10307W        W26568  12.039   3.475  12.794  0.2337  0.6683  0.2825
10308W        W26569  11.960  11.232   0.805  0.2021 -0.1934  0.0810
10309W        W26570   2.232  10.122  14.240  0.1842  0.3040  0.1525
10310W        W26571   5.976   4.548  12.956  0.0938 -0.0083 -0.0227
10311W        W26572   2.639   9.620   2.191 -0.0354  0.3189  0.0993
10312W        W26573   9.035   5.665  14.744 -0.0439  0.1975 -0.0511
10313W        W26574  13.959  18.720   1.581 -0.1506 -0.2426 -0.1351
10314W        W26575   4.601   8.132  10.957 -0.3693 -0.0496  0.1436
10315W        W26576  12.746   1.506  14.854 -0.2585 -0.1291  0.1542
10316W        W26577  16.309  17.729  12.502  0.2659 -0.0546  0.1108
10317W        W26578   8.913   2.308  12.615 -0.1292  0.1463  0.1472
10318W        W26579   0.534   6.414   1.882  0.0004  0.1985  0.2654
10319W        W26580   4.787  11.002  11.623  0.0426 -0.1014 -0.1019
10320W        W26581  19.333  12.161   1.421  0.3113 -0.1602 -0.0399
10321W        W26582  18.958  17.685  12.827 -0.1882 -0.0893  0.1326
10322W        W26583   5.438  18.920  12.107  0.1557  0.0028  0.0283
10323W        W26584  15.478  15.196   0.830  0.1151  0.1415 -0.1367
10324W        W26585  18.478  10.720  14.442  0.1617 -0.1233 -0.3487
10325W        W26586   9.274   4.262  13.612  0.1641 -0.0286 -0.3935
10326W        W26587   3.691   6.336   5.966 -0.0209 -0.2369 -0.1301
10327W        W26588   4.300   9.191  13.148  0.0925 -0.0031 -0.2038
10328W        W26589   1.482   9.777   1.642  0.2141  0.3844  0.2281
10329W        W26590   7.727   3.831   1.273  0.1856 -0.1506 -0.1254
10330W        W26591   5.697   0.232  12.304  0.1653 -0.0243 -0.1634
10331W        W26592  17.021   3.488   4.700 -0.1210 -0.2870 -0.0466
10332W        W26593   8.924   0.857   4.682 -0.3388 -0.0298 -0.3135
10333W        W26594  12.988   2.423  12.511  0.1548 -0.4325  0.0661
10334W        W26595   2.808  18.231   4.028 -0.1021  0.2011 -0.0196
10335W        W26596   8.097   2.100   5.659 -0.4566 -0.2043  0.4566
10336W        W26597  17.655  16.419  13.625  0.0120 -0.3646  0.0735
10337W        W26598   3.053   0.949   1.575 -0.1508  0.0109 -0.1520
10338W        W26599   5.301  15.988   2.457 -0.0192  0.2211  0.2132
10339W        W26600  16.692  10.832  14.850  0.0198 -0.1283  0.0774
10340W        W26601  17.617   0.014  12.757 -0.0772  0.0670 -0.1360
10341W        W26602  14.249   4.632   5.081 -0.2590  0.1608  0.0672
10342W        W26603   3.102   1.329  13.870  0.0469  0.0611  0.2339
10343W        W26604  17.714  16.759  11.886  0.1066  0.0193 -0.3194
10344W        W26605   0.515   5.240   1.216 -0.2187  0.0664  0.0702
10345W        W26606  18.092  17.966   2.595 -0.1957  0.3648 -0.0908
10346W        W26607  11.954  15.790   5.077  0.0625  0.2041  0.0091
10347W        W26608  18.095  19.286   3.493  0.2507  0.1895  0.2934
10348W        W26609  15.747   4.696   2.666 -0.1711  0.5671  0.1449
10349W        W26610  16.381  17.130  10.436  0.2286 -0.2288 -0.0568
10350W        W26611   5.687   6.370  11.814  0.0317  0.2484 -0.1252
10351W        W26612  16.506  10.771   1.259 -0.1568  0.4078  0.4721
10352W        W26613  15.058   9.857  11.697 -0.1074  0.1000  0.1514
10353W        W26614  10.261  14.693  10.878  0.3992 -0.4518 -0.1820
10354W        W26615  15.485  10.499  12.350  0.0652  0.0892  0.0303
10355W        W26616  16.600  17.672  12.066  0.2237  0.1774 -0.0727
10356W        W26617  12.126   1.532  13.631  0.1474 -0.1463 -0.0733
10357W        W26618   0.699  18.689  14.751 -0.1952  0.0452 -0.0915
10358W        W26619  13.453   3.929   5.234  0.3359 -0.1875  0.0040
10359W        W26620  15.068  18.292  14.663 -0.2310  0.1766 -0.2339
10360W        W26621  14.705   3.218  12.624 -0.1883  0.2718  0.0651
10361W        W26622   9.590  11.063  13.864  0.1521 -0.0976  0.1103
10362W        W26623   8.889  16.426  12.294 -0.1643  0.1542  0.0511
10363W        W26624  12.673   7.888   0.538 -0.1955 -0.2340  0.0809
10364W        W26625  13.808  19.431   2.439 -0.1013  0.0475  0.0272
10365W        W26626   2.054  19.247  14.366 -0.2001  0.0477 -0.0601
10366W        W26627  11.122   4.076   0.207 -0.3819 -0.0014 -0.0092
10367W        W26628   9.090  15.504  12.712 -0.2052  0.2464 -0.1339
10368W        W26629   9.529   0.050   3.756 -0.0367 -0.3012  0.0419
10369W        W26630   9.408   5.772   3.903 -0.0055 -0.1453  0.5269
10370W        W26631   3.618   9.286  13.091  0.0515 -0.2907 -0.4174
10371W        W26632   2.724  19.173  13.707  0.0079 -0.1119 -0.2030
10372W        W26633   7.332  18.445   2.735 -0.0307 -0.0732 -0.0925
10373W        W26634  16.092  12.376  10.402  0.0365  0.3538 -0.1466
10374W        W26635  11.378  13.294  10.802 -0.1435  0.1475 -0.0804
10375W        W26636  14.980  13.811  13.525  0.0940  0.0133  0.0387
10376W        W26637   9.561  16.141   3.887 -0.4208  0.0844  0.1023
10377W        W26638   7.221  13.825  13.947 -0.1614 -0.2372  0.2737
10378W        W26639  17.966   3.498  13.603  0.0950 -0.1149  0.3204
10379W        W26640   3.380   6.240  10.984 -0.0459 -0.2760 -0.0171
10380W        W26641   2.634  18.810  11.847 -0.1674  0.7612 -0.3783
10381W        W26642   8.519  10.388   3.732  0.3326 -0.1083  0.3110
10382W        W26643  17.540  14.992  13.963  0.3777 -0.2112  0.0965
10383W        W26644  19.072   5.647  10.066 -0.0947  0.3143  0.0643
10384W        W26645  16.146   1.674  13.020 -0.1319  0.0713  0.1563
10385W        W26646  14.634   1.939   3.844 -0.4218 -0.1667 -0.1931
10386W        W26647   5.208  18.983   2.020  0.1440  0.0954  0.1602
10387W        W26648  10.753  18.706   2.289 -0.0714 -0.2857  0.1491
10388W        W26649   5.241  12.469  13.474  0.3261 -0.2590  0.0534
10389W        W26650  12.287   2.952  12.243  0.0300 -0.2157  0.0744
10390W        W26651  14.475  12.664  13.344 -0.1327 -0.1896  0.0230
10391W        W26652   0.288  13.449   4.589 -0.1116 -0.1244 -0.0904
10392W        W26653  18.301   8.343  13.908  0.0237  0.0650 -0.0119
10393W        W26654   7.928   5.334   9.480  0.0703 -0.0191  0.0616
10394W        W26655   9.175  15.283   1.376 -0.0507  0.1664  0.2721
10395W        W26656   0.872   7.595   3.334 -0.1812 -0.1342  0.2465
10396W        W26657  17.582   4.238   4.209  0.0484  0.0542  0.0942
10397W        W26658  17.246  13.026  10.793 -0.3430 -0.2124  0.1109
10398W        W26659  13.905  18.531   4.078  0.4559 -0.0850  0.0416
10399W        W26660   0.370   2.818   0.104  0.1301 -0.0506 -0.1699
10400W        W26661  14.159   1.535  12.876 -0.0012  0.0323  0.1942
10401W        W26662  10.135  11.282   3.332  0.1599 -0.0339 -0.1561
10402W        W26663   3.061   0.948  11.350  0.0162 -0.2309 -0.0905
10403W        W26664   0.267  18.186  11.959 -0.2704  0.1384  0.3717
10404W        W26665  14.702   0.878  14.596  0.1664 -0.1102 -0.0942
10405W        W26666   1.971   8.571  14.365  0.2486 -0.0517  0.0163
10406W        W26667  17.499   4.655   3.810 -0.3877 -0.2047  0.2590
10407W        W26668  16.463   6.237  10.199 -0.0170 -0.1992 -0.1048
10408W        W26669  18.201   7.841   3.262  0.0726 -0.2070  0.1812
10409W        W26670  14.439  17.947   4.430  0.1220 -0.0993  0.1092
10410W        W26671  18.075  16.653  13.769 -0.0647  0.0710 -0.0541
10411W        W26672  13.345   5.826  13.128 -0.0219 -0.0898  0.0080
10412W        W26673   2.251  17.026  12.564  0.2314  0.1226 -0.1146
10413W        W26674  12.207  18.022   9.700  0.2574  0.2243  0.2593
10414W        W26675  18.150  12.748  12.096  0.1781 -0.1392  0.2221
10415W        W26676  18.750   6.917  14.358  0.3347 -0.0391  0.0822
10416W        W26677  11.950   4.879  14.324 -0.0244  0.2533  0.2719
10417W        W26678  19.417  13.999  12.512 -0.0976  0.2882 -0.0773
10418W        W26679   3.699   1.595  11.181  0.0399 -0.0435  0.1478
10419W        W26680  16.676   9.274  10.351  0.0485 -0.1053  0.1723
10420W        W26681   4.904   4.157   0.421  0.1284  0.0466  0.0949
10421W        W26682   1.311  10.270   3.019  0.2591 -0.0633 -0.0012
10422W        W26683  11.197  19.139  13.768  0.1687 -0.0742 -0.3476
10423W        W26684   1.642  13.423  12.335  0.2085  0.0179  0.6213
10424W        W26685  12.616  16.566   2.965 -0.2250 -0.0019  0.0224
10425W        W26686   8.130   6.964   0.687  0.0743  0.0894  0.1703
10426W        W26687   5.347   1.155   0.105  0.2101  0.1849 -0.2419
10427W        W26688   5.854   1.820  11.083 -0.2450  0.1549  0.1485
10428W        W26689  18.835  15.402   5.404  0.2025 -0.0997 -0.1973
10429W        W26690   8.993  17.352  12.023  0.1323 -0.1468  0.0224
10430W        W26691   8.624   3.484  12.548 -0.1804  0.1410  0.1943
10431W        W26692  17.342  13.848   3.212  0.3152  0.0478  0.0111
10432W        W26693  17.902   8.198  14.615 -0.1601  0.0449 -0.1105
10433W        W26694  16.328  15.481   9.582  0.2080  0.3743 -0.2425
10434W        W26695   0.766   0.963   0.573 -0.0875  0.0430 -0.1159
10435W        W26696  12.577  11.552  14.738 -0.3235 -0.0078 -0.1055
10436W        W26697   9.813   1.223  11.556  0.0607 -0.3593 -0.1479
10437W        W26698   6.192  19.003  11.363 -0.0449  0.0880 -0.1594
10438W        W26699  15.083  15.969   3.862  0.0737  0.3619  0.3275
10439W        W26700  18.894  14.477   0.415  0.0494  0.3525 -0.2723
10440W        W26701  18.745   7.674  12.221  0.0244 -0.0614  0.1024
10441W        W26702  17.445  10.877   3.672  0.1247 -0.0644  0.1564
10442W        W26703  16.602   8.282  13.000  0.0361 -0.0345  0.2091
10443W        W26704  15.337  11.121  11.997 -0.1141  0.1044  0.0045
10444W        W26705  12.894  13.305  13.126 -0.5143 -0.2843  0.0166
10445W        W26706   7.524   0.947  12.954 -0.2031 -0.0788 -0.2405
10446W        W26707  17.446  18.984  14.379  0.1067  0.4872  0.2174
10447W        W26708   8.718   9.548  12.526  0.2082 -0.3188 -0.0708
10448W        W26709  16.231   6.129  11.459  0.1689  0.2136 -0.0770
10449W        W26710  11.180   7.386   5.012 -0.1682  0.0720 -0.1589
10450W        W26711  10.159  11.903   3.657 -0.2121 -0.1595 -0.1511
10451W        W26712  14.808  19.170  13.250 -0.0196 -0.3997 -0.1712
10452W        W26713  14.491   9.306   9.451 -0.0673  0.1139 -0.1975
10453W        W26714   6.582  10.804   2.604 -0.1113 -0.3352 -0.3119
10454W        W26715  12.619   1.519   2.348 -0.0612  0.4654 -0.0009
10455W        W26716  14.116  11.147  14.167 -0.2554 -0.2083 -0.0555
10456W        W26717   8.963   5.261  12.671 -0.1873 -0.2015  0.0428
10457W        W26718   0.591   8.764   1.065  0.1008 -0.0218 -0.2838
10458W        W26719  18.608  17.861   4.464 -0.1603  0.0215 -0.1359
10459W        W26720   2.047   9.353   4.775 -0.0254 -0.0828  0.0523
10460W        W26721  12.675  11.972  13.832 -0.0290 -0.1161  0.1371
10461W        W26722  14.789  18.538   0.859 -0.2862 -0.1468 -0.4609
10462W        W26723   9.604   3.487  13.644 -0.1888 -0.0966 -0.0086
10463W        W26724  19.119   5.888   5.474  0.0883  0.0494 -0.1031
10464W        W26725  10.893  11.926   3.573  0.0864  0.1887 -0.0804
10465W        W26726  12.568   8.869   2.427  0.1145  0.2103 -0.2483
10466W        W26727   0.727   1.587  13.701  0.2501  0.0768  0.0389
10467W        W26728   4.107   0.198  11.050 -0.1534  0.1002 -0.1149
10468W        W26729   2.004   8.836  12.287  0.0438  0.1298 -0.2113
10469W        W26730   2.343  16.028   0.925 -0.0813 -0.2158 -0.0919
10470W        W26731  18.481  11.976  10.750 -0.5229  0.0447  0.0584
10471W        W26732   5.323   7.761   3.257 -0.0579  0.3213 -0.3700
10472W        W26733  19.327   5.771   4.905 -0.1464 -0.3599 -0.2863
10473W        W26734  10.110  17.475  13.236  0.2887  0.0193 -0.1095
10474W        W26735   8.971  12.847  10.727  0.3235  0.0418 -0.1156
10475W        W26736   3.017  16.064   4.701 -0.0200  0.2339 -0.1154
10476W        W26737  13.449   7.018   4.966  0.2092  0.2938  0.0973
10477W        W26738  13.966   8.857   2.072  0.0033  0.4212  0.0728
10478W        W26739   6.595   8.514   0.235 -0.1811  0.1594 -0.3229
10479W        W26740  18.660   5.460   0.547  0.3815  0.0695 -0.1239
10480W        W26741   8.141  11.483  10.128 -0.1215  0.1914 -0.1047
10481W        W26742  12.031   3.699  12.318  0.0787  0.3730 -0.1190
10482W        W26743   7.304   9.253   4.784 -0.0970 -0.2652  0.0700
10483W        W26744   2.519   6.864  11.185 -0.0222  0.1398  0.2641
10484W        W26745  18.611  16.383  14.024  0.1087 -0.1243 -0.0170
10485W        W26746  18.942  14.899  13.514 -0.1848  0.1357 -0.0437
10486W        W26747  17.070   4.025   1.882 -0.1911 -0.3525 -0.1471
10487W        W26748   2.651  17.028   3.200  0.0259 -0.1219 -0.0006
10488W        W26749  15.086   1.860   4.809 -0.0054 -0.1468  0.0834
10489W        W26750  16.395  19.232   2.340  0.0015  0.1392 -0.3412
10490W        W26751  14.186   9.131   5.062  0.1411  0.2822  0.0732
10491W        W26752   8.306  10.709  10.916  0.2282 -0.2463  0.4050
10492W        W26753  11.117   6.493  12.939  0.1198 -0.4115  0.1495
10493W        W26754  11.039   7.379   1.695  0.2010  0.0865  0.1358
10494W        W26755   1.495   5.749   3.442 -0.3583 -0.2136 -0.3794
10495W        W26756  16.712   0.644   1.208 -0.0357  0.1376  0.0737
10496W        W26757   3.935  11.725   9.719  0.1750 -0.0684 -0.2009
10497W        W26758  18.066  13.650  11.355 -0.1997 -0.2002  0.0633
10498W        W26759   2.502   4.309  12.298  0.0033 -0.1233 -0.2816
10499W        W26760   7.223   2.630  12.673 -0.5612 -0.3258  0.2538
10500W        W26761   5.494   9.640  12.013 -0.0706 -0.0878 -0.1295
10501W        W26762   4.650  18.363  14.743 -0.2320  0.3012  0.0758
10502W        W26763   5.787  14.146  13.779  0.0044 -0.0015  0.0060
10503W        W26764  15.369   6.111   1.481 -0.2028 -0.0053 -0.1130
10504W        W26765  19.358  15.798   4.992  0.1563 -0.1236 -0.0770
10505W        W26766  10.747   5.473   5.145 -0.0930  0.0338 -0.1389
10506W        W26767  17.298  16.541  12.207  0.0867  0.0412  0.0074
10507W        W26768  17.819   4.204  14.737 -0.2311  0.1519  0.2573
10508W        W26769   4.553   9.216   1.194 -0.0958  0.0031 -0.2116
10509W        W26770   0.300  14.309  10.510 -0.2337  0.1170 -0.1899
10510W        W26771   0.046   0.127  13.091 -0.2414 -0.0490 -0.0056
10511W        W26772   6.761  14.694   0.464 -0.2660  0.0035 -0.1238
10512W        W26773  14.916  11.339  14.753  0.1038 -0.0425 -0.2449
10513W        W26774   3.609   7.713  14.334  0.1070 -0.0736  0.1315
10514W        W26775   0.936   6.657   1.753  0.0244 -0.1811  0.2345
10515W        W26776   8.829  10.305  13.449  0.1031 -0.0665 -0.1539
10516W        W26777   0.107  16.991   4.364 -0.0649 -0.0462 -0.0680
10517W        W26778   4.995  13.456   1.446 -0.1943  0.0372 -0.0618
10518W        W26779   9.828  10.478  14.371 -0.0090  0.0102 -0.3112
10519W        W26780  14.278  15.208  13.320 -0.3704 -0.3487  0.0453
10520W        W26781   9.223   1.406  14.020  0.0638  0.1162  0.0732
10521W        W26782   2.236   3.575   4.591 -0.0740  0.0832  0.0327
10522W        W26783  11.005  18.416  11.323  0.1713 -0.1531  0.4190
10523W        W26784  13.961  11.644   4.732  0.0160 -0.1173 -0.2207
10524W        W26785  10.835  18.908  11.160 -0.0909 -0.0041 -0.4374
10525W        W26786   8.779  10.934  12.276 -0.1689  0.0168  0.2807
10526W        W26787   9.765   5.268  12.158 -0.0495 -0.0159 -0.0570
10527W        W26788  11.125  12.779   2.112 -0.0295 -0.3708  0.2086
10528W        W26789   8.991  13.343  11.195  0.2095 -0.2017  0.3327
10529W        W26790  14.427  14.928  13.874 -0.0494  0.2746 -0.1067
10530W        W26791  13.818  18.406  14.532 -0.0408 -0.0330  0.2503
10531W        W26792   9.168  10.934   0.662  0.0826  0.4315  0.0537
10532W        W26793   9.600   8.665  13.649 -0.2659 -0.2802  0.1907
10533W        W26794   2.009  11.723  12.160  0.0893  0.1333  0.2933
10534W        W26795   9.445   3.581  13.190 -0.1737  0.1566 -0.3240
10535W        W26796   8.692  15.004  13.306  0.0211 -0.0843  0.0041
10536W        W26797  12.135   6.824   1.098 -0.1056  0.1281 -0.0180
10537W        W26798  12.629   9.008  10.462 -0.6203  0.4641 -0.1572
10538W        W26799   9.470  10.801  14.260  0.4795  0.2090  0.1352
10539W        W26800   1.833  15.932   0.130  0.0558  0.0869  0.3145
10540W        W26801  15.734   2.676   1.550  0.1133 -0.1589  0.1671
10541W        W26802   8.270  14.949   1.668  0.0788  0.1212 -0.2406
10542W        W26803  18.141   2.044   4.370  0.3735 -0.2307  0.3035
10543W        W26804  10.507  12.378   4.274 -0.0754  0.0391 -0.0395
10544W        W26805   3.257   6.533   2.222  0.3679  0.0344  0.1665
10545W        W26806   3.230   7.428  11.454 -0.2175  0.1065 -0.0678
10546W        W26807   3.265  14.075  11.360 -0.4046  0.1277 -0.4455
10547W        W26808  16.882   6.032   4.104  0.0594  0.0530  0.0630
10548W        W26809  10.710   9.257  12.472 -0.0616  0.0488 -0.2494
10549W        W26810  14.474   5.068  13.092  0.0544  0.1870 -0.0888
10550W        W26811  15.027  10.011   3.809 -0.0021  0.0521 -0.1664
10551W        W26812   7.608   3.006  11.701 -0.2097 -0.4734  0.0058
10552W        W26813   6.119   0.459   3.086  0.1330 -0.2326  0.0139
10553W        W26814   3.305   3.648  14.766  0.0820  0.2981  0.1153
10554W        W26815  18.007   9.627   3.578 -0.2821  0.0809 -0.0545
10555W        W26816   0.156   0.898  11.895  0.0233 -0.3026  0.0443
10556W        W26817   1.321  17.346   5.687 -0.0476  0.1838 -0.1183
10557W        W26818  17.457   7.231   3.502 -0.0337  0.2921 -0.0719
10558W        W26819  10.376   1.120  14.310  0.0892 -0.3842  0.0004
10559W        W26820   8.951   5.186  13.598  0.2444 -0.2358  0.1103
10560W        W26821  18.338  15.818   4.503 -0.2457 -0.0686 -0.2712
10561W        W26822  16.603   2.671   0.527 -0.0103  0.1553 -0.1046
10562W        W26823  10.470   2.580  13.646 -0.3221 -0.1921 -0.0523
10563W        W26824  17.257  11.454  11.612 -0.1480  0.0563  0.1483
10564W        W26825   0.653  16.877   1.333 -0.2066 -0.1115 -0.2369
10565W        W26826   0.192  11.980  13.242 -0.0059  0.2489  0.1587
10566W        W26827  10.711  16.569  11.234 -0.2454 -0.1660 -0.1444
10567W        W26828   4.830   4.794  11.153  0.2043  0.1026 -0.1822
10568W        W26829  13.149  16.919  13.566 -0.1042 -0.5302  0.2310
10569W        W26830   8.325  16.915   3.191 -0.1366 -0.0381  0.3636
10570W        W26831   6.848  14.646  12.721 -0.0940  0.0135  0.0840
10571W        W26832   0.320   0.671  13.706  0.1585  0.2456 -0.1395
10572W        W26833   7.982  19.250  14.873  0.1524  0.5234 -0.1402
10573W        W26834   4.092  16.141  12.621 -0.0208 -0.0448 -0.1371
10574W        W26835   8.416  11.974  10.110  0.0353 -0.0505 -0.3374
10575W        W26836   4.465  15.139   4.848  0.3548 -0.2042 -0.1738
10576W        W26837   0.278   3.593  11.483 -0.1825 -0.0094  0.0309
10577W        W26838   0.028   7.312   3.909 -0.0335  0.2060 -0.0385
10578W        W26839  17.845  16.782   1.119  0.0105  0.1192 -0.3056
10579W        W26840   3.311  13.174   3.632  0.0424 -0.1025 -0.1379
10580W        W26841   7.885   8.471   3.284 -0.0527 -0.0305  0.1017
10581W        W26842   9.603   5.416  13.092 -0.2612 -0.4088 -0.0653
10582W        W26843  11.533   6.325   3.035 -0.1776 -0.3793 -0.0706
10583W        W26844  17.966   2.382  14.852 -0.1822  0.0528 -0.3214
10584W        W26845   8.911  16.580  14.713 -0.2349  0.0499 -0.0839
10585W        W26846  13.105  10.600   4.636 -0.3215 -0.0659 -0.0572
10586W        W26847  16.836  14.983  13.415  0.1262  0.0928 -0.4558
10587W        W26848  17.848   3.784   2.489  0.0328 -0.0767 -0.0322
10588W        W26849  18.918   0.944  13.544  0.0238  0.0890  0.1157
10589W        W26850   7.606   3.571   0.854  0.0404 -0.2027 -0.0652
10590W        W26851  17.687  13.768  13.777  0.4398 -0.1077  0.3093
10591W        W26852  15.074  16.356  10.292  0.1419  0.0210  0.0630
10592W        W26853   5.262  12.578  14.100  0.2645 -0.0041 -0.1326
10593W        W26854  15.373   1.177   3.197 -0.0738 -0.1557  0.0522
10594W        W26855   9.025   2.031   1.627  0.2456 -0.3535 -0.1507
10595W        W26856   9.236   4.753  10.708 -0.3254 -0.3573  0.1006
10596W        W26857   3.233  15.180   4.442 -0.0327  0.1290 -0.0405
10597W        W26858   1.590   0.974  11.764 -0.0496  0.1935 -0.2171
10598W        W26859   5.631   7.509  13.746 -0.1564 -0.3844  0.1700
10599W        W26860  13.633  13.006   0.008 -0.4800 -0.0167  0.1760
10600W        W26861  13.755  13.212  14.446  0.3535 -0.0632  0.3143
10601W        W26862  12.820   6.031   0.056 -0.0070  0.3512  0.0548
10602W        W26863   4.024  15.336   0.848  0.1259  0.0551 -0.1812
10603W        W26864   9.890   3.577  12.483  0.0685 -0.1638  0.2020
10604W        W26865  19.049   8.712   2.620  0.2835 -0.2155 -0.5803
10605W        W26866  12.767  18.127   3.761  0.2950  0.0835  0.0193
10606W        W26867   6.150   4.388  10.487  0.0992  0.0093 -0.2846
10607W        W26868   7.554  12.319   0.592 -0.0151  0.1539 -0.1418
10608W        W26869  14.064   1.721   4.583 -0.0417  0.0554  0.3542
10609W        W26870  11.995   9.308  11.090  0.0416 -0.1765 -0.2991
10610W        W26871  11.078   9.941   2.016 -0.1656  0.0979 -0.1123
10611W        W26872   2.828  13.604   0.152 -0.0351 -0.0951 -0.0175
10612W        W26873  11.513   9.557   4.195 -0.0225 -0.0100  0.1610
10613W        W26874   5.281   4.948  11.836 -0.2110 -0.0292  0.1405
10614W        W26875  12.870   4.325   1.413 -0.1959  0.1293  0.1489
10615W        W26876   4.868   2.443   2.439  0.2220 -0.0377 -0.4913
10616W        W26877  16.372  15.131  10.510  0.1950 -0.1632 -0.1843
10617W        W26878   0.491   6.091   2.261  0.3774  0.2114 -0.2309
10618W        W26879   2.592  10.018   4.767  0.1112  0.2974 -0.3854
10619W        W26880  12.431   4.182   3.524  0.2337 -0.1468  0.5703
10620W        W26881   1.847   2.528  13.547 -0.1880 -0.0386 -0.2695
10621W        W26882  19.231   6.856   2.350  0.0641  0.1763 -0.0011
10622W        W26883  15.134  19.202   2.665  0.3087 -0.3946  0.0021
10623W        W26884  17.201   6.473  13.239  0.2658  0.4165 -0.0475
10624W        W26885   6.358   6.737   0.898  0.1229 -0.0252 -0.0797
10625W        W26886   7.940  18.059   1.251 -0.1471  0.2357  0.1086
10626W        W26887  15.557  13.609  10.337 -0.2840  0.0081  0.1383
10627W        W26888   6.808   7.356   0.242 -0.2575  0.0591  0.1213
10628W        W26889   5.709  12.105   4.881 -0.0652  0.2715 -0.0373
10629W        W26890  17.251   9.965  11.696 -0.1383 -0.1151 -0.0391
10630W        W26891  11.813   3.359   3.342  0.3143 -0.0382  0.1063
10631W        W26892   0.783   6.932  14.250  0.2674  0.1067  0.0603
10632W        W26893  14.572  12.344   2.904  0.1504  0.0391  0.1868
10633W        W26894  14.101  10.428   4.880 -0.0714 -0.0623 -0.2897
10634W        W26895   3.653  12.770  10.622  0.3821  0.0756  0.3410
10635W        W26896  18.870  12.952   4.424  0.3879  0.2869 -0.2809
10636W        W26897   3.000  12.912   1.519  0.0956  0.0099 -0.0945
10637W        W26898   1.009   5.438  10.313 -0.3305 -0.0580  0.1206
10638W        W26899  14.070  15.650  10.296 -0.1698  0.1307  0.4425
10639W        W26900   3.158  13.052  12.979 -0.1352 -0.1503  0.1294
10640W        W26901  11.484   0.177  10.859  0.3133 -0.0420 -0.1481
10641W        W26902  17.741  15.790  10.014  0.0201 -0.2550  0.2886
10642W        W26903  12.302  12.837  14.498 -0.1672  0.3798  0.2232
10643W        W26904  10.040   6.869  14.037 -0.3891 -0.2261  0.1250
10644W        W26905  16.197   4.507   2.496 -0.1540  0.2367  0.0565
10645W        W26906   6.663  13.817   1.219  0.2857 -0.0271 -0.0442
10646W        W26907  11.967  12.603  14.182 -0.1178 -0.0839 -0.0498
10647W        W26908   0.825  19.301   1.306  0.0422  0.1264  0.2522
10648W        W26909   3.137  11.516  12.607  0.0052 -0.2026  0.1414
10649W        W26910  16.489  10.873   4.772 -0.2660 -0.0909  0.1809
10650W        W26911  14.770   9.152   2.523  0.0469  0.3136  0.3127
10651W        W26912   1.581  12.040  10.009  0.2974  0.1533 -0.2612
10652W        W26913   5.316  18.708  13.167  0.1393  0.2538 -0.2404
10653W        W26914   8.396  14.546   3.341  0.1762  0.2718 -0.1185
10654W        W26915   7.256  10.541   0.970 -0.0855 -0.4102 -0.2317
10655W        W26916  16.780  14.386  11.803  0.0768  0.0338  0.0760
10656W        W26917   8.652   2.589   2.509 -0.3195 -0.1227  0.0924
10657W        W26918   8.609  16.209   2.794 -0.0789 -0.1781 -0.0560
10658W        W26919   9.698  14.132   1.963 -0.0327  0.2018 -0.1806
10659W        W26920   2.079   2.988   3.059 -0.0598 -0.0142  0.0786
10660W        W26921  18.317  18.095  11.927 -0.0396  0.2395  0.0230
10661W        W26922  13.795  11.023  13.031  0.1423 -0.1035  0.1165
10662W        W26923   6.797  17.433   3.540 -0.1790  0.3244  0.2107
10663W        W26924   9.120  15.009  11.326 -0.1613  0.2209 -0.4233
10664W        W26925  13.070  16.549   2.709 -0.3401  0.2064 -0.1042
10665W        W26926  10.520  13.377  10.790  0.1690 -0.1659  0.1422
10666W        W26927   6.271  11.830   0.770  0.1431  0.0260  0.1692
10667W        W26928  18.580   6.628  11.876 -0.3564 -0.1995  0.1026
10668W        W26929   8.043   4.817  11.228 -0.0947  0.0238 -0.1799
10669W        W26930   4.297   8.056  13.170 -0.2391  0.1356  0.2185
10670W        W26931  18.802  17.511   1.251  0.2035 -0.0944 -0.0818
10671W        W26932  11.988  18.281  14.476  0.0905 -0.3148 -0.0979
10672W        W26933   4.861   8.765   1.689 -0.0318  0.0206  0.1049
10673W        W26934  15.651   3.706  11.080 -0.1122 -0.0978 -0.1202
10674W        W26935  17.518  16.440   1.180  0.2482  0.2521  0.0061
10675W        W26936   2.462  10.150  12.940 -0.4479 -0.1541  0.2632
10676W        W26937  11.135  14.734   2.685 -0.1206 -0.0350 -0.0229
10677W        W26938   8.279   1.786  14.372 -0.1327  0.0777 -0.1621
10678W        W26939  16.321  11.723   0.110 -0.0397 -0.0055  0.0008
10679W        W26940  17.802  11.175  14.808  0.0367 -0.1678 -0.2331
10680W        W26941  14.669   4.207   1.991 -0.1061 -0.0305  0.0778
10681W        W26942  11.192   7.019  11.724  0.2888  0.0125  0.2038
10682W        W26943  14.117  15.720  13.084  0.0343  0.1113  0.3016
10683W        W26944  10.488  10.687   2.195 -0.3528  0.1156  0.1503
10684W        W26945  11.783   2.874   2.446 -0.0246  0.0294 -0.2366
10685W        W26946   2.562   8.051  11.825  0.0284  0.3223  0.3449
10686W        W26947   4.133  16.895   3.663 -0.0654  0.1242  0.0113
10687W        W26948  15.011   9.477  14.472  0.0459  0.0512  0.0071
10688W        W26949  10.112   8.579  11.460 -0.1428  0.3639  0.1348
10689W        W26950  15.851   6.136   1.249  0.0073 -0.4096  0.1681
10690W        W26951  12.179   4.837   0.128 -0.1223  0.1032 -0.0549
10691W        W26952   7.204   5.009   0.306 -0.0143 -0.5126 -0.3372
10692W        W26953  15.496  10.273   9.385 -0.1255 -0.3276 -0.0629
10693W        W26954  14.700  10.793  11.961 -0.0185 -0.1922 -0.2021
10694W        W26955  18.980  13.253   3.959 -0.0807  0.2680 -0.1215
10695W        W26956   0.828   1.888  12.947  0.0639  0.0561  0.2623
10696W        W26957  16.815  10.257  12.070  0.1920  0.2329 -0.1824
10697W        W26958   1.061   6.293  11.199 -0.0812 -0.2121  0.0356
10698W        W26959   7.238  14.942   2.083 -0.0819 -0.0853 -0.0338
10699W        W26960  15.437   7.478  13.010  0.1827 -0.1399  0.1321
10700W        W26961   2.159  19.030   0.463  0.0418 -0.0692  0.0859
10701W        W26962  13.022  15.070   2.182 -0.0023  0.1388  0.1521
10702W        W26963   5.656   8.339   1.769  0.4504  0.0532 -0.0663
10703W        W26964  10.440  16.132  13.222 -0.2650  0.2360  0.3500
10704W        W26965  16.018   6.887   2.913 -0.1865 -0.0408  0.0574
10705W        W26966   4.975  16.907   5.846 -0.1803  0.1092 -0.4175
10706W        W26967  16.813  16.308  11.393  0.0013 -0.1182 -0.1236
10707W        W26968   2.697  17.557  13.917 -0.1763 -0.1372 -0.2784
10708W        W26969   7.720   0.792   3.372  0.0244  0.0966  0.2435
10709W        W26970  15.610  14.771  10.847 -0.2256 -0.0739  0.4659
10710W        W26971  11.274   2.618  13.124  0.0766  0.2134  0.2408
10711W        W26972  13.375   6.821  12.928  0.0282 -0.1494 -0.1021
10712W        W26973  19.449  15.383   0.522 -0.1249  0.3967 -0.1409
10713W        W26974  13.207   8.375  10.533  0.0572 -0.1344 -0.1200
10714W        W26975  11.571   5.416   1.427  0.0261 -0.3709 -0.1641
10715W        W26976  13.571   3.173   3.988 -0.0422  0.1586 -0.2521
10716W        W26977   4.554  15.010  13.379 -0.2033  0.1567  0.0069
10717W        W26978   7.352  14.403  12.797 -0.1888 -0.1137  0.1761
10718W        W26979   9.518   0.018  14.542  0.0249 -0.0335  0.0924
10719W        W26980   0.567   5.511  11.569  0.0257  0.0778  0.0163
10720W        W26981   9.459   5.471   0.112  0.0426  0.0906  0.0952
10721W        W26982  11.177  11.363  13.503  0.2321 -0.1353  0.1251
10722W        W26983   4.264   4.809  13.175 -0.1798 -0.2773 -0.1915
10723W        W26984   9.543  15.912   3.107 -0.0397 -0.1682  0.1941
10724W        W26985   4.688   6.933   0.869  0.2049  0.3690 -0.3040
10725W        W26986   8.436  13.006  10.792 -0.0303 -0.2883  0.1082
10726W        W26987   2.681   0.364  14.259 -0.0736 -0.0708  0.0390
10727W        W26988  18.676   2.141   3.850  0.0827  0.3816  0.3505
10728W        W26989  17.215   1.592   1.941  0.1952  0.2191 -0.1236
10729W        W26990   7.782  10.885  12.509  0.0347 -0.1354 -0.1548
10730W        W26991   1.560   5.078  14.535  0.0607 -0.2326 -0.1717
10731W        W26992   3.091  16.027  12.069 -0.1133  0.1446  0.2144
10732W        W26993  19.175  17.361   3.672 -0.0783 -0.2127  0.4689
10733W        W26994   4.283  13.745   1.576 -0.0788 -0.0341  0.2247
10734W        W26995  10.423  17.182   4.579 -0.1178 -0.1125  0.0115
10735W        W26996  13.344   0.295   2.535 -0.1533  0.1289  0.3648
10736W        W26997   7.419  16.897   3.202  0.1497 -0.0082 -0.0551
10737W        W26998   1.474  12.552   1.418  0.3720 -0.1016 -0.0796
10738W        W26999   6.101   2.719   1.385  0.0882 -0.0209 -0.1120
10739W        W27000   3.130   9.729  13.788 -0.1666  0.4408 -0.0652
10740W        W27001  18.573   0.115   1.613  0.5697 -0.1709 -0.1836
10741W        W27002  17.214  15.757  12.759 -0.0812 -0.0313  0.1924
10742W        W27003  16.131   1.091   4.719 -0.1592  0.0994 -0.0399
10743W        W27004   1.886   6.491   0.603  0.0057  0.0777 -0.1039
10744W        W27005   2.357  14.299   2.658  0.0138  0.0054 -0.2323
10745W        W27006  10.972  13.564  10.665 -0.0532  0.0046 -0.0834
10746W        W27007   2.824  13.732   9.442  0.2924 -0.2958 -0.0903
10747W        W27008   7.825  17.137  10.895 -0.0369 -0.4895  0.0101
10748W        W27009   4.332  12.329   2.943 -0.0794  0.0318 -0.4133
10749W        W27010   0.439   8.678   2.833 -0.0459  0.4584 -0.3577
10750W        W27011  10.593   3.240   3.596  0.1840 -0.2932 -0.0473
10751W        W27012   4.210   2.500  14.533 -0.1970  0.1522  0.1098
10752W        W27013  18.089  16.453  13.252 -0.0003  0.5631  0.0816
10753W        W27014   3.018   4.322  14.452 -0.4569  0.0915  0.1136
10754W        W27015  17.595   0.569   2.686 -0.2702  0.1567  0.3998
10755W        W27016  14.696  10.208   0.228  0.1101  0.2322  0.0537
10756W        W27017   8.906  18.869   0.181  0.0060  0.3290 -0.0936
10757W        W27018  10.888  15.152   2.633  0.2866  0.3080  0.0022
10758W        W27019   7.465  10.627   3.075 -0.1073  0.3443 -0.1362
10759W        W27020   7.307  12.307  11.621  0.1151 -0.1007 -0.1321
10760W        W27021  13.756   5.885  14.005 -0.2473 -0.1192 -0.1789
10761W        W27022   9.514  14.033   0.182  0.1991 -0.0668  0.1311
10762W        W27023   5.648  13.741  11.561 -0.1712 -0.0157 -0.0963
10763W        W27024  16.763  11.303  12.752  0.2909  0.1507  0.1566
10764W        W27025   6.011   4.128   2.273 -0.1954 -0.2903 -0.1356
10765W        W27026   5.951   1.144  12.978  0.1890 -0.1751 -0.0015
10766W        W27027   5.253   7.606  12.118 -0.2181  0.0474 -0.0743
10767W        W27028   3.878  14.843   3.198 -0.1948 -0.1951 -0.0016
10768W        W27029   2.277   4.569  13.769  0.0438 -0.2091 -0.0213
10769W        W27030  10.751  14.340  11.958 -0.0707  0.1429 -0.1442
10770W        W27031   4.356  10.323  13.369  0.1479 -0.1306 -0.0626
10771W        W27032   8.247   9.116   2.912 -0.0781 -0.1977 -0.0333
10772W        W27033  15.744   8.312   4.710 -0.2767  0.1069 -0.2134
10773W        W27034   5.448  16.804  10.918 -0.0186  0.3194 -0.4944
10774W        W27035  12.243   0.613  11.063 -0.1257  0.2203  0.1327
10775W        W27036   5.688  10.319  12.161  0.0243 -0.0151  0.1103
10776W        W27037  16.201   7.092  13.303  0.0320 -0.1027 -0.0713
10777W        W27038  10.441   0.878  11.609 -0.3058 -0.2183  0.1287
10778W        W27039  14.213   8.559  11.571  0.0532  0.0036  0.3635
10779W        W27040  19.145   0.083  10.830 -0.1768 -0.1487 -0.1226
10780W        W27041  19.393   4.434  14.564 -0.0416  0.0110  0.1594
10781W        W27042   2.779   9.048  13.245  0.1396 -0.1155  0.0741
10782W        W27043  14.706   6.711  11.647 -0.2988  0.1987 -0.1696
10783W        W27044   0.156  17.090   1.837  0.1470  0.1161 -0.0212
10784W        W27045  16.747   8.885   0.002  0.2417  0.0016  0.2393
10785W        W27046   8.176  11.187  11.114 -0.2208  0.0081  0.1497
10786W        W27047  11.229  11.412   2.712 -0.2030  0.0898  0.1189
10787W        W27048   2.337   0.836   0.813 -0.0126 -0.0233  0.1721
10788W        W27049   0.175   6.199   5.706 -0.0960  0.3366  0.1566
10789W        W27050   0.758  14.298  10.170 -0.2011 -0.0199 -0.2135
10790W        W27051  13.208   0.326  13.008 -0.4322  0.1899  0.0939
10791W        W27052  12.473  11.531  14.015 -0.1055 -0.2553  0.4098
10792W        W27053  16.254   2.139   1.926 -0.1246 -0.0075 -0.1504
10793W        W27054   2.458  13.943  12.746 -0.1698  0.1671 -0.2309
10794W        W27055   8.420   0.157   3.513  0.3953 -0.0930  0.2123
10795W        W27056   3.010  14.033   0.441 -0.0857 -0.0981  0.1781
10796W        W27057  16.811   3.128   3.549 -0.1548 -0.4221  0.2022
10797W        W27058  14.610  12.570  10.944 -0.3194 -0.0005 -0.1326
10798W        W27059  11.867   2.341   5.618 -0.0033 -0.1066 -0.1631
10799W        W27060  11.760   8.833   3.311 -0.0736 -0.0277  0.2716
10800W        W27061   1.829   3.217  11.485  0.1375  0.2241 -0.0715
10801W        W27062   9.771  19.138  10.981  0.1484 -0.0106 -0.2838
10802W        W27063   0.312   6.503   4.279  0.3047  0.1289  0.1104
10803W        W27064   6.414  18.560   9.929  0.0611 -0.2317 -0.1077
10804W        W27065   2.530  15.120  12.136 -0.2031 -0.1481 -0.0724
10805W        W27066  19.266   1.519   6.154  0.1974  0.1631  0.1628
10806W        W27067  15.105  17.828  14.482 -0.1391 -0.1679  0.1445
10807W        W27068  14.153  11.336  13.244 -0.1049 -0.4461  0.3295
10808W        W27069   1.097   2.834   1.876 -0.0403  0.3270  0.1132
10809W        W27070  10.610   3.052  14.186  0.0443 -0.1614 -0.0459
10810W        W27071   9.049  15.123   3.174  0.1489  0.2481 -0.0026
10811W        W27072   1.439  10.332   3.536 -0.0837 -0.1548  0.0333
10812W        W27073  10.066  18.965   0.848  0.0910  0.1576 -0.2212
10813W        W27074  13.421  15.252   4.391 -0.1142  0.0440  0.0695
10814W        W27075   4.119   7.112   4.870  0.1851  0.0986  0.1206
10815W        W27076   4.332   7.496  10.598  0.1526 -0.1148 -0.0228
10816W        W27077  14.718   6.492   0.395  0.0766  0.2866  0.3880
10817W        W27078   1.234  13.978   5.565 -0.0743  0.2943 -0.2139
10818W        W27079   6.760  12.932  13.023 -0.1173 -0.0495  0.0599
10819W        W27080  10.114  10.404   2.998 -0.0357 -0.1241 -0.0495
10820W        W27081  14.700   7.388   2.654  0.1431  0.0745 -0.1182
10821W        W27082   4.428   7.428   0.697 -0.0738  0.0307 -0.1418
10822W        W27083   1.998   2.218   1.902 -0.1746 -0.0847  0.0881
10823W        W27084   1.403  15.158   4.353 -0.0678 -0.1332  0.0802
10824W        W27085   7.341   2.656  12.069 -0.1627 -0.0080 -0.0811
10825W        W27086  13.689   0.082   1.486 -0.2490  0.1190 -0.1122
10826W        W27087   9.103   3.604   3.316  0.1566  0.0852  0.0383
10827W        W27088   8.816   2.171  11.247 -0.3104  0.1525 -0.1436
10828W        W27089   2.791   0.552  10.546  0.1234  0.1205  0.2033
10829W        W27090   4.471   1.030  14.760  0.1951 -0.0189 -0.2566
10830W        W27091  14.026  14.748  13.066 -0.2094  0.1579  0.2524
10831W        W27092  18.915  14.711   1.005 -0.1815 -0.0679  0.0073
10832W        W27093   6.158  17.227  13.548  0.2516 -0.3447 -0.0014
10833W        W27094  16.758  11.898   4.798  0.0988  0.1028  0.2283
10834W        W27095   8.899   6.022   1.306  0.0429  0.1352  0.0292
10835W        W27096  18.035   6.325   1.827 -0.0916 -0.0018  0.2426
10836W        W27097   4.906   3.137   1.848  0.0197 -0.3347  0.2461
10837W        W27098   3.131   3.757   1.269 -0.0608  0.0784 -0.0230
10838W        W27099   7.592   7.967  14.152 -0.0271  0.2311 -0.0818
10839W        W27100  18.172  17.122   0.755  0.3181 -0.0291  0.0401
10840W        W27101  14.121  11.158  12.301  0.3061  0.1381 -0.0008
10841W        W27102   8.320  12.585  12.616  0.1270  0.1587  0.0636
10842W        W27103   3.745  18.287  12.178 -0.2975 -0.0214 -0.2354
10843W        W27104   8.280   7.894  13.181 -0.2891  0.0592  0.0722
10844W        W27105   4.841   5.879   1.474  0.0488  0.5534  0.2386
10845W        W27106  12.925   3.262  13.187  0.2765 -0.1980  0.0608
10846W        W27107   8.986  14.248  13.382 -0.2145 -0.0151  0.2000
10847W        W27108  16.870   2.146   4.798  0.2144  0.0488  0.7266
10848W        W27109   0.641  13.734  12.658 -0.0053 -0.3067  0.2101
10849W        W27110  18.134   6.434   3.180  0.0071 -0.4215  0.1556
10850W        W27111   6.725  15.272  12.693  0.1663  0.1974 -0.2561
10851W        W27112   8.386   4.737  14.602  0.0258  0.2076 -0.1179
10852W        W27113  17.716   6.463   3.647  0.1979 -0.1423 -0.1250
10853W        W27114   1.203  16.032   2.684  0.3223  0.2508 -0.1259
10854W        W27115  16.045   3.913  14.649 -0.0798  0.1025 -0.3732
10855W        W27116   0.960   6.736  14.869  0.0569 -0.2369 -0.0680
10856W        W27117   6.404   5.646   9.682 -0.3090 -0.0826  0.0667
10857W        W27118  10.986   6.711   0.156 -0.1756 -0.2231  0.1535
10858W        W27119  11.476   8.782   5.934 -0.0084  0.1040  0.2514
10859W        W27120  14.041  14.161   0.551 -0.1167 -0.0003 -0.2754
10860W        W27121  12.210   1.872   5.368  0.1114  0.0174 -0.0898
10861W        W27122   4.992   2.694   4.471 -0.1537  0.2216 -0.0518
10862W        W27123  11.329   6.922   4.208 -0.1034  0.3487  0.3287
10863W        W27124  14.046  16.785  14.687  0.0194 -0.3324 -0.2851
10864W        W27125  13.227   0.784  10.218  0.0857 -0.4196  0.1290
10865W        W27126   1.962   9.672  14.207 -0.5070  0.0606  0.1666
10866W        W27127   2.616   3.432   4.223  0.1552 -0.4730 -0.0937
10867W        W27128   0.551   6.946   1.944  0.1086  0.1156  0.1195
10868W        W27129  17.795  13.253   0.167  0.2491 -0.0674 -0.2422
10869W        W27130   0.918  16.400   1.176 -0.1769  0.2690 -0.2917
10870W        W27131   4.204   1.648   5.500  0.2695 -0.0661  0.1296
10871W        W27132  12.417   9.025  14.626  0.1776  0.0603  0.2411
10872W        W27133  11.272  11.908  11.798  0.2826 -0.1147 -0.4542
10873W        W27134   2.234  13.369  11.098 -0.1299  0.2030 -0.1678
10874W        W27135   7.200   9.617   3.490  0.4997 -0.0135 -0.0479
10875W        W27136   1.076  16.610   2.513  0.1061  0.2614 -0.0812
10876W        W27137   1.992   4.830   5.250 -0.1129  0.1799  0.0065
10877W        W27138   3.162  14.248   4.647  0.1815 -0.1363 -0.1951
10878W        W27139   7.479   6.017   3.289  0.0449 -0.0028 -0.4420
10879W        W27140   5.217  15.339  12.863 -0.1598  0.0199 -0.1623
10880W        W27141   6.435   5.905   2.438  0.1669  0.1455  0.3150
10881W        W27142  18.108   6.771  11.909 -0.1935 -0.2471 -0.2437
10882W        W27143  10.924  15.117  12.179  0.5428  0.2827 -0.0213
10883W        W27144  12.257   6.865   4.317 -0.1933 -0.0470  0.1323
10884W        W27145  12.165  12.481   4.587  0.0721 -0.1875 -0.3326
10885W        W27146   2.224  17.179   3.631 -0.2381  0.0588  0.1153
10886W        W27147  18.846   1.499   0.621  0.0937 -0.0728 -0.2189
10887W        W27148   0.026  12.557   3.113 -0.0433  0.1239 -0.0248
10888W        W27149  13.443   2.357  10.495 -0.0070 -0.1799  0.0199
10889W        W27150  10.072  12.860   4.804 -0.2245 -0.3186 -0.0191
10890W        W27151  15.343  12.889   1.111 -0.0835  0.0618 -0.0920
10891W        W27152   6.671   1.804  14.111 -0.3335  0.2220  0.0891
10892W        W27153  13.128   8.026   0.994  0.4668  0.3397  0.1989
10893W        W27154   2.436  15.842   1.967  0.0148  0.1716  0.1175
10894W        W27155   6.731  16.476   2.268 -0.2329  0.1210 -0.1692
10895W        W27156   4.720  11.316  13.374 -0.2506 -0.3130 -0.0213
10896W        W27157   9.077   1.083   1.061  0.0766  0.0970 -0.0651
10897W        W27158   2.681   5.035  13.047 -0.0592 -0.2050  0.3235
10898W        W27159  12.862  14.583  11.419  0.1379  0.0504 -0.0411
10899W        W27160   2.792  13.159   1.927 -0.2816 -0.4409  0.0981
10900W        W27161   8.053   7.759   0.725 -0.0519  0.4490 -0.1059
10901W        W27162  12.991   1.028   3.612  0.1265 -0.1280  0.1497
10902W        W27163  16.995  14.903  13.897  0.0640  0.2354  0.0889
10903W        W27164   8.554   9.411  11.647 -0.2806  0.2731 -0.2299
10904W        W27165  15.715   0.703  12.208 -0.1371  0.0440 -0.0812
10905W        W27166   9.644   5.085  13.533  0.3414  0.2758 -0.2279
10906W        W27167   3.969  10.036  10.558  0.1448  0.0515 -0.0077
10907W        W27168   5.395   4.131  12.811 -0.3874  0.4052 -0.0065
10908W        W27169   3.692   9.791   4.084 -0.1843  0.2081 -0.0275
10909W        W27170   7.216  11.237  11.669  0.3305 -0.0870  0.2172
10910W        W27171  16.730   5.072   5.132  0.0884  0.1527 -0.0754
10911W        W27172   7.094  16.438  12.725  0.2251  0.0880  0.3051
10912W        W27173  17.635   9.551  14.511  0.0558 -0.3228 -0.1963
10913W        W27174   5.807   0.443  14.512  0.1470  0.1090 -0.0991
10914W        W27175   0.979  12.420  13.334  0.0190 -0.0203 -0.0373
10915W        W27176   6.250  14.586   2.202 -0.0734 -0.2690  0.2230
10916W        W27177  13.432  13.558  10.512 -0.1709 -0.0926  0.4881
10917W        W27178  13.590  10.024  12.594  0.1172 -0.2312  0.1431
10918W        W27179   7.958  15.923  13.100  0.0757 -0.0517 -0.1107
10919W        W27180   3.314   4.909   5.198 -0.1020 -0.1179  0.0711
10920W        W27181  15.784  18.483  13.435  0.2148 -0.0144 -0.0289
10921W        W27182   9.825   6.920   0.359  0.0010  0.0252  0.2536
10922W        W27183   0.167  11.488  13.055 -0.2069  0.0553  0.2502
10923W        W27184   9.134   8.798  14.683 -0.0623 -0.1307 -0.2594
10924W        W27185  16.542  16.528   2.104 -0.3524  0.0274  0.2812
10925W        W27186   8.641   9.364  14.199  0.3780  0.3231  0.2536
10926W        W27187  10.177   2.563  12.621 -0.0441 -0.2799 -0.1438
10927W        W27188  17.335   1.795   3.948  0.0740  0.1838  0.3070
10928W        W27189  18.509   2.736   3.786 -0.0431  0.2255 -0.0344
10929W        W27190  18.095  18.424  13.232 -0.1801  0.0620 -0.2564
10930W        W27191  17.856   1.755   3.352  0.2109  0.2010 -0.0065
10931W        W27192  17.665   5.292  13.800  0.2533  0.2522 -0.3541
10932W        W27193   0.019   7.195   1.709 -0.3641 -0.1593 -0.0514
10933W        W27194  11.300  11.876   2.571  0.2554 -0.1736 -0.1360
10934W        W27195   1.263  17.788   0.057  0.1380 -0.0794 -0.1781
10935W        W27196  14.348   6.100  14.136 -0.0234  0.3331  0.0917
10936W        W27197   2.296   0.786  14.108 -0.1734 -0.0976 -0.2996
10937W        W27198   5.808  19.400   0.371 -0.2203 -0.1663  0.1442
10938W        W27199  12.525  10.886   2.419  0.1394  0.0398  0.0949
10939W        W27200  11.615   6.421  12.911 -0.0137  0.2668  0.0143
10940W        W27201   4.653  14.456  11.837 -0.2400  0.0473 -0.3090
10941W        W27202   3.335   7.699  13.793  0.0918  0.0669 -0.0630
10942W        W27203  10.328   5.452   1.702 -0.0476 -0.0729 -0.1268
10943W        W27204   9.900  11.337  14.861  0.0999 -0.1901  0.1043
10944W        W27205  16.313  11.908  11.953 -0.1176  0.0269 -0.1769
10945W        W27206  14.075   6.894   2.536 -0.0357 -0.1454  0.3109
10946W        W27207  17.726  11.728  11.359  0.0354 -0.1015  0.0090
10947W        W27208  12.363   6.450  13.021 -0.2301  0.0624 -0.1709
10948W        W27209   7.497  15.747   2.211 -0.2379  0.0110 -0.0666
10949W        W27210  14.716   2.446  14.150  0.1084  0.0037  0.2474
10950W        W27211  17.855   1.169   5.245  0.0574 -0.1923  0.1306
10951W        W27212  11.858   3.821  11.353 -0.2389 -0.0297  0.1539
10952W        W27213   1.498  15.266  10.618 -0.3120  0.1802  0.0892
10953W        W27214   0.486  14.567   1.127  0.0157 -0.3758  0.3067
10954W        W27215   3.620  19.420  10.934 -0.1551  0.4763  0.0450
10955W        W27216   6.406  12.246  13.612  0.1794 -0.3121  0.2194
10956W        W27217  15.160  14.974  14.741 -0.0356 -0.0127  0.1126
10957W        W27218   7.453   9.731  14.440  0.1342  0.3086 -0.1363
10958W        W27219  13.245   9.824   0.870  0.2897 -0.0389  0.2314
10959W        W27220   3.150   7.571  13.014 -0.1271  0.2860 -0.1073
10960W        W27221   0.238  10.516  12.081 -0.0206  0.0039  0.2465
10961W        W27222   6.171  17.072  11.625 -0.2327 -0.2393 -0.1920
10962W        W27223   5.327  11.260   0.026  0.0105  0.2256 -0.0754
10963W        W27224   9.392   8.178  10.861 -0.1290 -0.1086  0.2117
10964W        W27225   9.797   1.331   4.775  0.1943 -0.0861 -0.0006
10965W        W27226   3.517   2.097  12.470 -0.4280 -0.0860 -0.0900
10966W        W27227  18.714   3.052   1.413  0.3721 -0.1025 -0.1102
10967W        W27228  15.917  11.394  10.431  0.0365 -0.3061 -0.1322
10968W        W27229   3.752  12.833  11.184 -0.0081  0.1147 -0.0724
10969W        W27230  16.723   5.728   1.800 -0.3198 -0.2408 -0.3482
10970W        W27231   8.567  13.450   0.030 -0.0059  0.0199 -0.0816
10971W        W27232  17.050  16.855   4.028  0.2141 -0.1605  0.1103
10972W        W27233   5.053  10.919  10.692  0.2067  0.1643  0.3665
10973W        W27234   9.330   0.152   3.177 -0.1122 -0.1892 -0.3931
10974W        W27235  15.218  15.815  11.100  0.0534  0.2426 -0.0001
10975W        W27236  18.589  18.401  10.163 -0.1284  0.0844 -0.1442
10976W        W27237   7.021   0.969   4.146  0.3510 -0.0862  0.1188
10977W        W27238  11.351   8.042  13.429  0.0181 -0.2047  0.0048
10978W        W27239  17.197  12.141   3.520  0.0724 -0.1335 -0.0159
10979W        W27240  19.295   8.451   1.014  0.1442  0.2307 -0.0386
10980W        W27241   9.433  11.528  14.105  0.0913 -0.4889  0.1135
10981W        W27242  11.990  16.470   4.255 -0.3265  0.0847  0.4861
10982W        W27243   8.132   4.075   0.959 -0.0902  0.0547  0.1853
10983W        W27244  15.019   1.962  12.481  0.0365  0.4150 -0.1212
10984W        W27245  16.738  12.300   4.474  0.1998 -0.3274  0.2863
10985W        W27246   0.115   6.684   0.552  0.2805 -0.1269 -0.4220
10986W        W27247  10.353   2.403   5.400  0.0894 -0.0577 -0.0112
10987W        W27248  16.076   5.962  12.939 -0.0206  0.0849 -0.2061
10988W        W27249   7.521  18.766   1.506 -0.0219 -0.2927 -0.0731
10989W        W27250  19.422   1.905  12.488 -0.1193 -0.3768 -0.3058
10990W        W27251  10.462  12.861  10.867 -0.0665  0.0495  0.0628
10991W        W27252   3.278  18.016  13.532  0.1521 -0.0589 -0.0138
10992W        W27253   2.490  11.405  13.161 -0.1007  0.0206  0.0163
10993W        W27254  13.043   8.544   5.013 -0.0408  0.0988  0.0220
10994W        W27255   3.390  12.864   5.729  0.2680  0.2021  0.2776
10995W        W27256  11.708   4.791  12.979  0.0321  0.0671 -0.2100
10996W        W27257  18.258   6.687   0.320  0.3080  0.1418 -0.2057
10997W        W27258   4.434  18.521  13.462  0.3115 -0.0315  0.1177
10998W        W27259   7.742   5.567   3.909 -0.0605 -0.0903  0.1423
10999W        W27260   1.994   6.829  14.254  0.1366 -0.1069  0.0382
11000W        W27261  16.632  19.019   1.940 -0.1259 -0.0054  0.0549
11001W        W27262  13.007   5.114  11.788 -0.6015 -0.2295  0.2685
11002W        W27263  17.914   4.559   2.974  0.1562 -0.1344  0.1050
11003W        W27264   6.697  16.078  13.133  0.4974 -0.1803  0.1800
11004W        W27265  13.684  17.425  12.548  0.0179 -0.0142  0.2294
11005W        W27266   8.525  16.433   9.476 -0.0823  0.0636  0.2933
11006W        W27267  19.276  12.399  11.683  0.2727  0.1618  0.0087
11007W        W27268  11.531   9.514  12.359  0.0078  0.2482 -0.4616
11008W        W27269   2.276   8.779   3.152 -0.2106  0.2936 -0.0399
11009W        W27270  17.884  11.962  14.088 -0.1037  0.1865  0.3361
11010W        W27271   9.371  16.608   3.709 -0.4718 -0.1419 -0.0293
11011W        W27272   6.771   5.022  12.435 -0.1186  0.0737  0.1209
11012W        W27273  14.810   7.500  11.998  0.0856  0.2224  0.1755
11013W        W27274   2.321  11.576  12.522  0.0165  0.3499  0.0226
11014W        W27275   0.529   3.996   1.384 -0.0741  0.0773 -0.0833
11015W        W27276   1.067   6.058  13.474 -0.2163  0.0317  0.0775
11016W        W27277  12.743  10.168   0.813 -0.1415  0.2060 -0.0515
11017W        W27278  13.805  11.953   2.893  0.1923 -0.1759 -0.2018
11018W        W27279   8.753  17.932  11.612 -0.2155 -0.1136  0.0433
11019W        W27280  14.691  17.994  11.986 -0.2551  0.2001 -0.0567
11020W        W27281   4.810  15.164   3.487 -0.0266  0.0763 -0.3479
11021W        W27282   0.283  18.529   1.665 -0.0126  0.4486  0.0904
11022W        W27283   2.264  17.387  13.897  0.3351 -0.1312 -0.1902
11023W        W27284   0.174   6.218  13.059 -0.2754 -0.3101  0.3422
11024W        W27285   9.852  17.370   2.372 -0.0690 -0.1996  0.0727
11025W        W27286   0.208   4.812  12.725  0.0358 -0.0948 -0.0674
11026W        W27287  11.235   7.980  12.966  0.0042 -0.0769 -0.0014
11027W        W27288  11.342  14.874   1.624 -0.0884 -0.0060  0.0405
11028W        W27289  11.309  17.788  12.049  0.3090  0.0224 -0.1353
11029W        W27290   5.978   1.533  10.735 -0.0390  0.0209  0.1105
11030W        W27291   4.903  17.691   1.431  0.1734 -0.0460  0.0308
11031W        W27292  16.221  14.340  13.457 -0.0553  0.0757 -0.2517
11032W        W27293   0.241  15.608  11.457 -0.2122 -0.1263 -0.2070
11033W        W27294   0.042  12.896  11.745 -0.1371  0.0710  0.0224
11034W        W27295   9.158   6.598   0.671 -0.2288  0.1522 -0.0375
11035W        W27296   3.909  13.071   0.739 -0.1651  0.1515 -0.5017
11036W        W27297  14.898   8.642   2.606 -0.0338 -0.0341  0.1835
11037W        W27298   7.207   8.450   1.995 -0.1837 -0.3122 -0.0614
11038W        W27299  15.638   7.925  13.146 -0.0170  0.2963  0.1089
11039W        W27300  17.641  15.708   9.364 -0.1699 -0.3273  0.0161
11040W        W27301   8.387   3.687  14.355  0.0575  0.0260  0.1946
11041W        W27302   5.218  14.058   4.614  0.1285  0.3089  0.0529
11042W        W27303   5.941  17.866   1.717 -0.1361 -0.1535  0.2063
11043W        W27304  17.933   5.935  14.821  0.0438 -0.1570  0.5167
11044W        W27305  16.286   6.373   1.012 -0.1982  0.1732  0.2011
11045W        W27306  10.104  14.872   4.891  0.2677  0.1199  0.4688
11046W        W27307  14.909   7.138  13.859  0.0917 -0.3949  0.3055
11047W        W27308  12.073   4.979   2.550  0.3640  0.2399  0.3299
11048W        W27309  10.581   6.679   3.410 -0.3218  0.0537  0.1780
11049W        W27310   6.304   3.611  14.254  0.0578 -0.0789  0.4896
11050W        W27311   4.619  13.813  10.399 -0.0749  0.2007 -0.0219
11051W        W27312   1.793   0.788   2.629 -0.1936 -0.2149  0.0085
11052W        W27313   5.846   8.622   5.783  0.0685  0.1191 -0.0069
11053W        W27314  11.632  12.958  10.370  0.0034  0.0685  0.1649
11054W        W27315   1.104   2.731   2.441  0.0798 -0.0427  0.1690
11055W        W27316   4.315  17.556  14.395 -0.0439 -0.0923 -0.0537
11056W        W27317   4.800  14.701   5.200 -0.1753  0.2524  0.1790
11057W        W27318  14.655   6.103   3.846 -0.2290 -0.1474 -0.1823
11058W        W27319   0.499  15.828   5.011 -0.2490 -0.1006  0.1772
11059W        W27320   6.619  13.977   4.349 -0.0170  0.1092  0.0864
11060W        W27321  19.123  19.041  11.929 -0.0629  0.2933  0.6132
11061W        W27322   8.661  17.095   4.679  0.1208 -0.0429 -0.1460
11062W        W27323  17.370   1.421   4.293 -0.0006 -0.2364 -0.0895
11063W        W27324  15.202  11.380   9.814 -0.3605  0.1653 -0.0411
11064W        W27325  15.894   7.444   0.045  0.1941  0.2738 -0.1041
11065W        W27326  16.709  18.644  13.249  0.0085  0.2045 -0.0587
11066W        W27327   1.327  14.520   3.843 -0.0203  0.1944  0.0890
11067W        W27328  13.658  13.591   9.731 -0.2430 -0.1543 -0.0238
11068W        W27329   1.669  14.990  11.508 -0.0809 -0.1471  0.0486
11069W        W27330  15.527   4.410   4.106 -0.0467  0.5357  0.0822
11070W        W27331   6.118   2.063  13.233 -0.0370  0.0814  0.0122
11071W        W27332   8.261   3.281   3.424  0.0529 -0.1367  0.0585
11072W        W27333  14.957  18.780  13.955  0.0531 -0.1879 -0.2063
11073W        W27334   4.215  13.462   0.766  0.0203 -0.3933 -0.0466
11074W        W27335  13.604   4.773  10.113  0.2362  0.1330 -0.5266
11075W        W27336  14.206   8.795   0.862 -0.1439 -0.0887  0.1405
11076W        W27337   5.136  17.520   1.035  0.2084 -0.0205 -0.2488
11077W        W27338  17.746  14.042  11.363 -0.0252 -0.4180 -0.1249
11078W        W27339   2.672   5.573  11.041 -0.0920 -0.0888 -0.1202
11079W        W27340   7.568  18.615  11.541  0.2107 -0.0810 -0.2949
11080W        W27341   3.394   6.749   0.476 -0.1370  0.1882 -0.3851
11081W        W27342  15.019   9.073   1.169  0.0387 -0.0678  0.2334
11082W        W27343  13.326  14.606   1.428 -0.0453 -0.0064 -0.0585
11083W        W27344  12.399  12.156  13.412  0.3273  0.2945  0.0366
11084W        W27345  14.748   4.432  10.546 -0.1226  0.1614  0.0168
11085W        W27346   0.037  13.203  12.756 -0.2521 -0.1334  0.1898
11086W        W27347   7.817  12.214   0.105  0.1547 -0.0551  0.0648
11087W        W27348  13.560  17.286   2.332 -0.1692 -0.1142  0.1498
11088W        W27349  13.062  11.075   0.858 -0.2960 -0.1044  0.1343
11089W        W27350   0.728   4.945  14.407 -0.1814  0.0812 -0.0156
11090W        W27351  11.240   0.543  11.823 -0.2482  0.3724  0.1374
11091W        W27352   4.608  15.519   4.527 -0.2374 -0.2521 -0.1056
11092W        W27353   8.276   8.559   3.730 -0.1862 -0.1806 -0.0075
11093W        W27354   2.654  12.585   5.240  0.1401 -0.0939 -0.0889
11094W        W27355   8.408   4.020   4.683 -0.3290  0.0203 -0.0661
11095W        W27356   8.408   0.174   0.305  0.1318  0.0660 -0.3096
11096W        W27357  11.739   3.289   5.297  0.0878  0.1365 -0.0736
11097W        W27358  16.595  10.134  10.969 -0.0736  0.1316  0.1729
11098W        W27359  16.260   8.606  14.220 -0.1943 -0.1535  0.3886
11099W        W27360   1.391   7.666   3.078 -0.1474 -0.3521 -0.2701
11100W        W27361   1.030  14.992   5.739  0.0205  0.0363  0.0349
11101W        W27362   8.676  18.211  12.429 -0.0020 -0.1517  0.0712
11102W        W27363   8.669  16.169   0.272 -0.3708 -0.0628  0.2460
11103W        W27364   7.781   9.371   1.527 -0.1763  0.0528 -0.3200
11104W        W27365  14.627  17.303   1.876  0.0608 -0.3720  0.0314
11105W        W27366   0.517   0.001  12.075  0.1128 -0.0442  0.1051
11106W        W27367   4.839  15.628  12.097  0.1122 -0.0761  0.3785
11107W        W27368   0.857  17.275   3.505  0.1730  0.3926  0.1807
11108W        W27369  10.867  16.676  14.697 -0.0116  0.1427 -0.4459
11109W        W27370   3.182   9.100   3.803 -0.4232 -0.2889  0.3068
11110W        W27371  10.201  16.202  14.210 -0.0397 -0.2987 -0.0167
11111W        W27372   4.328  14.619   1.298  0.0170  0.0795 -0.1840
11112W        W27373   6.082  18.156  10.135  0.2182  0.0076  0.2716
11113W        W27374  17.137   6.696   4.720 -0.1644 -0.2058 -0.0748
11114W        W27375  13.330   4.960   2.798  0.0387  0.1539 -0.1491
11115W        W27376  14.888  14.799   3.698 -0.4901  0.1902 -0.3671
11116W        W27377   5.297   8.522  11.759 -0.1422 -0.0488  0.2746
11117W        W27378  12.492  14.236   3.865 -0.0631 -0.1461 -0.1393
11118W        W27379  18.483   2.009  11.001  0.0186  0.0338 -0.3337
11119W        W27380  13.131  12.200   5.042 -0.5509  0.0735 -0.0723
11120W        W27381   9.779  16.133   2.502 -0.1105  0.3415 -0.1471
11121W        W27382   0.728  11.998  13.368 -0.0231 -0.4867  0.2067
11122W        W27383  10.771  16.412  11.962 -0.0667  0.3242 -0.4830
11123W        W27384  16.913   1.318  13.673 -0.2090 -0.2575 -0.3055
11124W        W27385   9.471  10.726  12.832 -0.0172  0.6315 -0.1682
11125W        W27386   7.114   6.147  12.195 -0.0583 -0.2024  0.0215
11126W        W27387  12.623  10.327  13.146 -0.2644  0.0214 -0.5430
11127W        W27388   4.224   6.622   6.169  0.4341  0.4696  0.0043
11128W        W27389   6.161  18.930   4.181 -0.5106 -0.0108 -0.1211
11129W        W27390   1.632  10.127  10.845 -0.1182 -0.2723  0.0869
11130W        W27391   3.554   9.691  10.937  0.4043 -0.0250 -0.0617
11131W        W27392   5.940   3.762   0.229  0.3650 -0.0154  0.1812
11132W        W27393  17.532  16.366   3.503 -0.0356  0.1904 -0.2591
11133W        W27394  10.544   8.942   5.116 -0.0554 -0.0463 -0.1045
11134W        W27395   2.189  16.536  10.844 -0.0196  0.1608  0.1426
11135W        W27396   2.772   7.909  10.829 -0.2958  0.3987  0.1886
11136W        W27397   8.404  18.882  10.715 -0.2489  0.1329  0.1246
11137W        W27398   2.879   0.576   5.331 -0.0165  0.0251  0.1286
11138W        W27399  11.680  14.673  11.655 -0.4317 -0.1321  0.0922
11139W        W27400   8.466   5.877   1.251  0.1355  0.1152 -0.0132
11140W        W27401  15.727   0.134   1.296  0.0523  0.1648 -0.2092
11141W        W27402   1.442  18.246  11.195 -0.2784  0.0858  0.3049
11142W        W27403  18.976   9.634  11.005 -0.0633  0.0496 -0.0553
11143W        W27404  16.110   9.864   2.533  0.2376  0.3148  0.1634
11144W        W27405  17.196   0.975  10.718  0.1772  0.1372  0.0301
11145W        W27406  11.483   8.923  11.478  0.1965  0.2426 -0.0562
11146W        W27407   8.224   7.032   3.549 -0.2042  0.1567 -0.2841
11147W        W27408   5.185  17.067  14.558 -0.1463 -0.2623 -0.1446
11148W        W27409   9.095  14.192  11.831  0.0286  0.0260 -0.1892
11149W        W27410   2.266   6.671  13.789  0.2800  0.0164  0.0143
11150W        W27411  14.289  12.224  12.653 -0.2328  0.3613 -0.2910
11151W        W27412   1.365   9.628  14.742  0.1305  0.2201  0.0594
11152W        W27413   7.470  17.177   1.141 -0.1045  0.1522  0.0353
11153W        W27414   4.827   4.191   4.291  0.0030  0.0708 -0.0133
11154W        W27415   9.670  15.604  11.979  0.1399  0.1096 -0.0178
11155W        W27416  10.961   0.059  11.792 -0.2588  0.3353 -0.1662
11156W        W27417   5.869  16.900  13.331  0.1868 -0.1235 -0.3263
11157W        W27418   5.008   4.252  14.368 -0.2805  0.2903 -0.5393
11158W        W27419   1.600   7.223   5.223 -0.0611  0.0247 -0.0614
11159W        W27420  14.206   1.734  10.239  0.0317 -0.2172 -0.2922
11160W        W27421  11.153   3.779  12.975 -0.0103 -0.0565  0.0847
11161W        W27422   1.256   7.778  11.771  0.0097  0.1426  0.5431
11162W        W27423  19.447  17.812  12.223 -0.4107  0.1273 -0.1968
11163W        W27424  14.276   4.312   0.024 -0.1898  0.0652 -0.0391
11164W        W27425   2.018   4.310  14.765  0.0817  0.1777 -0.1522
11165W        W27426   1.637   9.303   2.583 -0.1115 -0.0904  0.1664
11166W        W27427   0.655   9.929  12.062 -0.0271 -0.0592 -0.1051
11167W        W27428  13.915  10.619   3.842  0.1061  0.2995 -0.0112
11168W        W27429   8.742  10.917  14.023  0.2783 -0.0088  0.1031
11169W        W27430   0.420   3.849   2.757  0.1462 -0.0269 -0.0189
11170W        W27431   4.272  15.200   3.157  0.2066 -0.4074 -0.1397
11171W        W27432   9.507   6.361  10.680 -0.0348 -0.1007  0.1943
11172W        W27433  16.095   8.628   0.545  0.0587  0.1857 -0.0810
11173W        W27434   2.946   5.835   6.157  0.4131  0.1260 -0.0298
11174W        W27435  18.776  13.807   4.862 -0.4023  0.3234 -0.5810
11175W        W27436   8.474  11.839  14.222  0.1097 -0.1294 -0.1331
11176W        W27437   2.449   1.730   1.351  0.0443  0.1427  0.0786
11177W        W27438  14.675   2.035   0.074  0.0324  0.0283  0.2195
11178W        W27439   7.345   9.638   5.125 -0.1063  0.2343  0.2373
11179W        W27440  14.844  12.278  12.459  0.0379  0.1593 -0.2133
11180W        W27441  11.766   7.097  10.997 -0.0677  0.1598 -0.1512
11181W        W27442   3.400   4.492  12.866 -0.2609 -0.2766  0.0883
11182W        W27443   8.290   1.079   3.263 -0.2054 -0.2492  0.0549
11183W        W27444   0.610  15.137   1.242 -0.2057 -0.2066 -0.1420
11184W        W27445   5.305   1.548  13.524 -0.1409  0.2660  0.1124
11185W        W27446   2.590   8.808  10.894 -0.1799  0.2347  0.2851
11186W        W27447  10.223  12.762  11.918 -0.1585  0.5469  0.2763
11187W        W27448   5.370   5.554  10.185 -0.2103  0.1730  0.0502
11188W        W27449  16.887   0.392  12.262 -0.1790 -0.1517 -0.0146
11189W        W27450  12.670  18.776   3.095  0.0325 -0.3750 -0.0349
11190W        W27451   0.761  10.045   4.273  0.0181  0.0161 -0.2594
11191W        W27452   5.384  18.814   4.484  0.1160 -0.1064 -0.0325
11192W        W27453   7.872   4.537   0.492  0.1893 -0.0048 -0.0019
11193W        W27454   8.997   9.571  11.274  0.0333  0.1443  0.2593
11194W        W27455  19.398   7.876   2.221  0.0047 -0.1193  0.1213
11195W        W27456  14.365  14.706  13.437 -0.0801  0.2663  0.2147
11196W        W27457  16.395  13.595   2.724  0.0771 -0.1027  0.1211
11197W        W27458   5.742   7.810   4.583  0.0953  0.2774 -0.0626
11198W        W27459  10.527  16.484  12.367 -0.0032 -0.1310  0.0699
11199W        W27460   4.394  17.290  13.912  0.0897  0.0731 -0.1028
11200W        W27461   6.005  13.191   2.796  0.0701 -0.0630 -0.0735
11201W        W27462   2.198  16.929  14.398  0.0346  0.0023 -0.1458
11202W        W27463   0.947  10.313  14.030 -0.2376  0.1256 -0.1706
11203W        W27464   3.266   3.474   5.331  0.0666 -0.0484 -0.1260
11204W        W27465   2.362   3.181   2.607 -0.0690 -0.2498 -0.2758
11205W        W27466  14.585   1.648  10.951 -0.0950 -0.1387  0.0917
11206W        W27467   5.867   7.336   0.364  0.0329 -0.1909 -0.2345
11207W        W27468   7.554   0.758   4.329 -0.1027  0.2479 -0.0115
11208W        W27469  16.789   9.313   0.350  0.2553 -0.2333  0.1054
11209W        W27470  13.372  15.743   2.326 -0.0425 -0.0735  0.1465
11210W        W27471  13.165   9.387   0.149 -0.2737  0.1315  0.3931
11211W        W27472   9.025   3.310  10.616  0.3256 -0.0013 -0.1289
11212W        W27473  17.870  14.546  12.001  0.1715 -0.0377 -0.1796
11213W        W27474   3.484  14.014   5.024 -0.1580 -0.1300 -0.1573
11214W        W27475   8.071  12.364  10.080 -0.2388 -0.4904 -0.1694
11215W        W27476  18.488   3.469  13.627  0.1076 -0.0933 -0.4063
11216W        W27477   6.681   7.860  13.788 -0.2623 -0.1616  0.2876
11217W        W27478   3.206  15.558  10.304  0.0364  0.0769 -0.1330
11218W        W27479   2.564   0.959   1.919 -0.3733  0.0391 -0.0147
11219W        W27480  10.263  16.889   4.098 -0.1477 -0.0353  0.1567
11220W        W27481   4.774  19.002   4.064  0.1480 -0.0659  0.0725
11221W        W27482  10.377  14.180  13.270 -0.2315 -0.0121  0.2755
11222W        W27483  12.862  17.668  11.057 -0.0008  0.2009 -0.2769
11223W        W27484  16.367  19.355  10.558 -0.1791 -0.1470  0.0549
11224W        W27485   8.436   1.895   3.730 -0.1144 -0.1376 -0.0001
11225W        W27486   9.036   7.421  12.197  0.1618  0.0481 -0.2258
11226W        W27487  17.009  17.514   1.839 -0.2187 -0.2729 -0.0713
11227W        W27488   0.896   4.748  12.135 -0.0271  0.0538 -0.1491
11228W        W27489  16.451   3.214   2.907 -0.1689  0.0905  0.4319
11229W        W27490  14.533  10.895  11.099  0.3546  0.1284  0.0233
11230W        W27491  15.727  12.842   0.632  0.0687 -0.0391 -0.1771
11231W        W27492   2.661   9.052  14.472  0.1983  0.2854  0.1691
11232W        W27493  11.253   8.975   4.616  0.1539 -0.0105 -0.2357
11233W        W27494   6.692  15.166   0.716  0.0919  0.0566  0.1737
11234W        W27495  18.235  16.284   4.105  0.1943 -0.3109 -0.0299
11235W        W27496   1.335   6.253   4.826  0.1243  0.0248 -0.2822
11236W        W27497  10.353   8.833   1.901  0.0188  0.2217 -0.0254
11237W        W27498  10.356   8.989   1.408  0.0706 -0.1513  0.4282
11238W        W27499   0.956  18.709   1.322  0.2573  0.0114 -0.0586
11239W        W27500  12.435  12.757  10.763  0.3500  0.2319 -0.0858
11240W        W27501   0.292   6.242   3.439 -0.2006 -0.0518 -0.2311
11241W        W27502  19.270   3.363   3.110  0.1521 -0.1285  0.0678
11242W        W27503  15.836  15.631   1.758  0.1864 -0.0069 -0.2054
11243W        W27504   3.036  14.117  13.884  0.1900 -0.1091 -0.0704
11244W        W27505  15.999   6.943   3.868 -0.1065 -0.1027 -0.3655
11245W        W27506  10.355   1.125   2.631  0.0966 -0.0322 -0.0462
11246W        W27507  11.809   1.625  10.869  0.1983  0.0438  0.0019
11247W        W27508  16.789   2.456  10.920  0.4072 -0.2326  0.1659
11248W        W27509  10.465  10.824   4.176 -0.2723 -0.2564 -0.2002
11249W        W27510   0.174  17.576   0.322 -0.0202 -0.2576  0.2915
11250W        W27511  18.212  10.745   1.176  0.5237 -0.0244  0.2817
11251W        W27512  11.306   7.466   4.089  0.2889 -0.0239  0.0270
11252W        W27513   7.351   8.258   3.973  0.0633 -0.1690 -0.0130
11253W        W27514   1.414   3.182   2.357 -0.0382  0.2017 -0.1904
11254W        W27515   6.838   8.532   1.051  0.0928  0.1626 -0.1989
11255W        W27516   7.870  16.115   4.174 -0.0518 -0.3007  0.1504
11256W        W27517  15.637  15.357  11.654  0.2619 -0.2508 -0.4497
11257W        W27518   1.248  19.405   3.357 -0.1827  0.2535  0.0845
11258W        W27519   3.926  18.531   3.620  0.1524 -0.2074  0.1120
11259W        W27520  15.461  10.660   1.519  0.0552 -0.0128  0.0224
11260W        W27521   8.209  17.305  12.137  0.2284  0.1387 -0.1961
11261W        W27522  13.274   5.511   3.040 -0.0420 -0.1183 -0.1682
11262W        W27523   4.178  19.404   0.113  0.0863 -0.1350 -0.0596
11263W        W27524   9.127  14.622   4.054 -0.0529 -0.0039  0.1111
11264W        W27525  15.564   7.992  10.797  0.0097  0.3208 -0.0538
11265W        W27526  11.532   2.043  10.647 -0.3186 -0.0685  0.1998
11266W        W27527   7.725  13.370   2.558  0.0840 -0.0545  0.0123
11267W        W27528  17.179   1.634  13.002 -0.2340  0.3469  0.1477
11268W        W27529   3.293   9.103   9.714 -0.1945  0.0111  0.1460
11269W        W27530   7.621  10.859   3.848 -0.0996 -0.1876  0.2471
11270W        W27531   7.213  15.992   9.750 -0.4075  0.2914 -0.0175
11271W        W27532  15.165  11.555   0.708 -0.0054 -0.0144 -0.1319
11272W        W27533  18.030   3.732   1.393  0.2093  0.0321 -0.0361
11273W        W27534   2.083   2.394  14.680  0.0462  0.0090  0.1282
11274W        W27535   8.492   0.443   0.840 -0.1527 -0.2693  0.0921
11275W        W27536  16.783   2.751  13.514  0.1112  0.0362 -0.0355
11276W        W27537   4.862  13.805  14.733 -0.0478 -0.2025  0.0041
11277W        W27538  17.090  15.714   2.100 -0.2547  0.2822 -0.0793
11278W        W27539  18.042  16.040   5.235  0.0920 -0.1359 -0.0112
11279W        W27540   9.576  10.058  12.416  0.1953 -0.2337  0.0144
11280W        W27541   0.728   7.700   1.779  0.0449  0.0775 -0.0892
11281W        W27542   1.875  16.010  13.757 -0.0837  0.2836  0.1672
11282W        W27543  15.557  10.884   2.439 -0.2671  0.2338  0.3535
11283W        W27544  11.505   9.021   0.569  0.1242 -0.0963  0.1191
11284W        W27545   8.010  11.513   1.025 -0.0687 -0.2410 -0.2462
11285W        W27546   2.509  15.009   5.659  0.3184 -0.2511 -0.1896
11286W        W27547   9.648  18.143  11.784  0.0722  0.0726  0.2497
11287W        W27548  18.961  16.604   1.711 -0.3838  0.3201 -0.0137
11288W        W27549   5.019   9.281   0.828 -0.3572  0.1165  0.2286
11289W        W27550  19.244  16.358  12.874 -0.0302 -0.2549 -0.0132
11290W        W27551  13.665  18.258   4.836 -0.1425  0.4332  0.1502
11291W        W27552   0.522   5.893   4.316 -0.3942  0.0767  0.0935
11292W        W27553   4.267  14.177   4.689  0.3741  0.0899  0.1202
11293W        W27554   9.822  18.509  10.133 -0.4842  0.1679  0.2949
11294W        W27555   1.931   9.799  14.713 -0.1666 -0.2232  0.4654
11295W        W27556   1.856   2.058  13.258 -0.0699  0.4378 -0.1432
11296W        W27557  18.359   7.684   4.600  0.0521  0.4708 -0.1847
11297W        W27558  19.424  15.942  12.036 -0.2421 -0.1851  0.1647
11298W        W27559  15.189  12.929  14.657 -0.0090 -0.1301  0.2813
11299W        W27560  12.195  17.508   2.876  0.1849  0.1125 -0.4570
11300W        W27561   6.156   7.489  12.003  0.1735  0.1243 -0.1657
11301W        W27562   6.301  15.357  11.849  0.1274  0.0203 -0.0962
11302W        W27563  13.281   1.599   2.573  0.0528 -0.3692 -0.0879
11303W        W27564   2.467   6.422  14.179 -0.1894  0.0567  0.2406
11304W        W27565   1.559   2.761   5.477 -0.2368 -0.1501 -0.1281
11305W        W27566  10.633  14.962   0.096  0.3865  0.1153  0.1352
11306W        W27567  13.375  12.444   4.690  0.1934  0.0819 -0.0054
11307W        W27568   1.916   5.276  11.476 -0.2238 -0.1351  0.2821
11308W        W27569   1.053  11.597  12.168 -0.3453 -0.1748 -0.3299
11309W        W27570  18.784   1.617  14.057  0.1973  0.1479  0.0764
11310W        W27571   7.107   5.741   3.015  0.0757  0.0627  0.2809
11311W        W27572  13.330   4.151  13.570  0.1143  0.0855 -0.2674
11312W        W27573  15.109   8.106   4.943  0.0865 -0.3051 -0.0793
11313W        W27574   1.499  16.751   1.759  0.1737  0.1582  0.0946
11314W        W27575   0.731  18.953  13.823 -0.1632 -0.2130 -0.0594
11315W        W27576  14.385  12.252   0.535 -0.1319  0.0909 -0.1277
11316W        W27577  14.249  12.941   1.755 -0.2136 -0.0221 -0.2372
11317W        W27578  18.310   7.923   1.703  0.0340 -0.0782 -0.0515
11318W        W27579   1.233   6.107   3.593  0.0252  0.4381 -0.0781
11319W        W27580  14.160  17.452  12.329 -0.0457 -0.1580 -0.4129
11320W        W27581   9.949  11.290  10.715  0.0032 -0.3298  0.0015
11321W        W27582  14.655   0.222  14.473 -0.3850 -0.0831 -0.3578
11322W        W27583  10.591  18.159  11.513 -0.1202  0.0796  0.1710
11323W        W27584   3.465  11.641   4.268 -0.3306  0.0095  0.0908
11324W        W27585  19.393   5.290  13.896  0.3343 -0.3840 -0.1687
11325W        W27586   2.843  14.734  12.286  0.0706 -0.2595 -0.0226
11326W        W27587  10.888  10.195   4.380  0.2100 -0.0094 -0.0390
11327W        W27588  10.187  18.861   4.651  0.1079 -0.1553 -0.2581
11328W        W27589  14.389   8.253  14.456 -0.0656  0.2266  0.1003
11329W        W27590  10.898  17.086   1.009  0.0960  0.2271  0.0484
11330W        W27591   1.081  13.990   1.069  0.0101 -0.5997 -0.0605
11331W        W27592  14.519  12.917   2.713 -0.0191  0.2718  0.1755
11332W        W27593  17.716   9.873  12.394  0.1568 -0.1961 -0.0223
11333W        W27594   1.171   0.295  10.575 -0.2170  0.0701 -0.1287
11334W        W27595   4.896  13.097   1.814 -0.1668  0.1328 -0.2078
11335W        W27596  12.446   6.980  12.274 -0.0814  0.0134 -0.2694
11336W        W27597  14.236   8.124   3.218  0.0005 -0.2501  0.1592
11337W        W27598   9.862  14.444  13.103 -0.1634 -0.0312 -0.6189
11338W        W27599   7.328   2.971  13.595 -0.3719  0.0469 -0.0457
11339W        W27600  15.048   1.445  11.103  0.4927 -0.2467  0.0997
11340W        W27601  11.361   4.229  14.435  0.0123  0.3357 -0.1306
11341W        W27602  15.024   8.150  13.112 -0.0938 -0.0826 -0.2586
11342W        W27603   7.915  13.895  12.050  0.1707 -0.3264 -0.0026
11343W        W27604   1.099  18.279  10.061 -0.0284  0.0451 -0.2006
11344W        W27605   2.731   7.588   0.260 -0.1456 -0.0996 -0.1981
11345W        W27606   2.083   4.040  12.393  0.1179 -0.1176 -0.0450
11346W        W27607  16.785  19.197   5.089 -0.5879  0.1656  0.0114
11347W        W27608   3.811   0.550   5.894  0.0513 -0.2813  0.0183
11348W        W27609  16.007  13.635   0.339 -0.1821 -0.0949  0.2454
11349W        W27610  14.571   4.840  11.717  0.0206  0.0470  0.1570
11350W        W27611   5.583   7.166  10.777 -0.3394  0.1846 -0.1671
11351W        W27612  11.481  10.282  10.343 -0.0696  0.0721  0.0672
11352W        W27613  10.476   0.199  12.152  0.2505  0.6231  0.1512
11353W        W27614  10.274  10.634  12.774 -0.0589  0.5551 -0.6015
11354W        W27615   6.577   1.567  12.358  0.0605  0.2440  0.0248
11355W        W27616  14.553  15.424   2.130 -0.1856 -0.0948  0.1713
11356W        W27617  11.611  14.468  14.703 -0.1170 -0.0163 -0.2212
11357W        W27618   2.001   2.976   2.331  0.1458 -0.3264  0.0236
11358W        W27619  10.371  18.163  12.060 -0.1665  0.2709  0.2443
11359W        W27620  10.161  18.734   4.093 -0.0530 -0.0671 -0.1427
11360W        W27621   0.033   7.888   2.724  0.1402 -0.0273  0.0270
11361W        W27622   2.683   7.917  11.349  0.1436  0.1144 -0.0745
11362W        W27623  14.960  10.150   1.678 -0.0095  0.0249  0.3750
11363W        W27624  14.666   7.367  14.217 -0.2070 -0.3438 -0.1918
11364W        W27625   6.341   3.513  12.039  0.1499 -0.4324 -0.4449
11365W        W27626  17.000  14.467   0.488  0.1605 -0.0186 -0.1207
11366W        W27627  15.844  16.483  12.958 -0.3347  0.2125  0.0849
11367W        W27628  12.026   0.256  12.143 -0.0070 -0.0585  0.2091
11368W        W27629   6.208  18.922   2.679  0.1407  0.0141  0.0370
11369W        W27630   2.431  12.853   1.802 -0.0258  0.1577  0.1591
11370W        W27631  13.291  14.748   0.843 -0.0199  0.2311  0.1246
11371W        W27632   7.118  15.530  14.238  0.0546 -0.0989  0.0609
11372W        W27633   5.721  12.347  11.874 -0.1261  0.0731 -0.2680
11373W        W27634   4.772  16.718   0.858  0.2473  0.3326 -0.0849
11374W        W27635   4.460  13.488  12.710  0.2084 -0.2405 -0.0958
11375W        W27636   6.029  16.396  14.735 -0.1276  0.1807 -0.0939
11376W        W27637   3.182  16.884   3.676 -0.0217  0.0209 -0.1578
11377W        W27638  17.392   5.390   2.567  0.1427  0.0529  0.0117
11378W        W27639  15.044   3.784   2.982 -0.0163 -0.1291  0.0510
11379W        W27640  14.709   2.467  13.649  0.0377 -0.3345 -0.1383
11380W        W27641  13.844  19.204  13.175 -0.1432 -0.0967 -0.0509
11381W        W27642  10.261  14.010   1.953 -0.2398 -0.1405 -0.1958
11382W        W27643   9.838  13.374   0.266  0.0290 -0.1231  0.2013
11383W        W27644   8.930   7.697  12.656  0.0041 -0.0906  0.3663
11384W        W27645   8.723   0.649   2.897  0.0344 -0.0327 -0.0202
11385W        W27646  11.877   1.746   4.252 -0.0591  0.2440 -0.0063
11386W        W27647   5.927   8.156  14.741  0.2016 -0.0393 -0.0690
11387W        W27648  10.012  15.167  13.584  0.2530  0.3042  0.0573
11388W        W27649   0.734   8.511  11.449  0.1530  0.1505 -0.1678
11389W        W27650  19.242   2.721  13.491  0.3178 -0.0212  0.1842
11390W        W27651   9.465   9.751   4.325  0.1976 -0.3723 -0.1485
11391W        W27652   8.862  16.056  13.756  0.0996  0.1195 -0.1682
11392W        W27653  17.150  15.694  11.801 -0.0942  0.0317  0.0594
11393W        W27654   4.693   7.569  13.652 -0.1592  0.1285  0.0792
11394W        W27655   6.506   0.183   4.374  0.1154 -0.0344  0.1065
11395W        W27656  17.755   4.909  13.030  0.0277  0.5055 -0.0451
11396W        W27657  12.568   3.794  12.457 -0.0512  0.0568  0.2247
11397W        W27658  10.628  13.834   0.667  0.3028 -0.0053  0.0839
11398W        W27659   0.314  13.322  11.937  0.0652 -0.2884  0.1670
11399W        W27660   0.886   7.570  13.281 -0.2197 -0.0546  0.1047
11400W        W27661   8.274   0.837  11.293  0.1940  0.0086  0.3595
11401W        W27662   0.714  16.808  14.700 -0.0031 -0.2071 -0.0543
11402W        W27663  11.662  16.553  12.358 -0.4541  0.2604  0.0334
11403W        W27664  17.875  17.603   2.283 -0.3000 -0.0875 -0.4236
11404W        W27665  18.716  13.307  13.441 -0.0400  0.1632  0.3025
11405W        W27666   6.147  12.538  14.419  0.3445  0.0374 -0.0431
11406W        W27667   4.215  17.891   1.316  0.0492  0.0573  0.1575
11407W        W27668   3.694   3.212  12.376 -0.2663 -0.5841  0.0301
11408W        W27669   7.994  10.135  12.273 -0.2857 -0.1102  0.0852
11409W        W27670  10.264  18.941  10.217  0.0854  0.0686 -0.0007
11410W        W27671   3.647  19.029  11.892  0.0202 -0.2234 -0.2974
11411W        W27672   2.615  14.743   2.581  0.0218 -0.1562  0.1312
11412W        W27673   1.227  13.934   1.569 -0.2596 -0.1703 -0.1442
11413W        W27674  13.182   6.939   1.562 -0.2865 -0.1417 -0.0725
11414W        W27675  12.890   8.027   2.404 -0.3857  0.0731 -0.1199
11415W        W27676  10.083   3.176   2.591  0.3054  0.0828 -0.0729
11416W        W27677  12.126  11.632   3.086 -0.0543 -0.3281  0.0110
11417W        W27678  14.308  12.465   2.488 -0.1627  0.1006 -0.1745
11418W        W27679   2.966   0.181   1.049  0.0924  0.1961  0.1252
11419W        W27680   0.345   6.777  11.125  0.4179  0.0329  0.1700
11420W        W27681   6.149   8.438   2.897 -0.3239  0.1233  0.3734
11421W        W27682  14.324   9.361  12.291  0.0184  0.0658 -0.0103
11422W        W27683  11.515  12.635  13.928  0.1001 -0.0123  0.0888
11423W        W27684  19.162  18.654   4.179 -0.1561 -0.0403 -0.0442
11424W        W27685   0.837   6.308  12.743 -0.2288 -0.3741 -0.0131
11425W        W27686  14.722  10.343   3.477 -0.0481  0.2992  0.0071
11426W        W27687  13.128  18.678  13.800 -0.3284  0.0196  0.0525
11427W        W27688  10.151  13.687  11.518  0.0745 -0.1955 -0.2821
11428W        W27689  15.903  12.048   3.383 -0.2367  0.1978 -0.0704
11429W        W27690   2.978  14.472  11.172  0.4764  0.2955 -0.0851
11430W        W27691   3.487   8.632   1.357  0.3323  0.1476  0.1313
11431W        W27692   1.303  15.998  10.437  0.1773 -0.1109 -0.3819
11432W        W27693  18.043  13.730  10.488 -0.2931 -0.0100  0.0483
11433W        W27694  19.129   8.210  13.560  0.1216  0.1224 -0.3243
11434W        W27695   4.651  10.277  10.630 -0.0418  0.0676  0.1085
11435W        W27696  17.306   9.890   4.450  0.1846  0.0973  0.0654
11436W        W27697  17.992  13.458  12.933 -0.1152  0.1169 -0.0191
11437W        W27698  10.941  18.801   0.594 -0.1300  0.0129  0.2100
11438W        W27699  18.917   3.057   4.705  0.0043  0.0785 -0.0927
11439W        W27700  19.215   3.791  11.231  0.2655  0.2052 -0.2727
11440W        W27701  10.984  12.543   3.030  0.1023  0.2417 -0.1139
11441W        W27702  18.135  18.764  12.187 -0.0867  0.0704 -0.1381
11442W        W27703  18.614  16.722  12.335  0.0168 -0.0486 -0.1617
11443W        W27704  12.180   0.339  14.458  0.2317 -0.1397  0.3008
11444W        W27705   0.955   3.855   5.172 -0.1323 -0.1200 -0.1490
11445W        W27706   3.093  19.350   2.740 -0.0648  0.1184  0.0317
11446W        W27707  17.591  19.087  10.981 -0.0760 -0.1017  0.0422
11447W        W27708  15.461  12.956  10.843 -0.0257  0.0305  0.1204
11448W        W27709  18.646   9.444   5.176 -0.1754  0.0122 -0.2792
11449W        W27710   2.584  15.729   3.507  0.1356 -0.2709 -0.0717
11450W        W27711  15.776   5.327  10.254 -0.0447  0.3049 -0.0709
11451W        W27712   5.337   2.529   0.971 -0.2896 -0.2066 -0.0885
11452W        W27713  12.738   3.795   3.535  0.0969 -0.1173 -0.2840
11453W        W27714  14.449   8.004   5.194 -0.2416 -0.3124  0.1303
11454W        W27715   6.648   4.715  11.959 -0.3850  0.0717 -0.3013
11455W        W27716   9.760   1.877  13.297 -0.2692 -0.2485  0.1882
11456W        W27717  15.424   8.299   3.665 -0.0243 -0.1437  0.0405
11457W        W27718   9.761  17.132  14.254 -0.2431  0.1322 -0.1822
11458W        W27719   4.890  16.371  11.513 -0.1034  0.1993  0.0618
11459W        W27720   6.154   9.594  13.666  0.1382  0.2325  0.2443
11460W        W27721   8.953   4.598  11.393 -0.3278  0.0399 -0.1221
11461W        W27722  12.921   7.194  12.344 -0.1202 -0.0613 -0.2485
11462W        W27723   2.330  14.943  12.556 -0.0351  0.0801 -0.0973
11463W        W27724  16.719   7.716   1.007  0.3834  0.0478  0.1134
11464W        W27725   2.512  16.953  13.849 -0.2163  0.3432  0.2026
11465W        W27726   1.459   7.431  14.529 -0.0205  0.0644 -0.0183
11466W        W27727   8.795  14.942   0.289  0.2466 -0.2680 -0.1661
11467W        W27728   4.958   2.128  14.870 -0.1210  0.1714  0.1460
11468W        W27729   1.627  12.113  10.540 -0.0676  0.2038  0.0658
11469W        W27730   9.713  12.306  11.761  0.4886 -0.3733  0.0586
11470W        W27731  16.389  13.363   2.268  0.1002 -0.5474  0.1336
11471W        W27732  13.235   8.840  14.094  0.1098  0.4335  0.2497
11472W        W27733  13.217   8.264   4.595  0.1012 -0.3174  0.2744
11473W        W27734   9.345  18.789  14.652 -0.2017 -0.0404  0.0099
11474W        W27735  10.195   5.745   2.404  0.1196  0.1021 -0.0027
11475W        W27736  15.816  17.063   3.913  0.0605 -0.1363 -0.3754
11476W        W27737  16.818   2.990  14.035 -0.2930 -0.0042  0.0986
11477W        W27738  11.577  12.488  11.249  0.3831  0.2052 -0.0207
11478W        W27739   4.349   8.760   2.434 -0.0526 -0.1163 -0.2798
11479W        W27740   0.836  17.402   4.392  0.0056  0.0601 -0.0016
11480W        W27741  17.917  12.046   4.343  0.3638  0.0289 -0.0149
11481W        W27742  17.152  18.597  14.545  0.2256 -0.0497 -0.3989
11482W        W27743  14.500   4.208   0.991 -0.1147 -0.2033  0.1116
11483W        W27744   7.680  11.960  12.988 -0.2724  0.0249  0.1860
11484W        W27745   2.135   8.495   1.620  0.1561 -0.0675  0.1054
11485W        W27746  13.659   6.165   3.825  0.0995 -0.0934  0.4914
11486W        W27747  10.391  15.680  14.168 -0.0459  0.0746 -0.0980
11487W        W27748  17.122  14.216  14.521  0.3087  0.4590  0.0509
11488W        W27749  15.464   9.006  13.427 -0.0855 -0.0839 -0.2411
11489W        W27750  17.257  17.982  13.096  0.2726 -0.0037  0.1141
11490W        W27751   5.533   6.836  10.384  0.0091  0.2658  0.5114
11491W        W27752   0.533  12.304  14.289 -0.0369 -0.1742  0.0426
11492W        W27753   5.399  16.208  11.488  0.3201 -0.3113  0.3770
11493W        W27754   1.719  17.353   0.452  0.2715 -0.3147  0.0476
11494W        W27755  16.571  16.340   1.079 -0.0938 -0.4032  0.1113
11495W        W27756   5.744  18.669   4.065  0.0983  0.0910  0.1362
11496W        W27757   4.345  17.790   2.204  0.2076 -0.1297  0.1422
11497W        W27758   1.921   8.036   4.261  0.1403  0.2384  0.0315
11498W        W27759  13.654   9.065  13.149 -0.0193 -0.0673 -0.1170
11499W        W27760   7.542   2.169   4.882 -0.2620  0.1286 -0.3239
11500W        W27761   4.457  18.510   1.076  0.1809  0.1305 -0.2613
11501W        W27762   8.956  13.578  14.035 -0.0381  0.0412 -0.0892
11502W        W27763  11.520   5.920  12.602  0.1054 -0.2167 -0.1831
11503W        W27764   9.629   3.030  14.023  0.1812 -0.2226  0.0991
11504W        W27765  10.413   0.779  13.768 -0.5651  0.0481  0.2224
11505W        W27766   5.939  19.415  14.740 -0.0617 -0.3274  0.5140
11506W        W27767  11.708   4.398  10.047  0.0362  0.0168 -0.0340
11507W        W27768   3.647   3.704   2.431 -0.0554 -0.0476 -0.4237
11508W        W27769   7.153   0.030   1.684  0.1397  0.2675 -0.0727
11509W        W27770   3.423   0.735  11.595  0.2359  0.3309  0.1288
11510W        W27771  17.846  13.179   2.805 -0.2645  0.1748  0.0742
11511W        W27772  12.936   3.033   5.210 -0.0052 -0.5282 -0.0897
11512W        W27773  11.975   5.125   1.155  0.0365  0.3274  0.0468
11513W        W27774  13.541   7.327  11.256 -0.1512  0.2623 -0.1262
11514W        W27775   6.907  10.109   4.842  0.1889 -0.2459 -0.1987
11515W        W27776   8.690  13.608  12.713  0.2981  0.0633  0.2274
11516W        W27777  16.739   4.131  10.963 -0.1105  0.0681  0.1171
11517W        W27778   0.290  10.999   3.345  0.0296 -0.0051 -0.0297
11518W        W27779  15.171   9.934  14.632 -0.1001  0.3642 -0.1786
11519W        W27780   6.428  19.314  12.877  0.4469  0.1519  0.1214
11520W        W27781   1.857  18.606   3.097 -0.2331 -0.1324  0.0108
11521W        W27782  12.619  12.751  12.320  0.1866 -0.0555  0.6191
11522W        W27783  18.656  14.951  11.380 -0.2061 -0.1623 -0.4430
11523W        W27784  10.941   0.633   5.423  0.2684  0.3136  0.1642
11524W        W27785   4.054  17.495  10.900  0.1117  0.0144 -0.0151
11525W        W27786   8.754  11.144   0.073 -0.0088 -0.0205 -0.0929
11526W        W27787   8.698  17.716   3.458  0.1497 -0.0311 -0.0101
11527W        W27788  11.378   8.402  14.446 -0.2188 -0.0165  0.1401
11528W        W27789   1.258  12.958   4.977 -0.0262 -0.0269  0.1276
11529W        W27790  15.541   7.467   3.771  0.1002  0.1606 -0.1594
11530W        W27791   0.737  12.261   3.786 -0.2268  0.0475  0.0595
11531W        W27792   8.360  15.802   2.036  0.3046  0.1275  0.2712
11532W        W27793   3.762  11.093  10.836 -0.4196 -0.2395  0.0109
11533W        W27794  12.141  15.189  13.275  0.1142 -0.1100  0.1847
11534W        W27795  11.896  15.529  10.724 -0.1153 -0.0377 -0.1635
11535W        W27796   4.400   0.230  12.443  0.1692  0.0293  0.0285
11536W        W27797  11.134  17.501  10.326  0.0942  0.0323  0.0367
11537W        W27798   3.135   6.163  12.920 -0.1918 -0.1966 -0.5077
11538W        W27799   2.511   4.643  14.219 -0.0333 -0.2111 -0.4054
11539W        W27800   4.963   4.612   0.222  0.0002  0.1869  0.2101
11540W        W27801   9.687  13.203   3.002  0.3035  0.0461  0.1026
11541W        W27802   3.224   2.524   2.532  0.1235  0.0154 -0.1267
11542W        W27803   6.646  15.827   1.043  0.1915  0.0034 -0.1558
11543W        W27804  10.177   4.876   3.093 -0.2545 -0.0793 -0.0634
11544W        W27805  13.654   9.870   1.360 -0.3219 -0.1295  0.4379
11545W        W27806  19.234   2.273   2.140  0.1653  0.1797  0.1714
11546W        W27807   6.153   6.999   4.209 -0.3088 -0.0292 -0.0728
11547W        W27808  17.338   2.131   0.118  0.2578  0.2012  0.1145
11548W        W27809   8.823   4.229   4.339 -0.3309 -0.1134  0.0683
11549W        W27810   0.257  15.608   4.104 -0.0716 -0.0229  0.4126
11550W        W27811   8.341  13.531   2.743  0.1471 -0.4083  0.2155
11551W        W27812  16.699   4.433   2.616  0.0778  0.3795 -0.0888
11552W        W27813  13.028   5.568  14.840 -0.3352  0.4390 -0.0860
11553W        W27814  10.023  13.578   3.572  0.1374  0.0801 -0.0944
11554W        W27815  16.758  16.641   2.548  0.2087  0.2843 -0.2157
11555W        W27816   5.349   9.980   2.793  0.0779 -0.0796 -0.0131
11556W        W27817   9.563  15.032   4.692 -0.0915 -0.1331  0.2283
11557W        W27818  12.484   7.505  13.534 -0.0040 -0.2087  0.4711
11558W        W27819  17.377  13.510   2.712  0.1972  0.0170  0.2134
11559W        W27820   4.427   8.380  13.593  0.0003 -0.1275 -0.1998
11560W        W27821  11.456  18.653  13.452 -0.2638  0.1693 -0.0593
11561W        W27822   2.418   3.857  12.059  0.0829  0.0451 -0.0265
11562W        W27823  16.601  16.502  13.323  0.0714 -0.3532  0.1219
11563W        W27824   3.357  14.547   5.026 -0.0666  0.1156 -0.0927
11564W        W27825  18.243  10.570   4.246  0.2077  0.0456 -0.0214
11565W        W27826  18.205  13.192  13.795  0.3189 -0.2716 -0.0691
11566W        W27827   4.934   8.697   5.380 -0.1803 -0.1824 -0.0334
11567W        W27828   3.394  11.396   1.896  0.0403  0.1457  0.0610
11568W        W27829   6.517   0.730  14.571  0.1521  0.2105 -0.3658
11569W        W27830   4.025   4.467   3.846  0.1793  0.1071  0.1952
11570W        W27831   0.561   6.704  12.536  0.0377  0.2149  0.1506
11571W        W27832  10.794  15.710  12.700  0.1005  0.1389  0.0646
11572W        W27833   2.655  18.037   2.073 -0.3350  0.1922 -0.0197
11573W        W27834  14.286   2.433  11.685  0.0392 -0.3669 -0.2000
11574W        W27835  17.971  14.990   3.744  0.3640  0.3235 -0.2467
11575W        W27836   0.680  10.528   0.270 -0.0209  0.0924  0.2545
11576W        W27837  15.914  18.634  14.085  0.2509  0.0368  0.1893
11577W        W27838  10.866   9.446   1.144 -0.0243 -0.0189 -0.1054
11578W        W27839   3.551   6.356   0.957 -0.1762  0.1469  0.0765
11579W        W27840   8.594  18.032  10.196  0.1102 -0.1042  0.3568
11580W        W27841  10.034  16.681   1.941  0.1535  0.3149  0.2867
11581W        W27842  14.850   5.975  10.707  0.0117  0.0778 -0.3183
11582W        W27843  19.052   0.905  14.621  0.0076  0.1668 -0.0818
11583W        W27844   1.675   2.317  11.074 -0.0682 -0.1687  0.1866
11584W        W27845   4.785   0.720   2.915 -0.0109  0.3482  0.0994
11585W        W27846  10.976   4.916  12.434 -0.2254 -0.0112 -0.4044
11586W        W27847  14.618   1.346  14.568  0.0924  0.0733  0.0778
11587W        W27848   7.904   4.639  11.714  0.2928 -0.0326  0.4801
11588W        W27849   2.033  18.269  11.512  0.0240  0.1694  0.2464
11589W        W27850  17.640   8.873   3.683  0.4690  0.0856  0.0742
11590W        W27851  14.086   6.787   4.918 -0.0361  0.0338  0.0616
11591W        W27852   1.224   0.816  11.394 -0.1691  0.1303 -0.0570
11592W        W27853   1.208   1.903   4.225  0.2396  0.0006 -0.1057
11593W        W27854   0.822   8.352   2.575  0.1001 -0.0420 -0.2400
11594W        W27855   4.704   9.502   2.350  0.4275  0.2199 -0.1182
11595W        W27856   8.216   9.922  11.507  0.2440 -0.1641 -0.0129
11596W        W27857  18.293  14.458   9.510  0.2427  0.1262 -0.0582
11597W        W27858  19.299  13.458   0.209  0.1500  0.0924 -0.0219
11598W        W27859   5.549   5.538   5.379  0.0422  0.3118 -0.0139
11599W        W27860   2.722   1.800  14.350 -0.2815  0.2882  0.0510
11600W        W27861   2.179  10.219  14.804 -0.1979  0.0991  0.1164
11601W        W27862  18.212  13.137  13.231  0.0773  0.4116  0.2373
11602W        W27863   7.834  11.330   2.871 -0.1080  0.1053 -0.0635
11603W        W27864  10.551   8.013   2.313  0.0427 -0.0084  0.4865
11604W        W27865  15.381  11.026  14.374  0.0577 -0.2853  0.2497
11605W        W27866   0.318  16.846  10.932  0.3046 -0.3170  0.2482
11606W        W27867   9.114   7.888   2.130 -0.2950 -0.0267  0.1352
11607W        W27868   7.280  13.661  11.558  0.3193 -0.2836 -0.3365
11608W        W27869   0.799  12.371   0.736 -0.2018  0.1215  0.0277
11609W        W27870  11.643  11.062  11.861  0.0057  0.2687  0.4502
11610W        W27871  11.755  10.751  11.469  0.1328  0.1903 -0.0800
11611W        W27872  16.648  17.436  13.409  0.1762 -0.1871 -0.2223
11612W        W27873  14.671  16.818   0.363  0.3950 -0.3411 -0.0164
11613W        W27874  17.842  15.941   3.687  0.1984  0.0868 -0.1400
11614W        W27875  12.368  18.479   9.851 -0.0151  0.0621 -0.1014
11615W        W27876   9.261   3.725   0.551 -0.5284 -0.3585  0.1315
11616W        W27877  18.849   8.917  12.262  0.0710 -0.2262  0.3120
11617W        W27878  15.301   6.604   3.601  0.2848 -0.0979 -0.1582
11618W        W27879   1.547  14.405   0.401  0.0308  0.3487  0.1157
11619W        W27880  13.093  11.687  14.669  0.0919 -0.3381  0.2981
11620W        W27881   7.551  15.223  14.077  0.0752 -0.1642  0.0284
11621W        W27882  10.680   4.294  10.864 -0.0535  0.1991  0.1186
11622W        W27883  10.088   4.713   1.128 -0.2498 -0.0541  0.2584
11623W        W27884   1.909  11.914   4.244 -0.2517 -0.2806 -0.0050
11624W        W27885  11.278  14.790   0.281 -0.0352  0.1751 -0.4496
11625W        W27886  18.390  10.506  10.824 -0.4455  0.3059 -0.0459
11626W        W27887  12.338  10.717   9.999 -0.4310  0.2459  0.0822
11627W        W27888  16.229  12.923   4.745 -0.1021 -0.4204 -0.0246
11628W        W27889   8.260   0.520   3.802  0.0081  0.0976  0.3789
11629W        W27890   9.689   5.147   3.164 -0.0421 -0.1138  0.1530
11630W        W27891  15.138   4.809  10.490 -0.0255 -0.3188 -0.0543
11631W        W27892   2.727   6.442   1.937 -0.2333  0.0232 -0.0788
11632W        W27893  18.037   0.564   2.251 -0.1413  0.2959  0.1514
11633W        W27894   6.631  16.048   3.245  0.0332  0.3939 -0.0427
11634W        W27895  13.121  16.396   0.681 -0.3863 -0.0073 -0.4759
11635W        W27896  13.916   8.568  11.023  0.0254 -0.1755 -0.1295
11636W        W27897   0.064   6.172   1.988  0.2209  0.0027  0.0808
11637W        W27898   1.973   0.946   0.439  0.2566 -0.0765  0.3644
11638W        W27899   5.977  14.881   3.499 -0.0659 -0.2387  0.0137
11639W        W27900  18.553   0.294   0.813  0.4640  0.0162 -0.4226
11640W        W27901  13.702   5.984   4.794  0.0637 -0.0184  0.1395
11641W        W27902   4.990  18.177   3.974  0.1622  0.0517 -0.0024
11642W        W27903   8.188   8.194   1.114  0.2933  0.0113  0.0816
11643W        W27904  15.877   4.253   3.731  0.0891  0.0765  0.1718
11644W        W27905  16.315   9.708  10.398 -0.0967  0.0953 -0.2431
11645W        W27906   5.058  18.577  11.927  0.1343  0.0444 -0.0765
11646W        W27907   7.951  13.883  10.796 -0.1879  0.3867 -0.0347
11647W        W27908   0.794  15.821   2.415 -0.2120  0.1154 -0.0027
11648W        W27909   0.602  17.240  13.659  0.1100  0.3958 -0.0407
11649W        W27910   3.019  17.117  12.981  0.0849 -0.2644  0.1119
11650W        W27911   5.809  17.905  14.702  0.1141 -0.1023  0.3947
11651W        W27912   5.196  16.521  12.757 -0.3518 -0.1628 -0.1778
11652W        W27913  16.639  13.192   4.894 -0.0162  0.0644  0.1097
11653W        W27914  18.215   3.515   0.371 -0.2827 -0.1801 -0.0637
11654W        W27915  19.250   8.154  14.597  0.1382 -0.0490  0.0492
11655W        W27916  14.455   2.811  12.327 -0.0895 -0.2965 -0.1714
11656W        W27917  18.650   0.074  12.668 -0.0472  0.2369 -0.2232
11657W        W27918   1.949  12.352   0.056  0.0116 -0.0940 -0.3464
11658W        W27919  16.101  17.237  10.040  0.0488 -0.0912 -0.2785
11659W        W27920   4.045  18.854   4.892  0.0656 -0.0599 -0.2773
11660W        W27921   0.557  12.637   3.449  0.0652 -0.3806 -0.0588
11661W        W27922  13.926   4.923   4.019 -0.0763  0.0065 -0.0990
11662W        W27923  19.404   6.212   0.759 -0.2227  0.2120  0.1110
11663W        W27924   0.932  19.075   3.535 -0.2077 -0.0776 -0.0089
11664W        W27925   8.734   3.205   4.770  0.2221  0.0257 -0.0101
11665W        W27926  18.395   4.834   2.218  0.0126  0.0199  0.0398
11666W        W27927   7.198   7.818   5.109  0.1011 -0.0990  0.0123
11667W        W27928  18.291   8.368   2.573 -0.1169  0.0386  0.0818
11668W        W27929   8.926  16.891   1.219  0.0068 -0.0403  0.1262
11669W        W27930   8.026   3.985   0.018 -0.0961  0.0283  0.2373
11670W        W27931  14.402   1.499   4.106  0.2362 -0.1549  0.1472
11671W        W27932   7.309  18.189  11.283 -0.0221  0.0961  0.1740
11672W        W27933   5.109  15.530   2.213 -0.0500  0.0691 -0.3396
11673W        W27934   9.153   2.426   3.787  0.0152  0.0503 -0.1258
11674W        W27935  18.056  16.651   9.622 -0.1264  0.1012 -0.0473
11675W        W27936  15.881  15.893  14.417  0.1449  0.1174  0.1667
11676W        W27937  19.133   7.231   2.039 -0.3235  0.2450 -0.1204
11677W        W27938   1.259   5.319  10.804  0.1311  0.2872 -0.0891
11678W        W27939   3.535  16.925   2.639  0.0969  0.1705 -0.4649
11679W        W27940   5.370  12.003  11.327 -0.0603  0.0486 -0.0766
11680W        W27941   6.728  13.804  13.915 -0.1742  0.3027 -0.2041
11681W        W27942  12.669   2.415  14.653  0.0648 -0.1173 -0.2117
11682W        W27943  15.327   0.780   4.882 -0.0021 -0.2348  0.0173
11683W        W27944  18.016   8.155   0.647  0.0750 -0.2774 -0.0101
11684W        W27945   2.410  17.547   1.334  0.5045 -0.1273 -0.1464
11685W        W27946   5.687  14.862   3.063 -0.2757 -0.1110 -0.0494
11686W        W27947  12.888  14.087  11.558  0.1593  0.2259 -0.0700
11687W        W27948   0.171  11.612  12.306  0.0688  0.1371 -0.0897
11688W        W27949   3.201  15.060   4.979  0.0362  0.1231  0.0529
11689W        W27950   5.682   8.802   2.049  0.1018  0.2115 -0.0500
11690W        W27951   4.452   7.307  12.037  0.1185 -0.3534 -0.3533
11691W        W27952  13.346   7.370  13.257 -0.0841  0.3851  0.1791
11692W        W27953   3.194   0.419   3.856 -0.2248  0.0760  0.1026
11693W        W27954  13.801  14.555   0.278  0.1214  0.0185  0.1043
11694W        W27955   9.371   9.665  10.904 -0.3768 -0.1056 -0.1825
11695W        W27956   6.443   8.892   3.023  0.0619  0.1138 -0.0787
11696W        W27957   4.704  17.233  14.301  0.5140  0.0239 -0.4692
11697W        W27958   4.586   1.498   2.120 -0.2140 -0.1489  0.0806
11698W        W27959  10.778  10.175   0.313  0.3120 -0.0448 -0.0099
11699W        W27960   3.195  18.533  14.491 -0.0698  0.2957  0.1419
11700W        W27961   4.607   6.358  12.339 -0.4653 -0.5176  0.3100
11701W        W27962   8.328   1.547  13.279  0.0954 -0.0965 -0.2920
11702W        W27963   9.163  13.513  12.393  0.2937  0.1478 -0.1756
11703W        W27964   2.851   7.365   1.988 -0.5008  0.2535  0.0840
11704W        W27965  13.760  15.507  13.337  0.0470  0.1053 -0.2213
11705W        W27966  17.500   1.321  12.272  0.2839  0.1868  0.1266
11706W        W27967   0.650  11.696   3.568  0.0593  0.0202 -0.0769
11707W        W27968   9.630  14.611   9.183 -0.0478 -0.2135 -0.0385
11708W        W27969   3.136  18.199   5.428  0.1377  0.0600  0.1167
11709W        W27970  14.282   6.614  12.588 -0.3201 -0.0171  0.1599
11710W        W27971   7.929  17.037   1.254  0.0687  0.0290  0.2006
11711W        W27972   6.879   3.436   3.253 -0.0935  0.2333 -0.1994
11712W        W27973   7.633  18.463   1.119 -0.0200 -0.1431 -0.0957
11713W        W27974  15.888  11.536   0.863  0.0261  0.0380  0.1265
11714W        W27975  18.790   9.709   3.659 -0.2641 -0.1556  0.0394
11715W        W27976   6.540   5.322  12.123 -0.2817 -0.4809  0.2767
11716W        W27977   8.676  14.427   2.476  0.1052  0.1178  0.1646
11717W        W27978   7.878  13.388   0.617  0.1823  0.2140  0.1094
11718W        W27979  15.998   2.285   1.200  0.1558 -0.3864 -0.2967
11719W        W27980   4.857   6.985   5.309 -0.0113 -0.1122 -0.3087
11720W        W27981   0.046  19.406  11.774  0.0592 -0.2012 -0.1508
11721W        W27982  16.533  12.992   0.783 -0.2781 -0.2365 -0.0105
11722W        W27983  17.268  18.101  13.942 -0.0652 -0.2386  0.0081
11723W        W27984  10.187  10.976   0.448 -0.1868 -0.0073 -0.0226
11724W        W27985   4.416  10.872  11.284  0.1255  0.2763 -0.1056
11725W        W27986   9.641  18.047  12.606 -0.0208  0.1099  0.1484
11726W        W27987   4.028   5.862   3.872  0.4383 -0.2465  0.0139
11727W        W27988   0.291  12.749   3.847  0.2251  0.0341  0.0620
11728W        W27989   8.657   1.687   1.492 -0.0525 -0.0652  0.0678
11729W        W27990   1.940  14.491   9.651 -0.3039  0.1525 -0.4202
11730W        W27991   3.309   1.288  11.097 -0.0264 -0.1220  0.1137
11731W        W27992   4.803   8.162   4.927 -0.1719  0.1330 -0.0783
11732W        W27993   8.160  17.841  12.264 -0.0604  0.1892 -0.3882
11733W        W27994  11.718  11.860   2.224  0.2474  0.0436  0.0016
11734W        W27995   5.659  12.432  14.401 -0.1407 -0.0134 -0.1769
11735W        W27996   6.737   9.226  14.635 -0.1698 -0.2652 -0.4526
11736W        W27997  17.160   3.301   9.633 -0.1804 -0.3132 -0.0136
11737W        W27998  18.003   4.299   4.565 -0.1682 -0.3501 -0.4626
11738W        W27999   1.233   9.448  10.389  0.1072  0.0905 -0.2944
11739W        W28000  19.326   1.395  13.750 -0.0243 -0.2888 -0.1065
11740W        W28001  13.844   6.409   5.124 -0.0720 -0.0706 -0.2879
11741W        W28002  17.006   1.460   4.599  0.1223 -0.0372 -0.2363
11742W        W28003   5.616   6.784   0.079 -0.0339  0.0738 -0.1127
11743W        W28004  17.572  10.981  11.658 -0.1266 -0.2373  0.2010
11744W        W28005   3.222  11.842  11.562 -0.1559 -0.2545  0.1494
11745W        W28006  14.205  18.354  12.807 -0.2490  0.3892 -0.0478
11746W        W28007  12.482  16.285  12.129 -0.0254 -0.0204 -0.1075
11747W        W28008  15.884  12.355   3.767 -0.1189 -0.2026  0.3815
11748W        W28009   2.585  15.707   2.452 -0.2812  0.2681  0.1246
11749W        W28010  15.678  17.672  10.925 -0.1955 -0.1946 -0.1062
11750W        W28011   2.785  10.613  12.190 -0.3826 -0.1597  0.0785
11751W        W28012   3.947   3.014  11.073 -0.2004 -0.1639 -0.2713
11752W        W28013   1.949  16.894  12.124  0.0853 -0.1417  0.3159
11753W        W28014   7.224   6.168   2.082  0.0582 -0.2450 -0.1268
11754W        W28015  16.179  12.100   2.969  0.2229  0.2354  0.2238
11755W        W28016   8.093  10.308   5.125 -0.2213 -0.3846 -0.1693
11756W        W28017   2.419  18.458   2.179  0.1071 -0.0116  0.0019
11757W        W28018   5.651   6.331  14.013 -0.0539  0.0044  0.1521
11758W        W28019   7.828   9.923   1.988 -0.1017  0.2959  0.0442
11759W        W28020   2.002  16.333   0.413 -0.3447  0.0525 -0.0151
11760W        W28021  14.185  11.799   3.190  0.0710  0.4228 -0.0709
11761W        W28022   8.313  11.701  11.351 -0.0208  0.0315  0.3318
11762W        W28023  15.913  11.674  11.539 -0.0154  0.5116 -0.3834
11763W        W28024  17.497   2.670  14.692 -0.0848  0.3112  0.0763
11764W        W28025  15.074  19.424   2.225 -0.0942  0.0376 -0.3071
11765W        W28026  16.285   3.586   5.141 -0.3646 -0.0108 -0.3967
11766W        W28027  13.035   2.583   5.426 -0.1575 -0.1775 -0.1368
11767W        W28028   8.947  14.242  11.306 -0.0456  0.1769 -0.0046
11768W        W28029   9.614  19.418  14.069  0.1699  0.0521  0.0095
11769W        W28030   7.039  14.557   1.580 -0.0715  0.0801 -0.3619
11770W        W28031   3.203  17.396   0.129 -0.0771 -0.1624  0.1118
11771W        W28032  13.892  16.453  12.022  0.0090 -0.0712  0.0906
11772W        W28033   2.171   5.994   2.693 -0.4503  0.2157 -0.5651
11773W        W28034  14.886  19.199  14.250 -0.2974  0.0167  0.1036
11774W        W28035   9.594  15.527   5.186 -0.5742 -0.2143  0.1988
11775W        W28036  15.916  16.863  13.884 -0.2175 -0.1042  0.1027
11776W        W28037   8.451  19.280  12.216 -0.0814  0.1693  0.0484
11777W        W28038  14.345  12.982  10.118 -0.0739  0.1336  0.0191
11778W        W28039   0.664  11.751  13.818 -0.2718 -0.2125 -0.0662
11779W        W28040   0.734   7.912  14.139 -0.0205  0.2315  0.0742
11780W        W28041  12.912   0.798   0.599  0.0395  0.3463  0.1792
11781W        W28042   9.934   4.397   2.488  0.0449 -0.0095 -0.2191
11782W        W28043   4.346  19.176  14.371 -0.2314  0.1057  0.1449
11783W        W28044   0.461  14.239   3.482 -0.1054  0.0082  0.0496
11784W        W28045   5.956  15.819   1.844 -0.2283 -0.2119 -0.2263
11785W        W28046  16.743   9.282   2.460 -0.3208 -0.0644  0.2019
11786W        W28047   6.451   6.842  13.650 -0.0595  0.0120 -0.2074
11787W        W28048   2.884   7.477  11.029  0.2229 -0.1497 -0.1661
11788W        W28049  12.850   4.324   5.770 -0.1301  0.2878 -0.2278
11789W        W28050   1.317   6.072   1.758 -0.1387 -0.0508  0.1748
11790W        W28051  17.504   4.885  14.801 -0.0741  0.1952 -0.2477
11791W        W28052  18.163  10.217   5.375  0.3392 -0.1550  0.0498
11792W        W28053  16.257   8.647  13.174  0.2673 -0.1821  0.0074
11793W        W28054   4.871   5.381   1.595 -0.1059 -0.1321 -0.0979
11794W        W28055  17.371  11.610  12.730 -0.1802 -0.0041  0.3032
11795W        W28056   7.392   4.932   1.427 -0.1388 -0.1971  0.0476
11796W        W28057   5.004  13.495  14.348 -0.0221 -0.1190  0.1720
11797W        W28058  11.992  17.308  12.825  0.3101 -0.0007 -0.4000
11798W        W28059   6.641  14.483  14.493 -0.0807  0.3788 -0.1725
11799W        W28060  13.140   9.792  14.284  0.1009 -0.1045 -0.0485
11800W        W28061   5.856   3.372   2.668  0.1369  0.5258  0.0760
11801W        W28062   9.098  16.135   4.529 -0.2959  0.0876  0.3705
11802W        W28063  18.921  11.231  12.250 -0.5834  0.1308 -0.1856
11803W        W28064  18.091   2.733  14.528 -0.1989 -0.1559 -0.1382
11804W        W28065   5.046   9.878  12.821  0.0298  0.1751 -0.3771
11805W        W28066  18.738   2.016  13.713  0.1923 -0.1717  0.1063
11806W        W28067   4.761  11.819   3.942 -0.0323 -0.0603  0.1588
11807W        W28068  16.834  15.512  13.543  0.1295 -0.0303  0.1857
11808W        W28069   7.063  10.437   3.362  0.0944  0.1126  0.0243
11809W        W28070   8.641  15.753  12.834 -0.0841  0.2953  0.1502
11810W        W28071  14.552  14.841   2.751 -0.1374 -0.0201  0.0944
11811W        W28072  10.917   4.636   1.809 -0.0825  0.1696 -0.0691
11812W        W28073  18.959   3.862   3.913  0.2957  0.0073 -0.6254
11813W        W28074  13.199   1.377  12.851  0.1076 -0.2106 -0.1494
11814W        W28075   3.394   3.880  14.307  0.1816 -0.2413  0.0503
11815W        W28076  12.437  10.558   0.984 -0.0520 -0.0804  0.0754
11816W        W28077  16.492  10.285   4.793  0.1391 -0.1464  0.0170
11817W        W28078   6.221   9.417  11.161 -0.1258 -0.0542 -0.1166
11818W        W28079  17.170  14.561   0.009 -0.0723  0.0217  0.1464
11819W        W28080  15.127   3.063  12.993  0.0531  0.1526  0.0825
11820W        W28081  12.780  11.184   2.017 -0.0406 -0.1591  0.1680
11821W        W28082   6.205  12.233   0.433  0.2570 -0.4042 -0.0716
11822W        W28083   8.365  12.196  10.591  0.0974 -0.1151  0.0388
11823W        W28084  18.835  10.253  10.980 -0.0194 -0.0801  0.2907
11824W        W28085   7.777   1.649  14.813  0.4415 -0.0691 -0.1536
11825W        W28086  10.808   3.715   3.829  0.0808 -0.0184  0.5733
11826W        W28087   0.314  16.527   4.492  0.1102 -0.2960 -0.0677
11827W        W28088  12.919  16.388  11.097  0.1931  0.2282  0.1712
11828W        W28089  19.011  11.116  11.778  0.0100  0.2398 -0.1065
11829W        W28090  15.154  16.970  11.128 -0.0157 -0.2474 -0.0622
11830W        W28091   7.907   2.856   3.090  0.1520  0.3916 -0.1544
11831W        W28092  17.966   3.596  11.053 -0.0475  0.0195  0.2894
11832W        W28093   9.305   5.363  14.425 -0.1496  0.0135  0.1470
11833W        W28094  12.602   2.753   5.632 -0.1950 -0.1879  0.2140
11834W        W28095   3.883   3.136   4.310  0.2464 -0.0792  0.0310
11835W        W28096   5.011  13.851   3.348  0.3349  0.0241 -0.3630
11836W        W28097  14.487   3.154   0.398 -0.2365 -0.0984 -0.2054
11837W        W28098   4.745  11.431   0.049 -0.1291 -0.0600 -0.0950
11838W        W28099  14.498   9.415   9.906  0.4641  0.0835 -0.1203
11839W        W28100  12.245   7.871  10.953  0.0027  0.2194 -0.0985
11840W        W28101  10.891   5.699   3.186  0.0727  0.2264 -0.2285
11841W        W28102   9.413   3.289  14.418  0.2152  0.0184 -0.2004
11842W        W28103   2.939   9.404  14.219  0.4122 -0.2679 -0.0553
11843W        W28104  12.691  13.043   2.940 -0.0743 -0.0180  0.0892
11844W        W28105  10.456   6.673  14.175 -0.1152 -0.2447 -0.0756
11845W        W28106  10.183  16.192   3.892 -0.0573 -0.1906  0.0607
11846W        W28107  14.788   6.187   2.556 -0.0564  0.1245 -0.1503
11847W        W28108  16.548   6.961  12.232  0.0140 -0.0687  0.0470
11848W        W28109  12.388  12.986   0.805  0.1022  0.0341  0.0244
11849W        W28110   2.847   3.510  11.115 -0.2680 -0.3420  0.0046
11850W        W28111   3.443   6.666   1.414  0.0419  0.1513 -0.1400
11851W        W28112   8.594   2.342   0.029  0.3465  0.0556 -0.1634
11852W        W28113   0.036  19.046   3.319  0.0412 -0.2880 -0.1647
11853W        W28114   7.418  10.193  10.069 -0.3249  0.0114  0.0879
11854W        W28115   6.059   7.965   2.082 -0.4600 -0.0026 -0.3418
11855W        W28116  17.099  17.303  11.612 -0.2843 -0.0986  0.0226
11856W        W28117   9.585  18.832   3.952 -0.1632  0.3350 -0.0455
11857W        W28118   0.867  11.354   0.372  0.0213 -0.0560  0.0676
11858W        W28119  10.260   5.033  14.302 -0.1517 -0.2708  0.1432
11859W        W28120   6.862   4.908   3.487  0.0559  0.0733  0.0382
11860W        W28121   7.648  12.791   2.723 -0.0480 -0.0871  0.0026
11861W        W28122  18.935  13.286  11.498  0.1796 -0.1599  0.0795
11862W        W28123   0.151  19.381  14.173 -0.3215  0.2879  0.2897
11863W        W28124   4.341   5.186  14.755  0.0825  0.2741 -0.2966
11864W        W28125   3.502  11.448  11.031 -0.0794  0.2144 -0.0307
11865W        W28126   7.235   9.962  12.577 -0.2885  0.3290 -0.0201
11866W        W28127   7.914  18.849   3.015 -0.3264 -0.2538 -0.2212
11867W        W28128  18.392   6.806  14.708 -0.0462  0.3968 -0.0768
11868W        W28129   3.465   4.144  14.800 -0.1392 -0.2216  0.3103
11869W        W28130   4.068   5.020   2.188 -0.1579  0.1058  0.1676
11870W        W28131  18.967  10.532   1.067 -0.0896 -0.0860 -0.1125
11871W        W28132  16.591   3.900   4.865  0.2734  0.0340  0.2329
11872W        W28133   1.580  18.346   3.582  0.2456  0.0676  0.0593
11873W        W28134   5.137  13.926   4.142 -0.4072  0.2148  0.1767
11874W        W28135   2.416   5.997  11.757  0.1401 -0.1381 -0.0703
11875W        W28136  18.131  16.663   0.721  0.1871  0.0746 -0.0902
11876W        W28137  14.970  15.558   4.334 -0.1428 -0.1173  0.1681
11877W        W28138   3.124   0.354   2.451  0.1877 -0.3605 -0.1273
11878W        W28139  11.286  13.918   0.424 -0.4069  0.0556  0.0689
11879W        W28140   9.375   0.549   4.633  0.2176  0.2144  0.0941
11880W        W28141   0.167   1.566   3.004 -0.1464 -0.3524 -0.1176
11881W        W28142  10.985  13.129   3.870 -0.5032  0.5139 -0.2506
11882W        W28143   0.025   4.176   0.842 -0.0770  0.2884 -0.3384
11883W        W28144  12.218   5.821  11.546 -0.0093  0.1058  0.2405
11884W        W28145   9.944  19.287   2.815 -0.2166 -0.0468 -0.3175
11885W        W28146   8.891   0.818  12.598  0.0243  0.0595 -0.2578
11886W        W28147   9.819   1.475   0.695  0.1859  0.1786  0.2916
11887W        W28148  11.570  12.811   0.722  0.1967  0.0606  0.1154
11888W        W28149  17.135   3.711   5.632 -0.1727 -0.0037 -0.2871
11889W        W28150   4.169  15.796   1.862  0.2189  0.2842  0.0993
11890W        W28151   7.111   1.724  12.220  0.1171 -0.1159 -0.1312
11891W        W28152  18.298  19.146  12.767  0.3029  0.1593 -0.4327
11892W        W28153  15.806   7.752   1.042 -0.0226 -0.0025  0.0078
11893W        W28154  15.993   1.216  13.023  0.0066 -0.1003  0.0532
11894W        W28155  10.629  17.155   3.149  0.5068 -0.1957 -0.0210
11895W        W28156  15.121   1.868  11.419  0.3402  0.2535 -0.2348
11896W        W28157   9.296   0.599  14.736 -0.3473 -0.1247 -0.0993
11897W        W28158  15.815   1.081  10.576  0.2268  0.0187  0.0216
11898W        W28159  16.037  12.824   3.862  0.1134  0.2678  0.1955
11899W        W28160  14.808  14.536   2.406  0.0629 -0.2013 -0.2235
11900W        W28161  14.428   7.541   1.740 -0.0027 -0.0069 -0.2346
11901W        W28162  14.850  10.516  12.373  0.0398 -0.0988 -0.2000
11902W        W28163  16.846  13.392   0.640 -0.1780 -0.1479 -0.2844
11903W        W28164   0.823  11.890   5.137  0.1138 -0.1371 -0.4381
11904W        W28165  10.424  13.607   4.655  0.0695 -0.2318  0.0389
11905W        W28166   7.253  10.709   1.657  0.0108  0.1363  0.1648
11906W        W28167   0.651   3.309   3.435 -0.0221  0.0505 -0.3044
11907W        W28168   3.751   6.633  11.715  0.0263  0.0111  0.0453
11908W        W28169  19.362  12.363   0.455 -0.1331  0.1155  0.0692
11909W        W28170  12.131   2.658   4.074 -0.0750 -0.2697 -0.1323
11910W        W28171   2.082   7.224   4.994  0.2705  0.1383  0.1364
11911W        W28172   9.960   4.349   0.763 -0.0728 -0.0255 -0.0031
11912W        W28173  10.416   4.028  13.802  0.1857  0.0810  0.2125
11913W        W28174  17.852  10.376  14.298  0.3582 -0.0293  0.2396
11914W        W28175  12.446   5.635  10.720  0.2915  0.1458 -0.0296
11915W        W28176  16.040   4.887  12.331 -0.2002 -0.2201 -0.1169
11916W        W28177   5.773  16.988   1.071 -0.2122 -0.3498 -0.1005
11917W        W28178  10.226  14.864   2.362  0.0376 -0.0479  0.3439
11918W        W28179  10.908   3.125   4.916  0.0328  0.0883 -0.0076
11919W        W28180   9.380   2.217  12.413  0.0560  0.2973 -0.0977
11920W        W28181   0.578  18.277  13.133 -0.3198 -0.0802  0.3823
11921W        W28182  11.767   7.567   4.010  0.1118 -0.1683 -0.1795
11922W        W28183  14.969  15.384  10.170  0.2162 -0.0604  0.2486
11923W        W28184  12.641   3.408   2.599 -0.2151 -0.2746 -0.0435
11924W        W28185   3.973  14.822   2.689  0.1205  0.3271  0.0726
11925W        W28186  19.111   8.766  10.092  0.0205 -0.0379 -0.2063
11926W        W28187   7.769   5.867   2.353 -0.1348 -0.1883 -0.2016
11927W        W28188  18.469   6.072   3.313 -0.0031  0.3471  0.1274
11928W        W28189  15.067  12.991  14.121 -0.0166 -0.1159 -0.1923
11929W        W28190   6.655   3.924   4.758 -0.0973  0.0870  0.0581
11930W        W28191  11.418  18.038  14.338 -0.0524  0.0459 -0.2755
11931W        W28192  16.799   7.130  10.601  0.3840  0.0851 -0.2728
11932W        W28193  14.523   8.126  11.934 -0.0299  0.2099 -0.0512
11933W        W28194  14.272   6.747   3.613 -0.2366 -0.1790 -0.2725
11934W        W28195  13.069   5.063   5.265  0.1166 -0.2851  0.0235
11935W        W28196  11.649   3.510   1.301  0.1286  0.2400 -0.1340
11936W        W28197  11.934   1.592   2.839  0.3149 -0.0470 -0.0247
11937W        W28198  11.491   7.216   3.129  0.2005 -0.1913  0.0456
11938W        W28199  19.209   7.637  12.501 -0.4135 -0.1705  0.1501
11939W        W28200  15.581   2.893  10.790 -0.0513 -0.1195 -0.3420
11940W        W28201   9.715  18.703   1.543  0.1056 -0.2069  0.0817
11941W        W28202  13.437   8.747   2.037 -0.5174 -0.1661  0.0593
11942W        W28203   2.565   5.762   1.284  0.0621  0.0016  0.1456
11943W        W28204   0.212   8.738   1.912 -0.1983  0.0783 -0.1770
11944W        W28205  16.707   8.764  10.515  0.0429 -0.1419 -0.0558
11945W        W28206   6.775  18.915  11.575 -0.0607 -0.0155 -0.3268
11946W        W28207   7.257  16.019  11.616  0.0229 -0.5297 -0.2690
11947W        W28208   7.823  15.729   1.395  0.0609 -0.0279 -0.4007
11948W        W28209  11.800  17.059  12.162 -0.3425  0.1388  0.0392
11949W        W28210  13.482   3.286   3.521  0.2083  0.0781 -0.3389
11950W        W28211  14.562  17.606  10.541 -0.0997 -0.3218  0.3201
11951W        W28212   0.912  11.980   0.161  0.2891  0.3504 -0.2695
11952W        W28213  14.516  13.212   3.163  0.0356 -0.0989 -0.2300
11953W        W28214  17.039  13.333   0.154 -0.1894  0.1064  0.2378
11954W        W28215   1.545   3.794   2.712 -0.1397 -0.0871 -0.0192
11955W        W28216  14.885   2.447  12.409  0.0323  0.2789  0.1395
11956W        W28217   2.110   4.917   0.111 -0.4840  0.0102  0.0791
11957W        W28218  14.478   0.627  14.197  0.1578  0.1720 -0.2148
11958W        W28219   8.468   1.922   0.347 -0.2413 -0.0627  0.1397
11959W        W28220  14.613   9.051  13.945 -0.2010  0.0516 -0.1327
11960W        W28221   7.933  14.383   3.204 -0.3147 -0.0422 -0.0685
11961W        W28222   3.706   7.938   1.811 -0.0148  0.0758  0.0640
11962W        W28223   2.379  13.777   0.408  0.1534  0.2198  0.1581
11963W        W28224  12.246  13.357   0.465  0.0235 -0.2015  0.0722
11964W        W28225   9.007  10.770  14.519 -0.1454 -0.2519 -0.0617
11965W        W28226  12.316   7.826   1.414  0.4525  0.0669 -0.1138
11966W        W28227  13.190  15.350  12.979  0.0639 -0.3822 -0.0217
11967W        W28228  14.992  15.356   3.895  0.0867  0.3373  0.1074
11968W        W28229   6.579  14.246   2.256  0.1771 -0.1814  0.0996
11969W        W28230   8.847   7.508  11.385 -0.0367  0.3894 -0.0207
11970W        W28231  17.752  12.061  11.733  0.1273 -0.1032 -0.1412
11971W        W28232  18.659  11.325   0.708 -0.1415  0.0967 -0.2651
11972W        W28233  10.872   1.508   0.593  0.2475  0.1328  0.2557
11973W        W28234   9.378   0.596   3.763  0.2471  0.0952 -0.1182
11974W        W28235  16.914   4.298   5.368  0.2112 -0.2595 -0.0512
11975W        W28236   2.459  18.816  14.006  0.0435  0.1078 -0.1850
11976W        W28237   2.342   3.421  13.022 -0.1028 -0.0205 -0.0422
11977W        W28238   5.129   0.691  11.430  0.2707 -0.2876 -0.1011
11978W        W28239   4.436  18.819   3.790  0.2823  0.0675 -0.1541
11979W        W28240   7.305  10.401   0.479  0.0140 -0.2038 -0.1605
11980W        W28241   9.921  12.525   4.377 -0.2400 -0.1086 -0.1356
11981W        W28242   1.596   1.518  12.897 -0.1554 -0.2323  0.2538
11982W        W28243  11.920   0.177   3.513  0.2226 -0.1533  0.1554
11983W        W28244  17.388  16.077   4.050 -0.3180  0.2238 -0.1947
11984W        W28245   4.093  11.749  11.825  0.2790 -0.0706  0.1436
11985W        W28246  15.660  19.331   2.591  0.1238 -0.0498 -0.2157
11986W        W28247   6.928  11.267   3.975  0.0488 -0.1102 -0.0671
11987W        W28248   6.169   0.688  12.248  0.0148  0.0405  0.0552
11988W        W28249  12.863   7.969   1.467 -0.3674 -0.2335  0.0640
11989W        W28250  14.584   6.316  11.267 -0.1239 -0.4525  0.1644
11990W        W28251   1.302   5.253   5.003 -0.1306  0.0875 -0.0856
11991W        W28252   4.594  14.650   3.968  0.1791 -0.0622 -0.0760
11992W        W28253  12.448   3.923   3.079  0.1671  0.0575  0.0329
11993W        W28254  12.711  12.609   0.764  0.0281  0.3047  0.1184
11994W        W28255  15.869  17.755   3.234  0.4433 -0.2714 -0.1491
11995W        W28256  18.039   9.964   2.741  0.2572  0.2747  0.0857
11996W        W28257  16.537   2.198  14.698  0.3138 -0.1588 -0.3019
11997W        W28258  18.927   3.211   1.036 -0.0250  0.1194  0.0703
11998W        W28259  13.941  12.405  12.321  0.0617  0.0784 -0.3120
11999W        W28260   7.519  17.296  13.169  0.1837 -0.3430  0.0230
12000W        W28261  14.866  14.111  13.983  0.2248 -0.1828 -0.1865
12001W        W28262   6.905  11.491  14.145 -0.2096 -0.0862 -0.2622
12002W        W28263  12.399  13.929   3.405  0.2343  0.1353  0.0560
12003W        W28264  13.208   8.168   4.078 -0.0347  0.0762 -0.1471
12004W        W28265  15.888   1.678  14.239  0.1356 -0.0715 -0.1398
12005W        W28266   2.842   4.672  13.867  0.1498  0.3523  0.0414
12006W        W28267   5.776   0.021   5.358  0.3428 -0.0131 -0.1050
12007W        W28268  17.797  10.604   4.639  0.2292 -0.1127  0.1053
12008W        W28269  17.841   7.376   3.868 -0.0270 -0.2912 -0.0044
12009W        W28270   9.751  18.003   3.365  0.2071 -0.0033 -0.1784
12010W        W28271  19.089   3.773   5.215  0.1622 -0.0449  0.0049
12011W        W28272   9.589   4.948   4.661 -0.0018  0.0587  0.2762
12012W        W28273   0.547  13.138   3.697 -0.1753  0.2499 -0.0355
12013W        W28274   3.709   7.864  12.981  0.0547  0.1209  0.1046
12014W        W28275  16.744   8.508   0.324 -0.1524 -0.0152 -0.2848
12015W        W28276   7.851   9.263  13.622 -0.0856 -0.0611  0.1386
12016W        W28277   8.028  10.689  11.526  0.1324 -0.2264  0.1324
12017W        W28278   9.578   2.233  14.503 -0.2094 -0.0574 -0.2191
12018W        W28279   1.287   6.316  13.081  0.0696  0.0796  0.2658
12019W        W28280  11.161  13.405   4.411 -0.0013 -0.1066  0.1148
12020W        W28281  11.919   2.208   3.999  0.2930 -0.1020 -0.1030
12021W        W28282  14.938  16.888   1.239 -0.4977  0.0041 -0.0820
12022W        W28283   2.553  16.518   3.116 -0.0406  0.0542 -0.3724
12023W        W28284   7.206  16.575  11.486  0.0930  0.0530 -0.3237
12024W        W28285  15.591   4.297   1.956  0.2234  0.3734  0.0603
12025W        W28286  16.725   5.314   2.171  0.2613  0.2695  0.2175
12026W        W28287   3.049  15.244  12.112  0.1933 -0.2224  0.1065
12027W        W28288   5.329   4.424  10.960 -0.1428  0.0563 -0.0756
12028W        W28289  18.884  10.062  13.166 -0.3102  0.2808  0.3074
12029W        W28290  13.507   7.968   1.400 -0.1265 -0.1490 -0.4304
12030W        W28291   8.662   5.180  11.360 -0.1213 -0.0148 -0.1777
12031W        W28292  16.200   0.481  13.487  0.1169 -0.0430  0.0120
12032W        W28293   2.921   5.722  12.797 -0.1145  0.2526 -0.2434
12033W        W28294   5.595   3.706   5.543 -0.3466 -0.4627  0.2020
12034W        W28295   8.298   8.446   0.295 -0.1636  0.1295  0.0239
12035W        W28296   9.221  18.618  13.139 -0.0813  0.0907 -0.1883
12036W        W28297   9.917   8.947  14.063  0.0818  0.0777  0.1283
12037W        W28298  10.447   4.506  13.649 -0.0606  0.0598  0.0893
12038W        W28299   5.157  11.325   2.033 -0.4562 -0.0446 -0.1391
12039W        W28300  11.030  13.612   2.960  0.1090  0.0962  0.0282
12040W        W28301   5.161   3.772   1.668 -0.1127 -0.0032  0.1946
12041W        W28302   7.331  15.975   9.251  0.1482  0.1304 -0.0066
12042W        W28303  14.100  17.283   1.027  0.1094  0.2542  0.0091
12043W        W28304  14.696  16.698   0.845 -0.1753 -0.0810  0.0268
12044W        W28305   9.513   0.282   2.028 -0.0155  0.2014  0.1676
12045W        W28306  10.491  18.394   5.569 -0.2441  0.2917  0.4257
12046W        W28307   8.145   8.427   4.601  0.0964  0.0183  0.0753
12047W        W28308   8.134  13.451  12.959 -0.2003 -0.0715 -0.0156
12048W        W28309   0.110  18.166   0.296  0.3977  0.0559  0.0409
12049W        W28310  18.801  11.667   4.506  0.3704  0.1008  0.3588
12050W        W28311   8.820  13.904  12.203 -0.0763  0.0429  0.0339
12051W        W28312   2.720  17.888   1.544  0.3154 -0.1346  0.4192
12052W        W28313   3.164  12.188   2.629  0.2037 -0.1318  0.0151
12053W        W28314  19.060  11.763   2.452  0.2667  0.0296  0.1052
12054W        W28315   9.913   0.355   3.764 -0.0146 -0.0668 -0.1643
12055W        W28316  11.547  11.810  13.592  0.0901 -0.0888  0.0157
12056W        W28317   4.111  15.191  11.693 -0.3111  0.0274 -0.0459
12057W        W28318   8.152  14.951   1.209  0.0357  0.1238  0.1191
12058W        W28319   0.781  10.145   2.668 -0.0350  0.0652  0.0114
12059W        W28320  10.205  12.346  11.635 -0.0219  0.0899  0.1326
12060W        W28321  15.673   3.788  12.051 -0.2616  0.2241 -0.1687
12061W        W28322  16.394   3.311   1.866  0.2227 -0.3626  0.0428
12062W        W28323  15.891   0.008  13.347  0.2447  0.2212 -0.0654
12063W        W28324   1.928   7.668   2.370 -0.0907 -0.1742 -0.2032
12064W        W28325  18.298   8.105  11.929  0.2719  0.0023  0.1939
12065W        W28326  16.572   5.925  14.094  0.0577  0.1650 -0.1874
12066W        W28327  12.504   7.292  12.691  0.0601 -0.1236  0.0386
12067W        W28328   2.013  13.068   3.286  0.2802 -0.1181  0.1749
12068W        W28329   3.354   0.467  12.048 -0.1741  0.3719 -0.0818
12069W        W28330   4.548   5.158   2.384  0.2317  0.0125 -0.2099
12070W        W28331   8.583  16.586  11.540 -0.2582 -0.2551  0.2485
12071W        W28332   2.068   4.169  11.937  0.0588 -0.1837 -0.0249
12072W        W28333  17.188   0.961   1.012  0.1497 -0.1287  0.0341
12073W        W28334   5.641   0.763  12.170 -0.1965 -0.2159 -0.0800
12074W        W28335  13.092  16.620  11.626  0.1633 -0.2719 -0.3071
12075W        W28336   1.157   5.345  13.703 -0.0696  0.1151 -0.2610
12076W        W28337   0.869  13.632  10.901  0.2301  0.0443  0.1316
12077W        W28338   5.346   2.418   4.659  0.0288 -0.4590  0.3200
12078W        W28339  19.071   6.631   0.671 -0.1328 -0.0182 -0.1296
12079W        W28340  16.313   9.957   1.531 -0.1586  0.1317  0.1712
12080W        W28341  11.886   4.469   9.574  0.0863 -0.0404  0.0582
12081W        W28342  13.097   2.295   4.114 -0.2680 -0.0113 -0.1215
12082W        W28343   1.936  15.648   1.013 -0.1575  0.0917  0.1663
12083W        W28344  18.764   5.045  11.777 -0.2367  0.2186  0.3290
12084W        W28345   3.940  15.750  11.775  0.2362  0.0318  0.0735
12085W        W28346  18.471  11.417   1.687  0.0616  0.1370  0.0699
12086W        W28347  15.454   9.099   4.666  0.1052  0.1899 -0.1818
12087W        W28348   2.479  13.851  10.759  0.0970  0.1382 -0.0213
12088W        W28349   4.280   4.122   3.506  0.0383  0.1885  0.3169
12089W        W28350   9.924   5.282  12.716  0.0194  0.1903  0.2163
12090W        W28351   6.954   5.649  12.214 -0.2966 -0.0380  0.4362
12091W        W28352   8.381   1.884  11.478  0.1964 -0.2544 -0.0175
12092W        W28353  18.387   0.333   2.539 -0.0127  0.2248 -0.3517
12093W        W28354  12.012  19.368  10.214 -0.0337 -0.1331  0.2056
12094W        W28355  15.630  15.162  13.862  0.0599 -0.0596 -0.1012
12095W        W28356   2.741  11.052   2.318  0.0385 -0.2159  0.0276
12096W        W28357   7.766  18.326   4.281  0.1663  0.0161  0.2022
12097W        W28358  11.141   5.260   2.877 -0.0480  0.0932  0.1096
12098W        W28359   1.329  15.718  10.825  0.4022 -0.0637 -0.0658
12099W        W28360   7.422   9.495  12.669  0.1364 -0.0251  0.0624
12100W        W28361   8.360  18.916  13.508  0.2539  0.0136  0.0773
12101W        W28362   7.377   4.412   2.208  0.2441 -0.1427  0.0909
12102W        W28363   3.366  10.023   1.797  0.2165  0.0494  0.1111
12103W        W28364   0.543   0.931   5.040 -0.0827  0.0113  0.0225
12104W        W28365  16.712  15.412   1.380  0.1114 -0.1280  0.2625
12105W        W28366   3.517   8.673   3.805 -0.1814  0.2152 -0.3868
12106W        W28367  14.650   9.996   2.056  0.3049 -0.0309  0.1612
12107W        W28368   5.125   3.460   5.402 -0.1929 -0.3752 -0.0764
12108W        W28369  10.286   1.241  10.036  0.0548  0.1542  0.0447
12109W        W28370  16.810   8.281   2.306 -0.1904 -0.3728  0.3673
12110W        W28371   6.473  13.322   1.208 -0.0717  0.0883  0.1043
12111W        W28372  11.092  11.429   1.337  0.0079  0.5599  0.2879
12112W        W28373   8.442  12.237  12.293  0.3292 -0.3935  0.1204
12113W        W28374   5.975  18.902   1.164  0.0579  0.2301 -0.4194
12114W        W28375   3.801   0.507   3.828  0.3458 -0.3111 -0.0585
12115W        W28376   4.574  16.806  13.797  0.1438  0.0264 -0.0930
12116W        W28377   0.581   3.443  11.092  0.0580 -0.0385 -0.2536
12117W        W28378   8.188   0.846  14.527  0.1716 -0.2961  0.1822
12118W        W28379   1.006  12.132   4.680 -0.1477 -0.2375  0.0199
12119W        W28380   1.946   7.647   3.918  0.1932 -0.0089  0.0412
12120W        W28381  17.456   1.331   4.777  0.0335  0.0299  0.3610
12121W        W28382   3.554   9.926  14.693  0.1411  0.0114 -0.1456
12122W        W28383   4.394   1.278  13.429 -0.1867  0.0488 -0.0321
12123W        W28384  16.544  14.193   2.060 -0.1932  0.2154  0.1969
12124W        W28385   8.119  13.197  14.092 -0.1878 -0.0564  0.0590
12125W        W28386   2.035   9.901   5.083 -0.0081 -0.1537  0.3353
12126W        W28387   4.368   1.898  13.671 -0.0311 -0.1046  0.1937
12127W        W28388  10.293   3.482  11.583  0.0079  0.2465 -0.0366
12128W        W28389  10.473   2.741  13.054 -0.1369 -0.0972 -0.0153
12129W        W28390  13.795   4.417   0.178  0.3508 -0.0322 -0.3422
12130W        W28391  13.077   5.266   3.932  0.2697 -0.0058 -0.3315
12131W        W28392   2.996   2.378  11.920  0.2607  0.0083 -0.2506
12132W        W28393  17.409   9.597  12.080 -0.4919 -0.1942 -0.1720
12133W        W28394   4.502  15.358   0.538  0.1252 -0.1426  0.1572
12134W        W28395  18.316  14.083  10.256  0.1818 -0.0112 -0.0597
12135W        W28396   3.321   8.513   0.422 -0.3420 -0.2234 -0.4965
12136W        W28397   3.192   5.701  11.003  0.2664 -0.1153  0.1916
12137W        W28398   4.173  12.124  10.600  0.0210 -0.0604  0.1716
12138W        W28399   2.583  16.092  14.425 -0.2977 -0.2346 -0.1836
12139W        W28400   6.686   0.868   3.787  0.1321  0.3091 -0.1272
12140W        W28401  12.049  16.543  12.012  0.3172 -0.3466 -0.1100
12141W        W28402   9.370  19.054  10.624 -0.1256  0.0190 -0.1582
12142W        W28403  17.394   5.603   0.242 -0.1618 -0.2047  0.4235
12143W        W28404   7.605  15.183   0.395 -0.0993  0.0508  0.2912
12144W        W28405   1.910  18.422  12.727  0.1242 -0.0063  0.0489
12145W        W28406  18.891  14.204   1.969  0.3174  0.1650 -0.1314
12146W        W28407   9.478   4.504  12.697  0.3212  0.0781 -0.0889
12147W        W28408  15.807  11.962  11.086  0.1780 -0.3354 -0.3176
12148W        W28409  14.356   0.341  11.064  0.0679 -0.1558 -0.0518
12149W        W28410  17.204   9.256  10.112  0.1543 -0.0097  0.1107
12150W        W28411   9.310  10.286  10.680 -0.2126 -0.1192  0.2218
12151W        W28412   0.868  17.718   4.970  0.0133  0.1347 -0.0416
12152W        W28413  16.907  10.486  13.367 -0.1425 -0.0009 -0.0762
12153W        W28414  15.696  16.144  11.098  0.0775 -0.2646 -0.2637
12154W        W28415   7.249  13.891  13.440 -0.3599 -0.1627 -0.1471
12155W        W28416  13.234   8.587   0.991 -0.2716  0.0320 -0.0429
12156W        W28417  17.262  14.391   3.496  0.1837  0.2042  0.1302
12157W        W28418   0.677  14.468  11.086  0.1007  0.3532 -0.0071
12158W        W28419   8.959   9.722   1.281 -0.2164  0.1353 -0.0764
12159W        W28420  11.019  10.199  12.812  0.2217  0.3778 -0.0392
12160W        W28421   8.844  15.541   0.276 -0.1418 -0.2050 -0.1096
12161W        W28422   7.342   7.482   3.501  0.0242 -0.1085  0.0314
12162W        W28423   2.237   7.367  11.954  0.4079 -0.2158 -0.2052
12163W        W28424   1.605   0.655   0.679  0.0248 -0.0305  0.1457
12164W        W28425   8.055  12.698  10.943 -0.3776  0.1935  0.2549
12165W        W28426   5.361  15.804   1.909  0.2529  0.3784  0.2478
12166W        W28427  11.892   0.452  10.179 -0.0597 -0.0739 -0.0978
12167W        W28428  18.335   9.547   4.809 -0.3046  0.0686 -0.4313
12168W        W28429  10.821   5.874   2.528 -0.0856  0.0817 -0.1456
12169W        W28430   2.054   9.181   2.181  0.0618  0.0176  0.3146
12170W        W28431   7.948  17.665   0.392 -0.1918 -0.2693 -0.1007
12171W        W28432   5.676  10.265   1.814 -0.1907 -0.2579  0.0027
12172W        W28433  14.458   1.996  14.469  0.1771  0.1605  0.2530
12173W        W28434  11.621  12.594  12.174  0.0127 -0.0874  0.1864
12174W        W28435   7.263  16.801  11.069  0.2809 -0.3162  0.0172
12175W        W28436   5.295   0.401  11.987  0.0696  0.3752  0.3096
12176W        W28437  18.860  18.533  13.364 -0.2782 -0.0520  0.1512
12177W        W28438  12.655   5.502  14.475 -0.0987  0.3563 -0.0380
12178W        W28439  11.888   7.906   1.687 -0.2304 -0.0324 -0.2002
12179W        W28440  18.702  12.983   2.223  0.1433  0.2365  0.0875
12180W        W28441  11.636  16.828   4.225 -0.1308  0.1226  0.3724
12181W        W28442   0.587   5.211   2.563 -0.1083  0.0941  0.1243
12182W        W28443   1.992   5.686  11.132 -0.0086  0.0601  0.3095
12183W        W28444   9.771  12.791  14.474 -0.2646 -0.2321  0.1671
12184W        W28445   9.846  12.711   2.053 -0.0760  0.0007  0.0368
12185W        W28446   5.535   8.744   4.276 -0.2274 -0.2338  0.4810
12186W        W28447  11.732  15.771   3.975  0.0216  0.0746 -0.0454
12187W        W28448   8.149   9.693   2.995 -0.0833  0.1728  0.0767
12188W        W28449   9.523  18.015  14.710 -0.1442  0.1454  0.0475
12189W        W28450  16.581   0.963  13.781  0.0636  0.2647  0.0877
12190W        W28451   2.885  10.567  13.238 -0.2794  0.3238  0.0413
12191W        W28452   9.127   3.752  11.810 -0.1289  0.0374  0.1075
12192W        W28453   6.917  14.102   9.109 -0.0035  0.1961  0.2996
12193W        W28454   5.548  15.189  10.372 -0.0612 -0.2986 -0.1588
12194W        W28455   3.702  10.165   4.561  0.1829  0.1063  0.0512
12195W        W28456  12.354  13.386   5.394 -0.0321 -0.2620  0.2472
12196W        W28457   0.078   6.677   3.331  0.0109 -0.1001 -0.1665
12197W        W28458   4.603   4.312  14.632  0.1383  0.1616 -0.0863
12198W        W28459  10.140  15.473   4.351  0.1234 -0.1938 -0.0528
12199W        W28460   3.975   0.181  14.241 -0.2278 -0.0954 -0.2819
12200W        W28461  14.832  12.565   2.477 -0.2173  0.0480  0.3543
12201W        W28462  19.270  18.724   3.609  0.1259  0.0253 -0.1748
12202W        W28463   5.966  15.024   0.025 -0.0022  0.0178  0.2020
12203W        W28464   7.361   5.321  12.201 -0.1151 -0.0329  0.0419
12204W        W28465   7.944   5.030   3.136  0.1190  0.0514 -0.3471
12205W        W28466   1.264  19.231   2.092  0.1180  0.0331 -0.2332
12206W        W28467  14.547  10.856   1.933  0.0577  0.0460  0.2254
12207W        W28468   9.705   9.816   0.210  0.1240  0.3446 -0.0284
12208W        W28469   3.272   4.234   3.233  0.3651  0.2435  0.2519
12209W        W28470   6.155   2.634   2.641 -0.0426 -0.3333  0.0479
12210W        W28471   2.357  11.429   1.480 -0.1789 -0.0634  0.0549
12211W        W28472   5.664  11.835   2.551 -0.1612  0.1710  0.0924
12212W        W28473  17.918   4.604  10.212 -0.0656 -0.0104  0.2703
12213W        W28474  15.536   7.396   4.408  0.3160 -0.0812  0.1031
12214W        W28475  10.996  18.592  13.605  0.2272 -0.0178  0.0000
12215W        W28476   1.584   2.384   5.836 -0.1403  0.0549  0.1505
12216W        W28477  15.301   0.295  13.815  0.2144 -0.0145 -0.1580
12217W        W28478   0.108   3.680   0.928  0.1686 -0.0493  0.0680
12218W        W28479   8.421   3.657  13.687 -0.1343  0.2850 -0.1007
12219W        W28480  11.808  13.467   9.080 -0.0119 -0.0343 -0.2489
12220W        W28481   3.629   0.384   2.385  0.2763 -0.1592  0.2229
12221W        W28482  18.042  18.566   3.385 -0.1565 -0.0314 -0.1758
12222W        W28483   3.854  13.874  13.300  0.1461 -0.0273  0.0874
12223W        W28484  15.117  17.786  13.035 -0.0092  0.1781 -0.0013
12224W        W28485  17.809   6.773  11.504 -0.0232 -0.0043 -0.0807
12225W        W28486  14.071  16.813   9.899  0.1030  0.2998  0.2492
12226W        W28487  19.028  19.031  10.805 -0.1526 -0.1333  0.1045
12227W        W28488   6.890   9.806  11.749  0.2255 -0.0380 -0.4377
12228W        W28489  17.833   0.065  13.624 -0.0141  0.1951  0.0980
12229W        W28490  16.377   8.547   2.745 -0.0659 -0.0580 -0.0966
12230W        W28491   9.712   3.168   4.736  0.1179 -0.0130  0.0796
12231W        W28492   5.930   0.025   3.385 -0.0105 -0.1512 -0.0474
12232W        W28493   3.866   7.653  14.779  0.1010  0.0378  0.3132
12233W        W28494   8.233  13.800   0.777 -0.3111 -0.0086 -0.0318
12234W        W28495   2.086   3.923   0.498 -0.2009 -0.1460 -0.1962
12235W        W28496  17.996   2.041  13.481  0.0518 -0.3826  0.1278
12236W        W28497  18.235  17.669   3.508  0.3458 -0.1362 -0.1016
12237W        W28498  18.840  15.499  11.281 -0.1219 -0.2103 -0.1248
12238W        W28499   3.128   2.011   4.676 -0.2261  0.1868 -0.2107
12239W        W28500  17.995   2.961   1.992 -0.2707 -0.2039 -0.2067
12240W        W28501   4.272  17.213  11.250  0.1288  0.1452 -0.5043
12241W        W28502  12.851   8.697  12.795  0.1189  0.2452 -0.3091
12242W        W28503   1.169   7.707  12.423 -0.1697 -0.0950 -0.2106
12243W        W28504   4.629  13.137   3.807 -0.0115  0.0810  0.0414
12244W        W28505  19.235   3.707  13.105 -0.1518  0.0374  0.2560
12245W        W28506  15.951  10.882   0.434 -0.0669  0.0451  0.1369
12246W        W28507  11.024  14.671  11.397 -0.0798  0.3471 -0.0314
12247W        W28508   0.315   9.506   3.904 -0.0969 -0.0780  0.1499
12248W        W28509   2.826  10.142   4.193  0.0334  0.1456 -0.2384
12249W        W28510  11.831  16.114   3.133  0.0225 -0.2495  0.1642
12250W        W28511   6.315  11.619   1.235  0.1594  0.2987 -0.1331
12251W        W28512   0.292  17.202   3.528 -0.1984 -0.1728 -0.1592
12252W        W28513  11.930   4.982  12.549  0.1123 -0.4172 -0.2498
12253W        W28514  17.854   6.790  12.416  0.0139 -0.0244 -0.0510
12254W        W28515   1.284   0.043   0.463  0.0610 -0.3471 -0.0270
12255W        W28516   4.902  15.481   4.910  0.0065  0.2537 -0.3043
12256W        W28517   4.422  17.356   2.484  0.0884  0.2233  0.5403
12257W        W28518  12.255  13.176  11.036 -0.1355 -0.0545  0.1955
12258W        W28519   0.370  11.395  10.457 -0.0372 -0.2166 -0.2172
12259W        W28520  18.855  13.320   3.061  0.0737  0.3253 -0.1670
12260W        W28521   3.680  16.505   5.190 -0.0305  0.0655 -0.1171
12261W        W28522   1.401   9.452   4.012 -0.1833 -0.1668 -0.0492
12262W        W28523  19.270  13.986  13.630 -0.1560  0.0381 -0.2025
12263W        W28524   4.258   8.292   3.260 -0.1546  0.1259 -0.2712
12264W        W28525   5.061  18.952   1.559 -0.0029  0.0006  0.0534
12265W        W28526   6.157   2.189   3.468 -0.3936  0.2085  0.1732
12266W        W28527  12.282  15.755   3.283  0.3683  0.1019 -0.0295
12267W        W28528  14.422  19.071   1.189  0.1694  0.2773 -0.0696
12268W        W28529   6.603  10.667   1.645 -0.0122  0.0679  0.3269
12269W        W28530   3.135   3.502  13.201 -0.2787  0.0979  0.0298
12270W        W28531   9.237   0.507  11.386 -0.1711 -0.1903  0.0785
12271W        W28532  18.850   8.188   0.034  0.0354  0.0892 -0.0959
12272W        W28533   8.543  17.607  10.547 -0.0021  0.0642 -0.2177
12273W        W28534   6.233  10.668   1.297 -0.0089 -0.1434 -0.2869
12274W        W28535  11.852   1.104   2.224  0.0805 -0.0494 -0.4062
12275W        W28536  16.745   2.382  11.734  0.1092 -0.1972  0.1385
12276W        W28537  10.624   7.015  14.831 -0.2494 -0.0027 -0.1437
12277W        W28538  11.193   4.958  14.872 -0.0277 -0.1025  0.0458
12278W        W28539  11.856   8.943   1.054 -0.0831 -0.0321  0.2556
12279W        W28540   2.283   6.714   0.282  0.2748 -0.0364  0.2290
12280W        W28541   7.617  18.604  11.029  0.3031  0.0292 -0.1567
12281W        W28542   0.574  12.906  11.807  0.1540  0.0196  0.1816
12282W        W28543   5.834   9.459  13.241  0.1435 -0.1300 -0.1357
12283W        W28544  18.571  18.963  12.398  0.0361  0.0208  0.1573
12284W        W28545  11.666  11.952   0.139  0.1034  0.0518 -0.2138
12285W        W28546   7.024   8.583   3.213  0.0566  0.1728  0.1060
12286W        W28547  16.200   2.887   0.285  0.0347 -0.1581  0.1014
12287W        W28548  13.670   0.448  10.529  0.0102 -0.0009  0.1238
12288W        W28549  18.077   0.914   2.691 -0.0922 -0.3212  0.1109
12289W        W28550  16.171  18.901   1.764  0.0986  0.2643  0.2261
12290W        W28551   8.917  17.579   2.237  0.2536  0.0540  0.2023
12291W        W28552   5.411   2.314   5.179 -0.1375 -0.1092 -0.1572
12292W        W28553   3.118   4.686  11.114 -0.0689 -0.2139  0.0154
12293W        W28554   3.386   3.162   4.276  0.2170 -0.2774  0.0499
12294W        W28555   5.816  13.922   2.069  0.5462 -0.2071 -0.0054
12295W        W28556   2.937   9.145   4.333 -0.4064  0.3459  0.1537
12296W        W28557  12.795   9.145  14.222  0.0079  0.2425 -0.2945
12297W        W28558   4.083   4.615   3.245  0.1347 -0.1126 -0.0059
12298W        W28559  18.147  13.866   0.529 -0.2179 -0.5584 -0.0192
12299W        W28560  16.563   1.385   4.813  0.1239  0.0463 -0.2431
12300W        W28561   3.366   1.266   3.392  0.0215  0.2835  0.0164
12301W        W28562   2.881   7.948  13.831 -0.4326 -0.1438  0.0879
12302W        W28563  18.197   2.812   1.323  0.0073 -0.0209  0.1623
12303W        W28564  10.794   2.307   4.652  0.1763 -0.2451 -0.0513
12304W        W28565   5.157   3.465   0.108 -0.2829  0.0942 -0.1057
12305W        W28566   2.293  18.999   3.953  0.0627 -0.0213  0.0515
12306W        W28567  15.352  17.911  12.282 -0.1841  0.3003  0.2232
12307W        W28568   0.514   1.843   4.964  0.1495  0.3503 -0.1802
12308W        W28569  17.783  18.442  14.731  0.0172  0.1982 -0.0280
12309W        W28570   5.662   9.354   4.173  0.1456 -0.3604  0.2169
12310W        W28571  18.991   9.532  13.222  0.0572 -0.0500 -0.0288
12311W        W28572   8.503   8.154   0.629  0.1087  0.2867 -0.1787
12312W        W28573  18.541   7.197   2.028  0.0957 -0.2494  0.0618
12313W        W28574   8.951   0.207   4.554 -0.1019  0.2416 -0.0146
12314W        W28575   9.517  15.940   4.843 -0.1113 -0.2318 -0.0165
12315W        W28576  15.922  16.334  14.760 -0.1300  0.3136  0.0479
12316W        W28577   6.917   4.600  11.062 -0.0634  0.2616 -0.2665
12317W        W28578   9.623  12.260   2.008  0.2197  0.0430 -0.1938
12318W        W28579   6.939  14.377  13.179 -0.3196 -0.2614  0.0556
12319W        W28580   0.596   5.482   0.783  0.1077  0.0294  0.2390
12320W        W28581  11.047  11.289  12.857 -0.1347  0.0430 -0.0758
12321W        W28582  17.377   0.083  11.075 -0.2786 -0.0372 -0.6398
12322W        W28583  11.192   9.895  12.424  0.2242 -0.0862  0.0645
12323W        W28584  11.192   1.278   8.851 -0.0055 -0.3631  0.0117
12324W        W28585   9.766  17.753  13.549 -0.0453  0.1294 -0.0086
12325W        W28586   8.725   6.557  14.171  0.2303 -0.0894 -0.2051
12326W        W28587   9.011   3.220  11.646  0.0662 -0.3365 -0.4074
12327W        W28588  17.778  18.796   3.014 -0.0219  0.3009  0.1666
12328W        W28589   3.213   4.010   4.752  0.2622 -0.3242  0.0218
12329W        W28590  12.852   3.809  13.387 -0.0239  0.1704  0.0503
12330W        W28591   7.781   4.749  14.222  0.0452 -0.1899  0.3495
12331W        W28592  11.509  14.788  11.147  0.2366 -0.1341 -0.0488
12332W        W28593   1.372   3.762   1.998  0.0103 -0.2442  0.2318
12333W        W28594   9.738   3.155  13.314  0.1374  0.0531 -0.0434
12334W        W28595   1.523  14.071  13.676  0.3386  0.2134  0.0841
12335W        W28596  14.365  16.639  11.926 -0.0331  0.1956 -0.1788
12336W        W28597  19.088  11.651   3.623 -0.1629 -0.0805 -0.0332
12337W        W28598  18.206   8.849   2.137 -0.3748  0.1834  0.2243
12338W        W28599   6.969   8.726   5.043 -0.0487  0.2206  0.1080
12339W        W28600   5.105  13.399   2.936  0.4324  0.1365 -0.0297
12340W        W28601  15.500  13.604   9.826  0.1028  0.0623 -0.1836
12341W        W28602  13.461  14.726  12.982 -0.3138 -0.0714  0.1589
12342W        W28603   2.556  14.946   5.072  0.0524  0.2173  0.2928
12343W        W28604  14.374   4.948  10.825  0.0810  0.0807  0.1930
12344W        W28605  13.299  18.482  10.207 -0.1997  0.0492 -0.0424
12345W        W28606  14.006  10.983  13.611  0.0157  0.0040 -0.1605
12346W        W28607   1.417  12.104  12.689  0.0737 -0.2149 -0.0269
12347W        W28608  12.253   3.889  13.530 -0.0944 -0.1072  0.0711
12348W        W28609  14.868  18.375   1.292 -0.1323 -0.0216 -0.0707
12349W        W28610   5.761   9.032  13.558  0.3053  0.3322 -0.2166
12350W        W28611  14.119   6.254   1.897 -0.2623  0.1199 -0.5662
12351W        W28612  15.502  12.429  11.664  0.0034 -0.3133  0.0643
12352W        W28613   6.727  14.185  11.998 -0.1897  0.0858 -0.3373
12353W        W28614  17.707  12.868   4.617 -0.3253  0.0395  0.0984
12354W        W28615  15.948   1.538   1.152  0.2369  0.4639  0.0344
12355W        W28616  15.523  11.074  11.059  0.3383  0.0013  0.2632
12356W        W28617  17.001  13.395  14.569  0.0245 -0.0493 -0.1420
12357W        W28618   2.291   2.369   5.338 -0.0780  0.2443  0.0635
12358W        W28619  14.365   9.277   0.518  0.3792  0.2799 -0.0943
12359W        W28620   2.193  18.595   1.082  0.1582 -0.3268  0.1927
12360W        W28621   8.651   7.039  12.701  0.1050  0.1092 -0.0852
12361W        W28622  13.402   7.885   2.263  0.2848  0.2186  0.0260
12362W        W28623   5.992  13.629   2.486 -0.0767 -0.1815  0.1615
12363W        W28624   3.904  14.743   3.741 -0.3070 -0.0637 -0.2357
12364W        W28625  13.123   0.679   4.467 -0.0277 -0.0738 -0.0100
12365W        W28626   4.245  17.929  13.579 -0.1239  0.2995  0.1091
12366W        W28627   2.319   9.023  11.900  0.1938 -0.2601 -0.2288
12367W        W28628   2.379   4.221   3.671  0.0488 -0.0194 -0.0463
12368W        W28629   3.164   6.220   1.219  0.2429  0.0783 -0.0371
12369W        W28630  13.767   9.220  10.806 -0.0928 -0.3538 -0.2091
12370W        W28631   5.273   1.952  12.829 -0.1475  0.1952 -0.1714
12371W        W28632  14.417   5.658  10.698  0.3973 -0.1874  0.0880
12372W        W28633   6.801  18.330  12.618 -0.2682 -0.0531  0.0473
12373W        W28634  18.392  12.414   0.535 -0.0499  0.4758 -0.0958
12374W        W28635  17.425   9.843  13.242  0.0522 -0.2415  0.0625
12375W        W28636   6.918   3.727  14.151 -0.2684  0.2668  0.0854
12376W        W28637  11.478   5.863   0.388 -0.0929 -0.2138 -0.1643
12377W        W28638  12.517   8.290   2.286 -0.1433 -0.2798 -0.0652
12378W        W28639   2.996  10.130   0.638 -0.0605 -0.0222  0.0652
12379W        W28640  14.716  16.276   0.300 -0.1082 -0.1593  0.1488
12380W        W28641  14.982   8.808   1.668 -0.0114  0.0228 -0.0083
12381W        W28642  13.398   7.308   4.059  0.0350  0.0106  0.0163
12382W        W28643  13.292  15.980   4.464  0.1214  0.0043  0.2258
12383W        W28644   1.253   3.795  11.803 -0.0485  0.1274 -0.1562
12384W        W28645  16.635   8.442  14.477 -0.1872 -0.1032  0.0488
12385W        W28646  19.070   0.359  12.847  0.2355  0.4334  0.0512
12386W        W28647   0.783   4.164   6.378 -0.3734  0.0057  0.2480
12387W        W28648   4.768   3.039   0.063 -0.3476 -0.1200  0.0904
12388W        W28649   1.428  12.485  13.564  0.3342  0.1982 -0.3207
12389W        W28650   9.386  17.927   4.904  0.1107  0.0437 -0.3568
12390W        W28651   2.985   0.629   5.789 -0.1989  0.3188  0.0334
12391W        W28652  13.259   2.737   0.827  0.0926 -0.0936  0.0434
12392W        W28653  14.906  17.666   2.038  0.1012  0.0434 -0.0558
12393W        W28654  18.661   0.246   0.252 -0.2512  0.0412 -0.0600
12394W        W28655  19.161  14.850  10.944  0.1356 -0.1311  0.2471
12395W        W28656  12.994  15.978   9.437  0.0613  0.0363 -0.0565
12396W        W28657   7.268   3.289   2.963 -0.3974 -0.1614  0.1075
12397W        W28658   7.852  11.451  11.341  0.0635  0.2391 -0.2990
12398W        W28659  18.184  10.805   2.898 -0.0639  0.0528  0.0201
12399W        W28660  10.329  17.891   3.292  0.1932 -0.1742  0.3077
12400W        W28661  17.165  13.406  12.480  0.0451  0.0429 -0.2074
12401W        W28662   5.851   3.090   3.567  0.0181 -0.0069  0.0533
12402W        W28663   4.889  16.501   5.201 -0.0209  0.0140 -0.3381
12403W        W28664   8.938  11.608   1.845 -0.1079 -0.2153 -0.2223
12404W        W28665   3.047  18.802  13.732  0.0257 -0.0528 -0.3395
12405W        W28666  15.876   1.354  11.081 -0.1320  0.0945 -0.0702
12406W        W28667  19.397   7.548  12.966  0.2637 -0.0628 -0.0751
12407W        W28668  16.042  18.207   3.364  0.0841  0.2878  0.0920
12408W        W28669  17.603  10.549   9.902 -0.0652  0.0216  0.0206
12409W        W28670  15.155  14.109  11.651  0.1890 -0.0209 -0.0116
12410W        W28671   2.513  19.163   2.712 -0.0320 -0.0454 -0.3680
12411W        W28672   8.302  18.045   4.437  0.1072 -0.3979  0.1169
12412W        W28673   7.506  10.521  12.060 -0.0042  0.2909 -0.1692
12413W        W28674  13.663   7.021   2.361 -0.0166 -0.4382  0.2039
12414W        W28675   9.780  10.145   3.268  0.1356 -0.2319  0.0050
12415W        W28676  12.708   2.682   0.756 -0.0269  0.0837  0.0017
12416W        W28677   4.090   5.938   2.879  0.1839  0.0084  0.0750
12417W        W28678  13.910   0.688  12.984  0.1292 -0.0899  0.2757
12418W        W28679   9.099   1.790   3.938 -0.3078 -0.0615  0.4005
12419W        W28680  16.611  17.209  14.485  0.1218  0.0482 -0.1415
12420W        W28681  18.579  14.449   2.244  0.3014  0.0480  0.1332
12421W        W28682  10.078  15.157   3.951  0.1482 -0.0758  0.2600
12422W        W28683   5.929  16.858   3.732  0.0460 -0.0321 -0.0477
12423W        W28684   9.069   9.167   5.067  0.0321  0.1777 -0.1153
12424W        W28685  11.195  18.929   1.551  0.2769  0.1426  0.2331
12425W        W28686  10.367   9.995   1.455 -0.0714  0.0462  0.0215
12426W        W28687  10.160  15.769   2.736 -0.2135  0.1759 -0.3791
12427W        W28688  12.668   6.336  11.596  0.1350 -0.1130  0.0597
12428W        W28689  14.792   0.700   1.103  0.0092 -0.2509 -0.0276
12429W        W28690  13.471   8.335   3.668  0.6908 -0.1908 -0.0655
12430W        W28691  16.999   2.198   3.260 -0.0920  0.2001  0.2057
12431W        W28692  13.502   5.438   5.151  0.0278  0.3766 -0.1530
12432W        W28693  19.295  13.679   4.068  0.2996  0.2058  0.1050
12433W        W28694  16.731   2.193  12.863 -0.0544  0.2072 -0.0937
12434W        W28695  18.787   7.697   1.849 -0.0615  0.0652  0.1649
12435W        W28696  11.798   8.187  10.975  0.0201  0.2244  0.0585
12436W        W28697  18.390   4.453  12.428 -0.0798  0.4840 -0.3971
12437W        W28698  12.938  12.572  12.665 -0.1641 -0.1222 -0.0482
12438W        W28699   4.447   2.226  12.041  0.2360 -0.3932 -0.0739
12439W        W28700  19.103   7.398  11.943 -0.0373  0.0371  0.1961
12440W        W28701   1.875   5.687   4.156  0.0741 -0.1652 -0.2229
12441W        W28702  12.964  11.522  14.192  0.0362 -0.0956  0.1893
12442W        W28703  18.478  14.788  10.500  0.0513 -0.2975  0.1902
12443W        W28704  16.390   8.351   3.190  0.0197  0.1342  0.0987
12444W        W28705   1.142   3.128   3.316  0.1153 -0.2197 -0.2059
12445W        W28706   1.769   6.508   3.689  0.1296 -0.4734 -0.0856
12446W        W28707  19.238   1.227   0.338 -0.3879 -0.0433  0.2599
12447W        W28708   3.523   2.461   0.259  0.0230 -0.0985 -0.2741
12448W        W28709  13.807   6.590   3.586  0.0988  0.0284  0.0829
12449W        W28710   4.528   6.321  13.910  0.0643  0.1584  0.2497
12450W        W28711   5.338  14.485  13.572 -0.2794 -0.3801 -0.2132
12451W        W28712  18.916  13.452  10.801 -0.2403 -0.1366  0.1613
12452W        W28713   6.385  13.475  14.541 -0.0864  0.0412  0.1535
12453W        W28714  11.914   9.398   1.394 -0.2064  0.0036 -0.0079
12454W        W28715   2.907  12.006   1.008  0.0852  0.1251  0.1162
12455W        W28716   5.864  12.334   2.589 -0.0802 -0.0422  0.0280
12456W        W28717   4.291   1.023   1.251  0.2517  0.1508 -0.2244
12457W        W28718  14.921  10.037  13.628  0.0315 -0.1520 -0.3029
12458W        W28719   0.211  19.356  14.770 -0.0020 -0.0269 -0.0621
12459W        W28720  13.290   2.213  13.412  0.3049  0.0901  0.0741
12460W        W28721   6.115  14.818   3.971  0.0196  0.1029  0.0733
12461W        W28722  19.260  13.582   1.619  0.1992  0.2953 -0.1645
12462W        W28723   5.164  15.617   2.841  0.0533  0.3389 -0.1742
12463W        W28724   1.744   2.962  12.745  0.0719 -0.0262  0.0109
12464W        W28725   0.278  16.041   3.660  0.2832  0.3408 -0.0005
12465W        W28726  10.760   4.101  13.466  0.3445 -0.1839  0.1973
12466W        W28727   5.814   7.775  12.912  0.1973 -0.1812  0.2842
12467W        W28728   0.355  13.005   2.352  0.1511  0.1140 -0.0414
12468W        W28729   7.305   2.635   4.736  0.4001 -0.0215 -0.0746
12469W        W28730   0.466   4.040   0.668  0.2171  0.0886 -0.1403
12470W        W28731  16.342  11.388  11.611  0.2883  0.0051  0.0459
12471W        W28732   0.689   5.520   3.559 -0.3523 -0.2721  0.0219
12472W        W28733  16.848   5.408  12.495 -0.1764  0.2133  0.1074
12473W        W28734   3.115   9.696  14.722 -0.0356 -0.2440 -0.1205
12474W        W28735   6.703   5.304   0.115  0.6792 -0.0216  0.0859
12475W        W28736  12.425   0.852   0.602  0.0463  0.1623 -0.0203
12476W        W28737   7.834  17.127   2.952  0.1169 -0.2030 -0.0459
12477W        W28738   8.002  18.643  13.400 -0.0031  0.0635 -0.1674
12478W        W28739  19.218   1.892  13.549  0.0354  0.0387  0.3356
12479W        W28740  18.823   1.711   5.844  0.1618  0.2325 -0.3176
12480W        W28741   8.197  10.944   1.994  0.0583 -0.1879  0.0929
12481W        W28742   2.298   2.271   0.319 -0.3336  0.2812 -0.0493
12482W        W28743   8.851  19.121  10.952  0.0631 -0.3761  0.0297
12483W        W28744   5.026   6.784  12.440  0.0163  0.0157 -0.2532
12484W        W28745   1.138  16.868   1.370  0.0047  0.2728 -0.0282
12485W        W28746   5.642   9.669   2.533  0.1750 -0.4810 -0.1487
12486W        W28747   4.619  10.171   0.176  0.0205 -0.3633 -0.0975
12487W        W28748   9.999  15.041  10.617 -0.0622 -0.1257 -0.1924
12488W        W28749   8.049  11.475   2.334  0.0130  0.1183  0.1688
12489W        W28750   4.211   3.250  12.573 -0.0622 -0.0069  0.1493
12490W        W28751   0.148   3.514   5.940 -0.3791 -0.1066  0.0040
12491W        W28752   6.911  12.606   1.249  0.0413  0.0457 -0.2692
12492W        W28753  15.432  15.187   1.744 -0.2013 -0.1616  0.1817
12493W        W28754  18.331   9.446   1.431 -0.0625  0.0534  0.3570
12494W        W28755   6.428   4.789  11.289 -0.0152 -0.1598  0.0850
12495W        W28756  16.460  10.071  13.272 -0.3606  0.1091  0.0888
12496W        W28757   0.745   3.751   2.223 -0.2080  0.2714  0.0101
12497W        W28758  14.709  19.341   1.543  0.1019 -0.3589 -0.0700
12498W        W28759   4.571   0.016  11.774  0.0595  0.0687 -0.1202
12499W        W28760   2.631   5.273   0.195  0.3534  0.0966  0.1263
12500W        W28761  13.654   4.956  11.442  0.0042 -0.2356  0.2145
12501W        W28762  16.393  10.172   4.087  0.1439  0.0691 -0.1190
12502W        W28763   7.157   7.162  14.295 -0.3975  0.1119 -0.1791
12503W        W28764   6.185  15.282  12.358  0.0531 -0.0907 -0.1871
12504W        W28765  17.672  12.627   4.175  0.2062 -0.0461 -0.0112
12505W        W28766   7.738  10.966  11.238  0.2537 -0.0105  0.2758
12506W        W28767   9.110   2.976  14.118 -0.0652 -0.0261  0.1105
12507W        W28768  14.152   5.937  14.639 -0.2278 -0.0497 -0.0349
12508W        W28769  17.188  15.590   1.606 -0.2000  0.1586  0.0999
12509W        W28770  14.578  17.789  13.969 -0.0756  0.1957 -0.1380
12510W        W28771   1.922   5.680  11.919  0.1802 -0.0356  0.3270
12511W        W28772   1.212   6.954   3.883  0.0992 -0.0876 -0.2372
12512W        W28773   4.150   1.856   3.181 -0.0161 -0.1741  0.0783
12513W        W28774  12.950   0.084   2.243 -0.1681 -0.3152  0.2475
12514W        W28775   4.136   4.083  13.891  0.1853  0.2212  0.0392
12515W        W28776   1.184   4.077  11.367  0.2848 -0.2204  0.1693
12516W        W28777   2.603   6.119   6.426 -0.2542 -0.1450  0.1519
12517W        W28778   2.861  15.534  10.676  0.0163 -0.1141  0.1066
12518W        W28779   1.077  15.530  12.913 -0.0370 -0.2008 -0.1156
12519W        W28780   7.552   9.167   2.800 -0.2294  0.2428 -0.0693
12520W        W28781   3.447  19.440   1.102  0.0469 -0.0133  0.1614
12521W        W28782  15.338   0.001  14.367  0.1560 -0.0763  0.0704
12522W        W28783  16.432  19.065  10.065 -0.0393  0.1515  0.0645
12523W        W28784  17.706  10.183  10.346  0.2419  0.2266 -0.0373
12524W        W28785  16.259   5.321  12.468  0.4274 -0.1478  0.1475
12525W        W28786  13.777   5.331  14.193 -0.1627  0.0000 -0.0483
12526W        W28787  12.060  10.302   1.175 -0.0863  0.2956 -0.3335
12527W        W28788  10.515  17.735  14.079 -0.0535 -0.4281 -0.1688
12528W        W28789   6.065  14.560   1.335 -0.5851  0.1953 -0.0161
12529W        W28790  13.800   7.632   1.597 -0.1182  0.0394  0.3695
12530W        W28791   2.828  16.005   0.016 -0.0765 -0.0165 -0.1382
12531W        W28792   5.967  13.479   0.385  0.2131  0.1565  0.0251
12532W        W28793  19.068  19.266  12.864 -0.3876 -0.0334 -0.0540
12533W        W28794  13.525   1.412   1.498 -0.0951 -0.2889 -0.2279
12534W        W28795   8.692  16.302   9.980 -0.3609 -0.1068  0.1035
12535W        W28796   9.671   6.919   1.907 -0.0872 -0.2085  0.1742
12536W        W28797   7.231   1.164  13.869 -0.2989 -0.0098 -0.1255
12537W        W28798  11.238  10.670  10.551  0.1892  0.1178 -0.2058
12538W        W28799   2.009   7.985  11.028  0.1109  0.0823 -0.1406
12539W        W28800  12.732  10.512   3.841 -0.3678  0.1098  0.0851
12540W        W28801  15.890  16.678  11.264 -0.1098 -0.1678  0.2938
12541W        W28802   8.321   1.692  12.167 -0.0123 -0.3913 -0.1230
12542W        W28803   2.421  13.486   1.794 -0.2273 -0.0699  0.1034
12543W        W28804   0.641   2.126  13.813  0.3717 -0.0631 -0.5182
12544W        W28805   4.939   5.973   1.939 -0.1297 -0.1431 -0.1532
12545W        W28806  17.251  19.344  12.473 -0.1505  0.1084  0.0146
12546W        W28807   6.753  16.018   2.439 -0.1871  0.0394  0.2507
12547W        W28808  10.663  17.691   1.927 -0.2315 -0.0333  0.0450
12548W        W28809   8.262   1.394  10.365  0.1571 -0.0400 -0.1796
12549W        W28810  15.198  18.103  11.170  0.0612  0.1985 -0.1790
12550W        W28811   4.719   3.996   1.318 -0.0562 -0.1576  0.0957
12551W        W28812   9.018   2.563  11.917  0.2110  0.2188  0.3380
12552W        W28813   5.282  11.311  13.538 -0.0123 -0.2701  0.2054
12553W        W28814  18.892  16.712   2.774  0.3446  0.1845 -0.0787
12554W        W28815   0.293   2.579   5.219  0.1969 -0.0287  0.0547
12555W        W28816   9.284   0.210   0.752 -0.1395 -0.0934  0.0254
12556W        W28817   9.377  14.645   4.446 -0.1740  0.0720 -0.4866
12557W        W28818   0.423  15.506   0.188 -0.2766 -0.1236  0.0685
12558W        W28819   1.652  16.426  11.803  0.5379 -0.1237 -0.1015
12559W        W28820   5.366   8.118  12.140  0.0906  0.3170 -0.3626
12560W        W28821   7.756   6.328   3.650  0.0052 -0.0111  0.0481
12561W        W28822  14.955   2.214  14.507  0.2979 -0.2461  0.1822
12562W        W28823   9.410   2.703   1.741  0.1527 -0.1469 -0.4011
12563W        W28824  14.649  11.695   0.757 -0.3234 -0.3294 -0.1971
12564W        W28825   3.082  12.331   4.744  0.1479  0.2394  0.4564
12565W        W28826   1.642   7.745  12.243  0.0257 -0.2073  0.1904
12566W        W28827   6.800   8.811  11.577  0.1836  0.1323  0.0539
12567W        W28828  12.485   8.331   1.692  0.1849 -0.0500 -0.2457
12568W        W28829   7.646   4.174   0.824  0.0280 -0.3040  0.0903
12569W        W28830  11.493   1.140   0.349  0.1890  0.1530  0.2358
12570W        W28831  11.038  14.174   4.003 -0.2629 -0.1433  0.0259
12571W        W28832   7.004   7.178   3.793  0.3674  0.0952 -0.0138
12572W        W28833   8.675   2.442  14.387  0.2357  0.1282 -0.0543
12573W        W28834  11.528  14.096   4.734 -0.2661  0.0127  0.1694
12574W        W28835   6.101  10.355  11.854  0.2316  0.0090  0.3324
12575W        W28836   1.540  17.076  12.703 -0.0225 -0.0434  0.1498
12576W        W28837   6.887   6.615  14.103 -0.3747  0.0909 -0.0337
12577W        W28838  18.572   4.774  13.996  0.1356 -0.1978  0.0162
12578W        W28839  19.165   0.955   3.404 -0.0937 -0.1167  0.1930
12579W        W28840   4.134  10.839  10.534  0.2282 -0.2208  0.1729
12580W        W28841  15.954   2.042  11.733  0.3351  0.0676 -0.0203
12581W        W28842   8.944   5.997   3.681 -0.1408 -0.0766  0.1032
12582W        W28843  11.236  10.435   4.050 -0.2844 -0.0420 -0.1886
12583W        W28844   8.634   0.853   1.733 -0.1692 -0.1624 -0.0679
12584W        W28845   3.343  16.483  10.038  0.0693 -0.1477  0.3611
12585W        W28846  14.372   0.334   1.484 -0.1836  0.0468 -0.0383
12586W        W28847   7.057   6.427   1.306 -0.1668 -0.0433  0.0575
12587W        W28848   9.942  14.261  13.571 -0.0200  0.0117 -0.3564
12588W        W28849  13.449  11.002   3.003  0.0865 -0.4612  0.0068
12589W        W28850   9.216  13.241   4.810 -0.1003 -0.2529 -0.1421
12590W        W28851  15.108  13.031   3.912 -0.1651  0.1827  0.4246
12591W        W28852   9.333  12.430   1.600  0.3102 -0.2841  0.1227
12592W        W28853   3.045   6.858   1.860  0.2307  0.2527  0.5812
12593W        W28854   5.954  10.084  12.679 -0.0418 -0.1097  0.2114
12594W        W28855  15.802   2.922  12.068 -0.0940 -0.2208 -0.1204
12595W        W28856   4.909   7.115   4.808  0.0711 -0.0875  0.0484
12596W        W28857  18.243   0.586   0.190  0.3247 -0.0389  0.1051
12597W        W28858   3.989   1.765  11.689 -0.1437 -0.0970 -0.2458
12598W        W28859   9.557   9.709  12.011  0.0247  0.2506 -0.1748
12599W        W28860   3.777  12.095   1.576  0.0734  0.0495  0.2837
12600W        W28861   2.795   6.534   4.894  0.0512  0.0466  0.3679
12601W        W28862   5.832   8.274   0.716  0.1407 -0.1298 -0.2534
12602W        W28863  17.187  13.789   1.918 -0.1338  0.1031  0.1825
12603W        W28864   3.263   1.351   2.332 -0.1336  0.1522 -0.2534
12604W        W28865   8.820   7.777  13.185 -0.0941  0.1192  0.1784
12605W        W28866   9.634   6.092   0.177 -0.2021  0.1800 -0.0089
12606W        W28867   2.822   4.005   3.430  0.0074 -0.1176  0.0400
12607W        W28868  12.030   4.929  13.815 -0.2034 -0.1011  0.0197
12608W        W28869  17.546  13.000   3.714  0.2787  0.2834  0.0006
12609W        W28870   8.975   4.886   9.919  0.3305  0.1521  0.1946
12610W        W28871   8.465  10.770  13.632 -0.0202  0.0177  0.1972
12611W        W28872  11.283   9.494  11.740  0.1387 -0.0268  0.1769
12612W        W28873   4.380   2.664   3.179  0.0636  0.3008 -0.3591
12613W        W28874   5.355  12.842   0.308  0.1828 -0.1411 -0.2648
12614W        W28875   5.133  12.431  11.156 -0.2648  0.0130 -0.1672
12615W        W28876   1.662  13.189   5.371  0.0425 -0.2651  0.0319
12616W        W28877  10.813   1.755   1.435 -0.1628  0.0576 -0.1197
12617W        W28878   1.985   9.751  10.537 -0.1726 -0.1208 -0.2615
12618W        W28879  12.506  11.643  10.881  0.2020  0.1764 -0.1000
12619W        W28880  11.282   1.448  13.013  0.0679  0.1173 -0.1984
12620W        W28881   0.131  12.105   2.859 -0.2006  0.0233 -0.0297
12621W        W28882  14.456  14.391  13.958  0.3135 -0.0432  0.1486
12622W        W28883   5.137  10.465   2.842  0.0714 -0.0555 -0.0419
12623W        W28884   6.661   5.842  11.271  0.4301 -0.2678  0.5607
12624W        W28885  13.958   6.222  12.214  0.2224 -0.2627  0.0957
12625W        W28886   4.044   7.518   2.446 -0.1266 -0.0280  0.0583
12626W        W28887   2.886  12.201   2.208  0.0508 -0.1497  0.2567
12627W        W28888   2.620  17.103   1.604  0.1298  0.1140  0.2024
12628W        W28889  16.487  10.356  11.406  0.4010  0.3665 -0.5490
12629W        W28890   5.427   1.303   5.085  0.1741 -0.0041  0.3833
12630W        W28891  11.651  16.998  13.129  0.1558  0.0252 -0.0393
12631W        W28892  16.435   0.389   0.846  0.1111 -0.0639  0.0990
12632W        W28893   4.356  15.147  14.425  0.1527  0.3478 -0.1398
12633W        W28894  16.496   0.936   1.653  0.1567 -0.2328  0.0570
12634W        W28895  19.317   9.562  11.361 -0.2345  0.2272 -0.0213
12635W        W28896  15.172  12.551   4.074 -0.0085 -0.3507 -0.0140
12636W        W28897   4.572   8.960   0.726 -0.0033  0.2103 -0.1143
12637W        W28898  13.663   9.246   2.206  0.1378 -0.1961 -0.1686
12638W        W28899  13.872  12.177   4.630 -0.2152  0.2437  0.3700
12639W        W28900   6.012   7.562  10.668  0.1310  0.0330 -0.1832
12640W        W28901   4.005  12.301  12.612 -0.0094  0.1403  0.2184
12641W        W28902  10.002   4.108   4.846  0.4144 -0.1174 -0.5286
12642W        W28903   7.991   1.929   3.471 -0.1682 -0.1892 -0.1816
12643W        W28904   4.495   3.601  11.760 -0.2241  0.0312 -0.2655
12644W        W28905   7.022   3.575   1.919  0.2474 -0.0848 -0.3768
12645W        W28906  18.448   2.338  10.190 -0.0526  0.0819  0.1423
12646W        W28907  17.354   3.050   0.055  0.0706  0.3270 -0.3638
12647W        W28908   9.126   6.675  13.967 -0.1355 -0.1120  0.1316
12648W        W28909   4.428  14.963   0.899 -0.0445 -0.1924 -0.2708
12649W        W28910   7.527  12.400   4.432 -0.4138 -0.0354  0.0706
12650W        W28911   9.543  12.692   3.245 -0.0554  0.1560 -0.0699
12651W        W28912   0.677   8.945  11.806  0.1412 -0.0158 -0.0352
12652W        W28913  14.713  17.808   3.985 -0.2490  0.0436  0.2546
12653W        W28914   1.292   3.565   5.408  0.1496 -0.1653  0.1863
12654W        W28915  17.646  19.262   3.117 -0.0298 -0.0513 -0.1530
12655W        W28916  17.933   8.206  11.167  0.0132 -0.1368  0.1311
12656W        W28917   6.369  11.131   3.632 -0.1307 -0.3041  0.1034
12657W        W28918   8.841   2.299  13.535  0.1402  0.2471 -0.0106
12658W        W28919   3.385   4.001   2.727  0.1768 -0.2346  0.1799
12659W        W28920  17.734   4.332  14.116 -0.0039  0.0517  0.0372
12660W        W28921   9.121   1.766  12.815 -0.0492  0.2174  0.1554
12661W        W28922   5.898  16.030   0.214  0.0892 -0.1548 -0.0002
12662W        W28923   2.677  13.926   3.797 -0.1788 -0.1453  0.0390
12663W        W28924   0.819   9.095   4.400 -0.0484  0.3047  0.0911
12664W        W28925  19.033  13.736   1.144  0.1279  0.2507  0.3126
12665W        W28926  17.450  10.829   0.210  0.3557  0.1142 -0.0416
12666W        W28927   6.704   4.446  14.649 -0.1816 -0.0655  0.1461
12667W        W28928  13.656  17.419  13.070  0.0241  0.4326  0.1931
12668W        W28929  11.371   9.135   1.744  0.1624  0.3440 -0.1779
12669W        W28930  17.787   5.838  12.925  0.0261 -0.0902 -0.1122
12670W        W28931  16.478   4.941  10.777 -0.1487 -0.0736  0.1419
12671W        W28932  11.584   2.074  13.073  0.0420  0.2650  0.0652
12672W        W28933   5.846  12.983   1.744  0.1209  0.4246  0.1482
12673W        W28934  16.666  15.264  14.490 -0.0335  0.2600  0.0273
12674W        W28935  10.659  19.380   4.670 -0.0798  0.1095 -0.2815
12675W        W28936   6.013  14.133  13.224 -0.2837  0.2331 -0.2687
12676W        W28937  15.751   9.481   3.633  0.2316  0.2538 -0.1496
12677W        W28938  12.765  14.677   3.819 -0.3121  0.0930 -0.0582
12678W        W28939   1.675   9.117   3.209  0.0803 -0.1868  0.1309
12679W        W28940   0.676  13.410  11.310 -0.0450  0.2675 -0.0734
12680W        W28941  17.520  15.841  11.104 -0.1695  0.0595  0.2199
12681W        W28942  13.858  14.643   3.808  0.0920  0.0145 -0.0572
12682W        W28943   5.979   7.419   0.896 -0.0170  0.2500 -0.2031
12683W        W28944  15.793   0.688   1.368 -0.1906 -0.3756  0.0455
12684W        W28945  15.016  11.456   2.445  0.2710  0.3405  0.1490
12685W        W28946   1.407   0.753   3.393  0.1114 -0.1539 -0.3222
12686W        W28947  13.486   7.546   5.704  0.2212 -0.2481  0.0855
12687W        W28948   6.280   0.307  14.539  0.0364  0.1658  0.1735
12688W        W28949   8.395  11.394   1.565  0.0438 -0.2329  0.0610
12689W        W28950   7.395   7.513   2.254  0.3799 -0.3939 -0.2104
12690W        W28951   2.993  14.191   3.382  0.0663  0.1166 -0.0077
12691W        W28952   2.005  18.140  14.217  0.4368 -0.0810  0.0719
12692W        W28953   9.851   8.516   0.705 -0.0151  0.0054 -0.2923
12693W        W28954   2.279   3.773  13.401 -0.0805 -0.2555  0.2309
12694W        W28955  15.091  17.646   4.301 -0.2012  0.0965 -0.3286
12695W        W28956  18.700   1.172  10.776  0.1446  0.2278 -0.0660
12696W        W28957   9.310  18.629   2.876 -0.2674  0.0731 -0.1235
12697W        W28958  13.198  15.230   2.700 -0.0630  0.0830 -0.1728
12698W        W28959   9.055  13.365   4.335  0.0994  0.0419  0.2544
12699W        W28960   3.425   6.715  11.360  0.1331 -0.0902  0.6235
12700W        W28961  10.772  15.727   9.773  0.2337 -0.0371 -0.1790
12701W        W28962   3.660   9.889  12.200 -0.1788 -0.2925  0.0172
12702W        W28963  15.066  17.332  14.245  0.0669 -0.1981 -0.4780
12703W        W28964  13.898  15.565   4.563 -0.0711  0.2611 -0.0218
12704W        W28965  18.441   4.391   2.078  0.2345 -0.0973 -0.1181
12705W        W28966   0.008  16.912  12.327  0.0881 -0.0810  0.1114
12706W        W28967   2.613   0.205  10.917 -0.1349  0.2533 -0.0864
12707W        W28968  14.641  12.195  14.517 -0.0613 -0.0639  0.2876
12708W        W28969   1.498  11.731   3.298 -0.2452  0.1206 -0.1869
12709W        W28970  15.752  14.543   1.510  0.1351 -0.1754  0.4084
12710W        W28971  10.151   0.317   0.419 -0.0884 -0.0569  0.1544
12711W        W28972  12.956  13.450   4.376 -0.3545 -0.3564  0.0458
12712W        W28973  13.128   4.452   2.823  0.3584 -0.1249  0.0211
12713W        W28974   7.228  14.836   5.119  0.4015 -0.2346  0.0745
12714W        W28975   8.987   5.325   4.626  0.2374 -0.0409 -0.1387
12715W        W28976   8.915  17.736  12.363  0.1421 -0.5402 -0.1108
12716W        W28977   2.745  11.208   3.298 -0.0248 -0.1677 -0.3597
12717W        W28978  12.317   6.520   1.474 -0.3437 -0.3139 -0.3162
12718W        W28979  10.504  10.196   2.347  0.3606 -0.0629  0.1500
12719W        W28980   0.674  12.927  10.329 -0.0106  0.2880  0.3887
12720W        W28981   0.477  11.617   1.387 -0.0429 -0.1135 -0.0267
12721W        W28982   7.895   2.833  13.621 -0.0532  0.2405 -0.2712
12722W        W28983   6.442   9.711   4.011  0.0480 -0.2329  0.1753
12723W        W28984   4.612   6.728   4.927 -0.1386  0.0954 -0.1219
12724W        W28985   9.159   4.742   4.825  0.0592 -0.0185 -0.3226
12725W        W28986   0.232   7.864  13.867 -0.1753  0.0929  0.0914
12726W        W28987   5.423  14.863   3.549 -0.0825  0.0673  0.2528
12727W        W28988  13.818  16.539   1.306 -0.1316 -0.2092 -0.1060
12728W        W28989   5.775   5.138   2.450 -0.1576 -0.0738  0.1540
12729W        W28990   4.668  15.358   4.055  0.0301 -0.2804  0.0072
12730W        W28991  14.678   5.270   3.423 -0.0135  0.2058 -0.1954
12731W        W28992   8.949   3.585  12.900  0.0793 -0.0371  0.3542
12732W        W28993   6.735   0.878  12.508  0.1702 -0.1451 -0.3857
12733W        W28994  17.434   9.887   2.344  0.0811 -0.2941  0.1573
12734W        W28995  18.531   1.856   2.471  0.0426  0.0828 -0.0316
12735W        W28996   5.679   1.687   4.338  0.1335  0.3745 -0.0764
12736W        W28997  15.668  18.626   2.649  0.1544  0.2217 -0.2270
12737W        W28998  12.247   2.783   0.605  0.2554  0.3186  0.0284
12738W        W28999  13.800   9.782   0.856  0.0114  0.1259  0.0684
12739W        W29000  10.279   9.123   0.864  0.0629 -0.1665 -0.4805
12740W        W29001   5.610  15.523   1.360 -0.3456  0.0530 -0.0927
12741W        W29002   8.206  16.049   3.788 -0.1430 -0.0116 -0.1043
12742W        W29003   5.285  11.580  11.904 -0.0558  0.3548  0.1442
12743W        W29004   7.395   9.350   4.129  0.5188 -0.1172  0.1976
12744W        W29005   0.708   6.282  12.217  0.1636 -0.0041  0.0053
12745W        W29006   3.249  16.158   5.224 -0.2191 -0.2781 -0.2784
12746W        W29007  16.707  10.800   9.316 -0.0293 -0.2616  0.0024
12747W        W29008  13.684   3.193   0.900 -0.0183  0.3018  0.1672
12748W        W29009   7.006  12.775   0.524 -0.0064 -0.0948 -0.0987
12749W        W29010  12.413  18.507  13.361 -0.0109  0.0610  0.2496
12750W        W29011   7.757   6.185  12.002 -0.4084  0.2966  0.2729
12751W        W29012  12.520   2.357   1.075  0.3616  0.0200  0.1785
12752W        W29013   0.808  13.945   1.856 -0.0829 -0.2012  0.0246
12753W        W29014  15.956   5.267  12.847  0.1948 -0.0471  0.0060
12754W        W29015  16.609   2.983   2.114 -0.5979 -0.0432  0.0229
12755W        W29016  13.338  15.528   1.388 -0.0414  0.3025 -0.1389
12756W        W29017   0.750   6.220   5.630  0.2513 -0.2036 -0.0106
12757W        W29018  11.805  11.111  10.380  0.0797  0.2639  0.0354
12758W        W29019  12.791   4.121  12.154  0.2887 -0.0980  0.0062
12759W        W29020   6.929   0.972   1.500 -0.1323 -0.0265  0.3044
12760W        W29021   4.052  12.307   9.877  0.0084  0.2515  0.0484
12761W        W29022  14.926   5.880   1.347 -0.2527  0.2995  0.0252
12762W        W29023  15.687  14.164  12.822 -0.1462 -0.0011  0.2704
12763W        W29024   7.861   6.810   0.210  0.2446  0.1092  0.2354
12764W        W29025   2.950  11.472   1.042 -0.0258 -0.1574 -0.2277
12765W        W29026   7.641  10.501   0.150  0.0183 -0.1059 -0.0402
12766W        W29027  17.154  11.627   1.083 -0.0810  0.0474  0.1261
12767W        W29028   4.104  10.187   3.934 -0.1615  0.1189 -0.3330
12768W        W29029  18.912   8.534   4.785  0.3744  0.0878 -0.2045
12769W        W29030  10.902   8.370  10.671 -0.2896 -0.0086 -0.1141
12770W        W29031  10.475   8.901  10.729 -0.1703  0.2761  0.2186
12771W        W29032   4.695  10.911   3.609  0.2238  0.0754 -0.3579
12772W        W29033   9.220   2.508  14.294 -0.1894  0.2290  0.0325
12773W        W29034  12.221  12.571  13.259 -0.0048 -0.0634 -0.2178
12774W        W29035   8.537   4.940  12.834 -0.0700 -0.1942  0.2215
12775W        W29036   0.616  14.285   5.111  0.1529 -0.2482  0.0470
12776W        W29037  15.219  12.948   0.618 -0.0243 -0.1313 -0.2851
12777W        W29038  12.696  15.089  10.578 -0.2408 -0.5369 -0.2272
12778W        W29039   2.753  19.043   4.100  0.0339 -0.2034  0.1463
12779W        W29040  15.992   1.455  11.681  0.1005 -0.0233 -0.1797
12780W        W29041   4.833   1.445   3.821 -0.0388 -0.1230  0.1579
12781W        W29042   7.131  19.402  14.304 -0.0784  0.1309  0.1644
12782W        W29043  10.987  18.337  14.541  0.5829 -0.0841 -0.0057
12783W        W29044   9.721  16.064  14.162  0.1956 -0.0506  0.0397
12784W        W29045   7.394  16.823   0.370  0.0824  0.3912 -0.1965
12785W        W29046  16.648   5.197   2.680 -0.2779 -0.2178  0.0625
12786W        W29047   5.172   4.400  10.430 -0.3497 -0.0010  0.4540
12787W        W29048  10.510  13.682   2.835 -0.0205 -0.1153 -0.0081
12788W        W29049  17.336  12.391  12.001 -0.3708 -0.2056 -0.2654
12789W        W29050   4.940  15.899   0.992  0.0783 -0.4507  0.2707
12790W        W29051   6.340  13.273   2.444 -0.4359  0.3148 -0.1636
12791W        W29052  13.933   1.224   0.041  0.2014 -0.0231  0.2024
12792W        W29053   9.660   5.639  11.400  0.3686 -0.2668 -0.2272
12793W        W29054  14.015   4.313   9.424 -0.1906 -0.1734  0.1350
12794W        W29055   7.637  14.219  13.589  0.0545 -0.0859 -0.0045
12795W        W29056  12.156  10.626  13.084  0.1111  0.2701  0.0916
12796W        W29057   4.150  12.264   3.972 -0.0406  0.0435  0.0655
12797W        W29058  18.956   4.949  13.750 -0.0863  0.2381  0.2738
12798W        W29059  18.744   1.257   2.862  0.3025 -0.1413  0.1606
12799W        W29060   6.462  12.867   0.465 -0.0558 -0.0097 -0.0527
12800W        W29061  14.502  11.669   4.806  0.2735 -0.0669  0.0381
12801W        W29062   6.996   8.065   1.283  0.2470 -0.1158  0.0589
12802W        W29063   6.817  14.827   4.725  0.0032 -0.2850 -0.0440
12803W        W29064   7.557  11.348   2.387  0.0336  0.1562 -0.0080
12804W        W29065   4.546  11.929  14.850  0.3221  0.4654  0.1856
12805W        W29066   2.857   2.317  14.454 -0.0552  0.0223  0.1712
12806W        W29067   2.091  10.752   3.387 -0.2121 -0.1676  0.0756
12807W        W29068   1.027   8.875   9.563 -0.3388  0.0256  0.3244
12808W        W29069   5.781   3.120  13.294  0.1170 -0.0581 -0.0059
12809W        W29070  18.825  15.777   4.299 -0.4902  0.0102 -0.0007
12810W        W29071  11.022  11.017   1.003  0.0855 -0.2289 -0.1390
12811W        W29072  17.927  18.275  13.716  0.0460 -0.0234  0.2964
12812W        W29073   9.945  14.999   1.033  0.2065 -0.0017  0.0482
12813W        W29074   0.992  17.151  14.054 -0.0240  0.2886  0.0729
12814W        W29075  17.099   3.051   4.954 -0.0939  0.2127 -0.2465
12815W        W29076  18.707  19.290   1.104  0.3344 -0.0207  0.2420
12816W        W29077  17.445   9.045  11.983 -0.1078  0.0661 -0.0533
12817W        W29078  18.501  14.142   3.200 -0.2036  0.2448  0.7572
12818W        W29079  10.375   2.826   2.284  0.1092  0.1743  0.0399
12819W        W29080  15.131  10.996  12.389 -0.1197  0.0657  0.1903
12820W        W29081  13.209   1.338   0.422  0.2440  0.1987  0.0055
12821W        W29082   2.127  12.667  12.962 -0.0029 -0.0526 -0.1340
12822W        W29083   6.535   4.434   2.423 -0.2140 -0.0752  0.1372
12823W        W29084   8.659  17.622  11.079 -0.0465 -0.0157 -0.0814
12824W        W29085   0.509   2.510   3.011 -0.0143 -0.0493 -0.0572
12825W        W29086  17.436   8.603   0.297  0.2732  0.0375  0.4480
12826W        W29087   5.404  16.325  11.030 -0.2191  0.1847  0.3375
12827W        W29088  14.500   7.740  13.802 -0.0470  0.0304  0.2044
12828W        W29089  11.432  12.108   2.998  0.3448 -0.1302  0.0211
12829W        W29090  17.450  18.182   3.754 -0.0503  0.1678  0.2004
12830W        W29091  18.170   4.204   1.666  0.2712 -0.4277  0.2809
12831W        W29092  16.040  15.016   0.539  0.0096 -0.4083  0.0228
12832W        W29093  13.249   3.834  12.230 -0.1288  0.0644  0.0951
12833W        W29094  17.991  13.878  12.276  0.1263 -0.3076 -0.2188
12834W        W29095  10.511  13.265  12.552  0.0530 -0.1603  0.0798
12835W        W29096  16.040   9.778  14.762  0.0612 -0.0414 -0.0112
12836W        W29097   4.242   0.527   1.413  0.0298 -0.3614 -0.2680
12837W        W29098  14.844  12.075   2.450  0.0291  0.3765 -0.1426
12838W        W29099   2.465  14.471   2.193  0.0046 -0.0733 -0.1826
12839W        W29100  12.540  12.155  10.584  0.0084 -0.1932  0.1940
12840W        W29101   1.228   4.495   0.789 -0.2175  0.3464 -0.2592
12841W        W29102  13.920  15.171  14.870  0.0469 -0.1183  0.3635
12842W        W29103   6.823   6.483   0.867 -0.0508  0.0624  0.0614
12843W        W29104   4.686   7.822  12.732 -0.0787  0.1732 -0.1598
12844W        W29105   3.292   6.458   2.971  0.2036 -0.0748 -0.0839
12845W        W29106   5.750  19.221  12.440  0.0337 -0.2101  0.1575
12846W        W29107   1.453  11.061  12.662  0.1856  0.3831 -0.0264
12847W        W29108   4.265   7.844  13.627 -0.4505 -0.0182  0.2270
12848W        W29109   4.625   6.564  10.594  0.0959 -0.1522 -0.2520
12849W        W29110   3.922   7.473   1.466  0.2617 -0.3160  0.0840
12850W        W29111  17.639  10.140  11.452  0.3671  0.3095 -0.1478
12851W        W29112  14.235   6.095   4.637  0.0890  0.0205 -0.1243
12852W        W29113  12.865   3.696  11.825 -0.0494 -0.0067 -0.2929
12853W        W29114  12.300   2.047  13.601  0.1845  0.2138  0.1702
12854W        W29115  11.185  19.209  11.436  0.1294 -0.5249  0.0164
12855W        W29116  12.573  16.080  13.057  0.1572 -0.0036 -0.4340
12856W        W29117  17.107  18.253   5.481  0.0487  0.1188  0.3689
12857W        W29118   4.886  16.695  10.054  0.0592  0.2062 -0.1310
12858W        W29119   5.273   6.131   4.878  0.0364  0.0884  0.0640
12859W        W29120  19.165   5.771   0.591  0.3061 -0.1601 -0.1007
12860W        W29121   6.041   0.005   4.425 -0.1486 -0.0062 -0.1480
12861W        W29122   3.965   1.139  11.075  0.1506 -0.3049 -0.1692
12862W        W29123  16.498  16.962   0.322  0.3536  0.0207 -0.1345
12863W        W29124   0.882  14.771   3.063  0.0568  0.0803 -0.0747
12864W        W29125  10.064  11.050   0.937 -0.0889  0.3619  0.2172
12865W        W29126  13.066  14.275  12.926 -0.0237  0.0349  0.1822
12866W        W29127   3.959  13.436  14.078  0.0148  0.4155  0.0212
12867W        W29128   3.051   3.311   3.086  0.1791  0.1954  0.4438
12868W        W29129   9.907   2.201   1.185 -0.0447  0.1613 -0.0840
12869W        W29130   1.975  15.373   1.877 -0.3780  0.1343 -0.2830
12870W        W29131  10.168   8.309  14.799 -0.0049  0.3112 -0.0107
12871W        W29132  12.321  17.406  14.329  0.1624 -0.1178 -0.4373
12872W        W29133  11.196   3.060  13.018 -0.0970  0.0800 -0.1944
12873W        W29134  13.045   1.805   4.192 -0.2143  0.0780 -0.0808
12874W        W29135  12.647   1.868   1.811 -0.0601 -0.0008  0.1974
12875W        W29136  16.881  15.874  13.191  0.1286  0.2120 -0.2540
12876W        W29137   6.179   3.919  13.446  0.3198  0.1829  0.1990
12877W        W29138   7.346  11.447   1.017  0.0744 -0.2082  0.2475
12878W        W29139  14.694  19.066   2.114  0.0271 -0.1592 -0.2663
12879W        W29140   3.840  13.429   3.410 -0.0612 -0.2797 -0.3194
12880W        W29141  16.190   7.871   3.218 -0.0590  0.1692 -0.0423
12881W        W29142  17.886  17.380   0.393 -0.1431  0.1352 -0.0759
12882W        W29143   9.305   1.159   0.189  0.0224  0.1111 -0.1547
12883W        W29144   7.245  18.966   1.943  0.2357 -0.2086  0.2150
12884W        W29145  12.393   9.668   3.906 -0.2902  0.1032  0.0944
12885W        W29146   8.804  15.788  12.001  0.1070 -0.0950  0.1953
12886W        W29147   4.994  13.623   4.854  0.1901 -0.0456 -0.5423
12887W        W29148   2.183   9.664  11.435  0.1053  0.0460  0.0366
12888W        W29149   3.487   4.767  13.526 -0.0939 -0.2358  0.2143
12889W        W29150  14.071  16.004  11.854  0.0171  0.0763 -0.0579
12890W        W29151  13.442   2.327   9.353 -0.1776 -0.1025 -0.1482
12891W        W29152   6.235  19.232  10.916  0.2969 -0.0648 -0.2056
12892W        W29153   1.182   5.478   4.554 -0.1168  0.1034  0.1430
12893W        W29154   9.587   2.989  11.227  0.1035  0.0682 -0.0844
12894W        W29155  18.995   1.306  11.175  0.0257 -0.0006  0.0331
12895W        W29156  14.070   6.702  14.329 -0.2554  0.1196 -0.0752
12896W        W29157   2.419   8.615  13.221  0.1321 -0.4499  0.0391
12897W        W29158   6.006  17.612   3.372  0.1653 -0.0276  0.1701
12898W        W29159   5.236   3.198  12.610  0.0285  0.1770 -0.2053
12899W        W29160   5.818  12.901   3.818 -0.2551 -0.1562 -0.0574
12900W        W29161   7.136  13.380  13.727  0.0968  0.2353  0.3465
12901W        W29162   7.293   6.085   2.541 -0.1424 -0.1620 -0.1509
12902W        W29163   6.433   8.232  13.568  0.0053  0.0094 -0.1683
12903W        W29164  17.758   3.766   0.495 -0.2480 -0.1948  0.0025
12904W        W29165  17.721   9.900   0.219  0.1249  0.1441 -0.1362
12905W        W29166  14.499   7.275  12.349 -0.2780 -0.3787 -0.3052
12906W        W29167  12.170  13.649  14.859 -0.1860  0.2496 -0.1447
12907W        W29168   6.037  11.802   4.126 -0.3418 -0.2426  0.0121
12908W        W29169   9.630  11.195   4.559 -0.1553 -0.1425  0.1310
12909W        W29170   0.114  18.172   3.464 -0.0879  0.0730  0.1022
12910W        W29171   5.619  14.141  11.189 -0.2784  0.0337 -0.3759
12911W        W29172   3.379  14.913   0.001 -0.0698 -0.0077 -0.0932
12912W        W29173  12.673  17.053  13.802 -0.3534 -0.0693 -0.0903
12913W        W29174  17.090  14.830   3.726 -0.0226  0.1764  0.0852
12914W        W29175  13.239  13.843  14.322  0.1696  0.0775  0.1053
12915W        W29176   9.438  14.339  13.994 -0.1614 -0.0236  0.4505
12916W        W29177  10.289  10.363   4.311  0.1447  0.2630  0.0683
12917W        W29178   5.071  13.926   2.116  0.0125  0.2414 -0.5416
12918W        W29179  19.137  18.357   2.740  0.2947 -0.2408 -0.1738
12919W        W29180  12.051   3.389  11.054  0.4106 -0.3758 -0.0404
12920W        W29181  17.265  11.972  11.790 -0.1420  0.2003  0.0347
12921W        W29182  14.028  12.738  13.632  0.2054  0.2620  0.1978
12922W        W29183   9.162   4.143  14.579  0.2025 -0.2961  0.0384
12923W        W29184  17.133   7.812  14.163 -0.1045  0.0612  0.1699
12924W        W29185  16.762  16.345  10.200 -0.3715 -0.2263 -0.0410
12925W        W29186  19.226   3.502  14.841  0.1354  0.1647  0.0668
12926W        W29187   9.528   0.842   4.984  0.1098 -0.1346 -0.0240
12927W        W29188   6.472   7.895   5.654 -0.1014 -0.1999  0.1230
12928W        W29189   9.497  10.474  11.095 -0.0645  0.1135  0.1414
12929W        W29190  15.856  19.374   3.943 -0.1009  0.2219  0.1399
12930W        W29191  16.385  14.814  14.635 -0.0587 -0.2114 -0.0554
12931W        W29192  11.727   1.044  14.347  0.0309 -0.0180 -0.1350
12932W        W29193   7.498   6.483   1.823 -0.2034  0.1994  0.0507
12933W        W29194   3.761  15.146   1.441 -0.0261 -0.4310  0.0415
12934W        W29195   4.806   7.846  12.250  0.1433  0.2346 -0.1045
12935W        W29196  18.939  18.676  12.346 -0.2785  0.3208  0.3626
12936W        W29197   9.866   6.550   5.470 -0.1751  0.4046  0.1103
12937W        W29198  15.265   4.031   0.269 -0.2004  0.1910 -0.4401
12938W        W29199   5.372   7.993  11.686  0.1043 -0.0412 -0.2228
12939W        W29200   4.207  18.417  12.379  0.0487 -0.0483  0.1751
12940W        W29201  15.516  18.579  11.017 -0.1625 -0.2560 -0.1873
12941W        W29202   2.633  12.992  10.322  0.0393 -0.0583 -0.0482
12942W        W29203   9.699   4.783  11.926  0.0569 -0.0414 -0.2420
12943W        W29204  18.453  18.250  10.680  0.2482  0.3526 -0.1678
12944W        W29205  10.682   9.344  10.872  0.0431 -0.2043 -0.0094
12945W        W29206  12.544  14.129  11.954  0.1132 -0.3116  0.2838
12946W        W29207  13.499  15.671  12.111  0.5131  0.1228  0.0326
12947W        W29208  14.194   7.666   3.532 -0.1063  0.0604  0.2083
12948W        W29209   2.391  13.814  11.315 -0.0019  0.3643 -0.0435
12949W        W29210   1.337  12.589  14.733 -0.0091 -0.1538 -0.3121
12950W        W29211   8.014   5.606  14.474 -0.1294  0.2014 -0.0174
12951W        W29212   1.304   8.314   4.719  0.3935 -0.0883 -0.2871
12952W        W29213  16.807   6.556  14.518 -0.0854  0.1305 -0.3454
12953W        W29214   2.609   5.512  14.273 -0.0520  0.1591 -0.2033
12954W        W29215   3.118   6.107  14.580 -0.2170  0.1631 -0.0499
12955W        W29216   8.426  13.698   5.321  0.0656  0.0510 -0.2971
12956W        W29217  10.540  11.913   0.296  0.0481 -0.3466 -0.2867
12957W        W29218   9.474   1.277   2.206  0.0795  0.3423  0.0643
12958W        W29219  16.072  18.449  10.177 -0.1328 -0.2968 -0.1868
12959W        W29220  10.071  11.390   3.822 -0.1466 -0.1217 -0.1554
12960W        W29221   5.740   1.413   2.212  0.0071  0.2352 -0.3476
12961W        W29222   5.686   1.951   3.566  0.1946  0.2227  0.0044
12962W        W29223  10.361   5.139   0.774  0.1460  0.1611  0.0208
12963W        W29224  14.702  15.498  14.424 -0.0692  0.2132 -0.2316
12964W        W29225  18.057   6.372  13.662  0.2270 -0.1847 -0.1029
12965W        W29226   1.891  13.969  14.727  0.0118 -0.0156  0.0182
12966W        W29227  18.896  13.904   0.342  0.1083  0.1646  0.0947
12967W        W29228   3.496  17.811   2.603  0.1626 -0.3442 -0.1011
12968W        W29229  19.299  15.939   2.162 -0.1228 -0.1995  0.0743
12969W        W29230   1.438   7.407   1.098 -0.0810 -0.0233 -0.0262
12970W        W29231   3.829  16.892  12.835 -0.1939  0.1313 -0.0428
12971W        W29232  18.719  19.190   1.979 -0.1888  0.0637 -0.3630
12972W        W29233  14.560   4.781  14.084 -0.0187 -0.0603 -0.0317
12973W        W29234  18.056   5.988  11.117  0.1154  0.2424 -0.1847
12974W        W29235   7.857   5.435   2.676  0.1042  0.1150  0.2785
12975W        W29236   7.019   9.200  11.877 -0.4366  0.1039  0.3481
12976W        W29237  13.256   4.968  13.605  0.5385  0.0639  0.0852
12977W        W29238   4.372  13.854   3.942  0.0833 -0.1388  0.2211
12978W        W29239  11.800   7.755   0.641 -0.1445 -0.0094  0.1806
12979W        W29240   9.663  14.205  12.097  0.0236 -0.0130  0.1198
12980W        W29241   8.455   6.840  11.750 -0.3313 -0.1604 -0.2636
12981W        W29242  18.161  12.551  12.576  0.2310  0.0873 -0.1166
12982W        W29243  17.497   9.914  14.160  0.0328 -0.0152  0.3419
12983W        W29244   0.102   6.009  10.057  0.1154  0.0227  0.3295
12984W        W29245  19.248   3.757   1.961 -0.2261  0.2087  0.0554
12985W        W29246   4.879  18.921   1.106  0.1589 -0.2429 -0.0511
12986W        W29247   8.086   9.753   1.554 -0.0405  0.0608 -0.0662
12987W        W29248   6.042   1.992   2.833  0.2695  0.2325  0.4384
12988W        W29249   7.384   7.486  12.098 -0.0310 -0.2676 -0.3777
12989W        W29250   2.678  13.074  14.774  0.0978 -0.3087  0.1409
12990W        W29251   5.611  10.060  11.243  0.0751 -0.2942 -0.2293
12991W        W29252  12.774  15.699  13.337 -0.1928  0.2072  0.2649
12992W        W29253   3.333   6.296   3.443  0.3753 -0.1865  0.3707
12993W        W29254  13.028   0.683  14.158 -0.2237 -0.0437  0.2917
12994W        W29255   8.436   0.959  11.737  0.3752 -0.1431 -0.0351
12995W        W29256  17.136  16.580  13.011 -0.0636  0.1935  0.2773
12996W        W29257   7.660   1.842   5.395  0.2867 -0.0982  0.0706
12997W        W29258  10.620   2.320   1.099 -0.0120  0.1798 -0.1087
12998W        W29259  10.340  16.650  12.852  0.2332 -0.0172  0.0755
12999W        W29260   0.265  13.827  14.584  0.1037  0.0390 -0.3207
13000W        W29261   1.619   6.819  12.444 -0.4659  0.0640 -0.2648
13001W        W29262  15.871  13.058  11.130 -0.2436 -0.1421 -0.1734
13002W        W29263  12.574   1.228  12.042  0.1712  0.1834 -0.1392
13003W        W29264  15.124  12.188  10.644 -0.1128  0.0139  0.0230
13004W        W29265  10.663   4.214   1.766  0.0218  0.0804  0.2156
13005W        W29266   1.459  19.234   1.163 -0.0196 -0.1588 -0.1739
13006W        W29267   8.459  19.358  10.757 -0.2272  0.2365  0.2416
13007W        W29268   3.676  15.928  14.543 -0.0724 -0.0414 -0.3253
13008W        W29269   9.821  11.511   2.295 -0.2247  0.2422 -0.1936
13009W        W29270   6.963   6.590  10.264  0.0991  0.1519 -0.1545
13010W        W29271   5.862  16.575   1.432 -0.1793  0.3184  0.1068
13011W        W29272  12.394  11.358  12.628  0.1936 -0.1045 -0.1302
13012W        W29273  12.110  14.405  12.191  0.0457  0.0129 -0.0834
13013W        W29274   6.508   3.399   5.177  0.3451 -0.1708 -0.0371
13014W        W29275  14.597   4.843   3.837 -0.0741  0.1874 -0.2836
13015W        W29276  15.199   2.582  13.713 -0.1638  0.2966 -0.0597
13016W        W29277  12.231   1.803  14.038 -0.0772 -0.2972  0.0004
13017W        W29278   8.622   9.501   1.674 -0.2586 -0.0422  0.3057
13018W        W29279   7.877  13.614   1.001 -0.3379  0.0744  0.1949
13019W        W29280   9.044  12.943  13.257 -0.0706 -0.0013  0.0999
13020W        W29281   5.039   0.406   4.367  0.0050 -0.0793 -0.1712
13021W        W29282   5.467   6.095   0.644  0.1751 -0.1590 -0.0375
13022W        W29283  17.006  17.988  14.456 -0.0739  0.1514  0.1015
13023W        W29284  13.538   2.366   1.109 -0.1253  0.1811  0.2498
13024W        W29285   8.927  15.820   4.941 -0.3464  0.4206 -0.0510
13025W        W29286  10.620  19.274   2.328 -0.4870 -0.1302 -0.2211
13026W        W29287   7.681   4.903   4.563  0.1346 -0.0734 -0.3469
13027W        W29288   1.414  18.261  12.533 -0.0277  0.0057  0.1323
13028W        W29289   3.846  11.693   1.855  0.1058 -0.0833  0.1034
13029W        W29290   7.760   0.368  11.927 -0.1325 -0.4270  0.2347
13030W        W29291  19.008  10.715   5.143  0.2552 -0.2010 -0.1088
13031W        W29292  16.769  17.184  13.955 -0.1448 -0.0130  0.0251
13032W        W29293   3.729  17.288  11.936 -0.2596 -0.2744  0.0171
13033W        W29294   1.142   9.152  12.192  0.0862 -0.0024 -0.2541
13034W        W29295  13.656   6.755  10.681 -0.1189  0.2367  0.1623
13035W        W29296   4.401  17.539  12.269 -0.0932 -0.0660  0.0867
13036W        W29297  16.843  10.171  12.550 -0.0170  0.3273 -0.0731
13037W        W29298   7.648   0.003  14.297  0.0069  0.2236 -0.0757
13038W        W29299  17.683  12.969  11.102  0.1729  0.0323 -0.2515
13039W        W29300  15.137   6.603   2.635 -0.1226 -0.2228 -0.3611
13040W        W29301  12.161  17.735  13.077  0.0818  0.2631  0.0952
13041W        W29302  16.666   5.605   0.759 -0.0244  0.0699  0.1149
13042W        W29303  19.078  16.959   4.516  0.1375  0.1027  0.1970
13043W        W29304   5.473  17.476  14.120  0.1256  0.1134 -0.2323
13044W        W29305   5.474  12.193  13.873  0.0392  0.1758  0.1835
13045W        W29306   5.258   4.654   5.346 -0.1576  0.1136 -0.1677
13046W        W29307  14.373   4.809   0.804 -0.0551 -0.1044 -0.0222
13047W        W29308  17.075  10.176   2.574  0.0428  0.3715 -0.0083
13048W        W29309  17.346  19.251  12.013  0.0768  0.2445  0.0607
13049W        W29310  17.886  18.221   1.557  0.0935 -0.1087 -0.0926
13050W        W29311   8.772   6.652   0.264 -0.2092 -0.2222 -0.1746
13051W        W29312  12.812  13.976   4.212  0.0379  0.1681  0.0617
13052W        W29313   2.599   0.329  11.375 -0.1454 -0.1375 -0.1687
13053W        W29314  15.925   1.978   0.305 -0.0894 -0.1637 -0.3163
13054W        W29315   4.975   4.836  10.251  0.0796 -0.2715  0.0067
13055W        W29316  15.246   3.348   5.218  0.0279  0.1838  0.0294
13056W        W29317   6.965  17.258  12.160  0.1220  0.0009 -0.0230
13057W        W29318   7.693  18.607  13.026 -0.1416 -0.1103 -0.1497
13058W        W29319  12.966  19.289  11.808 -0.0245 -0.5553  0.1873
13059W        W29320   9.885   4.287   1.241  0.0688 -0.2927  0.0871
13060W        W29321  19.234   9.690  11.859 -0.0543 -0.3741  0.1281
13061W        W29322  19.160  12.590  14.850  0.3356 -0.0500 -0.1376
13062W        W29323   5.332  11.469   0.874 -0.1337 -0.1639  0.0095
13063W        W29324   1.566  12.700   0.295  0.1462  0.2194  0.0594
13064W        W29325   7.419   6.514  13.980 -0.2080 -0.3449 -0.0599
13065W        W29326   0.109   3.476  10.964 -0.0992 -0.1351  0.1391
13066W        W29327  12.999  11.111   0.160 -0.1334 -0.1797  0.0706
13067W        W29328   1.384  11.701  14.385  0.1533 -0.0740 -0.0294
13068W        W29329   6.508  17.463  14.325  0.0162  0.4085  0.0818
13069W        W29330  13.601  12.279   0.815  0.4281  0.1055  0.2395
13070W        W29331  13.510   6.626   4.111  0.1320  0.2927 -0.1908
13071W        W29332  18.125  16.695   2.140 -0.2253  0.2276 -0.1282
13072W        W29333  11.439   3.541   9.495 -0.1096  0.2071 -0.0509
13073W        W29334   3.888  11.232  13.514 -0.0202  0.1050  0.1203
13074W        W29335  15.649  18.338  12.319 -0.3503 -0.0925 -0.2127
13075W        W29336  14.045  10.307   1.412 -0.1044 -0.1623 -0.0810
13076W        W29337  15.125   0.620  14.738 -0.2786  0.0358 -0.0654
13077W        W29338   5.032   8.875   1.156  0.0172  0.0147 -0.0249
13078W        W29339   1.009  17.131   1.790 -0.0643 -0.0055 -0.0919
13079W        W29340  15.107   6.683   0.762 -0.0427 -0.1191 -0.3779
13080W        W29341  18.439  11.955   0.821  0.3076  0.3064  0.0558
13081W        W29342  13.538   4.076   3.019 -0.3384 -0.5343 -0.0632
13082W        W29343  11.103  13.056   2.914 -0.0103 -0.3351  0.0383
13083W        W29344  15.234   5.806   0.083 -0.3484 -0.0692  0.0425
13084W        W29345   8.268   9.156  11.241 -0.3401  0.1496 -0.2100
13085W        W29346   2.049   2.944  13.844  0.1086 -0.1478 -0.1499
13086W        W29347  17.148  18.872   4.899 -0.2301  0.1618  0.1324
13087W        W29348  11.934   9.443  13.937  0.0130  0.1994  0.0941
13088W        W29349  16.755  15.773  11.401 -0.2948  0.1333  0.0211
13089W        W29350   7.447  16.591  12.386  0.1104  0.0625 -0.3000
13090W        W29351   8.191   2.867   2.510  0.0760 -0.0202  0.0531
13091W        W29352   0.297  16.202   2.832 -0.0196  0.0462 -0.0571
13092W        W29353   1.140   2.793   3.758  0.3949 -0.0113  0.3487
13093W        W29354   9.118   0.744   4.191  0.0618 -0.1192  0.0051
13094W        W29355  13.932  16.137  13.905 -0.1615 -0.3569  0.3208
13095W        W29356  12.876   3.540   3.151  0.2083  0.0927  0.1161
13096W        W29357   1.188  13.492  11.343  0.2314  0.3096  0.0159
13097W        W29358   5.654   4.168   4.150 -0.3259  0.1151  0.3474
13098W        W29359   3.297  15.865  14.207 -0.2625  0.1431  0.0459
13099W        W29360  12.202   6.494   0.737 -0.0001  0.0166  0.1345
13100W        W29361   3.336  12.417   2.235 -0.1136  0.3123 -0.1276
13101W        W29362   7.918   3.344  14.203  0.1857  0.3285  0.1238
13102W        W29363   6.091  17.618  13.263 -0.1976  0.0654 -0.3660
13103W        W29364  13.876   7.701  10.891 -0.3295  0.0813  0.1526
13104W        W29365  18.502   1.498  11.186  0.0788 -0.0067 -0.0058
13105W        W29366  10.819  15.370  10.857  0.0095 -0.1902 -0.1908
13106W        W29367  16.694  18.290   2.943  0.2350  0.2282  0.3654
13107W        W29368  15.418  11.338  10.597 -0.1096 -0.1514  0.2070
13108W        W29369   1.165  12.110  13.700 -0.1223 -0.0015  0.1801
13109W        W29370   0.881   0.573   1.908 -0.1237 -0.1401 -0.0197
13110W        W29371  19.093   0.272  10.071 -0.0619 -0.0094  0.0754
13111W        W29372   7.806   2.740   0.573  0.1467 -0.1987  0.1989
13112W        W29373   3.467  18.533   2.517  0.2080  0.0096 -0.0188
13113W        W29374  13.017  17.978  11.497 -0.1384  0.0590 -0.0147
13114W        W29375   8.666   5.732   1.682 -0.1762  0.3473  0.2893
13115W        W29376  19.416   7.819  11.549  0.0024 -0.1012 -0.0312
13116W        W29377  15.516  13.853  11.064  0.1959  0.1896 -0.3638
13117W        W29378   6.150  17.979  10.562 -0.0223 -0.2945 -0.0916
13118W        W29379  14.553  19.408   4.733 -0.1020 -0.1006  0.1250
13119W        W29380   5.234   5.622   4.739 -0.0341  0.1903  0.0892
13120W        W29381   0.487  11.950   4.273  0.2443  0.0702 -0.1293
13121W        W29382   4.589  14.200   0.464 -0.2473  0.1958  0.0076
13122W        W29383   0.723  11.278  10.825 -0.0230 -0.3445 -0.0629
13123W        W29384   5.869   9.748   2.954  0.0648 -0.1994  0.0829
13124W        W29385  13.432   1.230  14.859 -0.1023 -0.1715  0.1019
13125W        W29386   8.279   4.295   0.394 -0.2051  0.1320  0.1665
13126W        W29387  14.912  12.315   3.260  0.2462 -0.2987 -0.3060
13127W        W29388   1.864  11.631   1.301  0.0281  0.0362  0.0711
13128W        W29389  16.867  17.328  12.485  0.0888  0.0732 -0.0081
13129W        W29390  15.454   7.182  14.747 -0.2242 -0.0593 -0.0857
13130W        W29391  16.105   6.368  11.866  0.0215 -0.0440 -0.0964
13131W        W29392   9.043  14.909  14.308 -0.1975 -0.0043 -0.1490
13132W        W29393  12.352   5.812  14.832 -0.0579  0.0945 -0.1648
13133W        W29394   6.574   4.973  10.831 -0.0807  0.2329  0.1262
13134W        W29395  16.631   6.885  13.786  0.0481 -0.0986  0.0137
13135W        W29396   7.146   5.498  14.826  0.0656 -0.1788 -0.2191
13136W        W29397  12.074   7.792   5.342 -0.3260 -0.3353 -0.1981
13137W        W29398  11.055   7.229   4.528  0.0415 -0.2552  0.1066
13138W        W29399   0.012  18.441  12.492  0.0608 -0.1759  0.2576
13139W        W29400  17.657  14.066  11.911 -0.1811 -0.0475 -0.1749
13140W        W29401  12.341   3.922   4.665  0.2597  0.0763  0.0229
13141W        W29402  16.997  18.032  10.595  0.2009  0.2414 -0.2710
13142W        W29403   8.091  16.482  11.527 -0.1140  0.1973 -0.0192
13143W        W29404   1.092  15.994   5.605 -0.0944  0.2300 -0.0308
13144W        W29405   8.845  11.896   0.853  0.1466 -0.2096 -0.0993
13145W        W29406   4.944   8.840   3.173  0.1835 -0.1083 -0.4387
13146W        W29407   0.271  17.566   0.818  0.0300  0.0407 -0.1036
13147W        W29408   7.786   6.856  11.111 -0.2117  0.1596 -0.2011
13148W        W29409   5.499  17.644  11.752  0.0304  0.0529 -0.0081
13149W        W29410  14.590  12.181  13.997 -0.0720  0.1715  0.0419
13150W        W29411   6.954  15.748  11.931 -0.1966  0.0247 -0.4627
13151W        W29412   4.993   2.165   0.907  0.0477  0.0823  0.3822
13152W        W29413  13.146   8.596   3.916  0.1603 -0.1797 -0.1946
13153W        W29414   8.224  10.834   5.049  0.0679  0.0521 -0.0156
13154W        W29415  14.559  14.175  14.397  0.1060  0.0895 -0.0270
13155W        W29416  12.112  19.144   2.473  0.1369 -0.0345  0.0211
13156W        W29417   9.460   3.574   2.906  0.1728  0.4625  0.4354
13157W        W29418   8.707  13.880  14.370  0.0764 -0.0365 -0.0953
13158W        W29419  17.317  12.045  11.246  0.2250 -0.3084 -0.1683
13159W        W29420   3.438   8.155   3.736 -0.2196 -0.5383 -0.2059
13160W        W29421   3.100   6.006   0.200 -0.0867 -0.0940 -0.0071
13161W        W29422  16.385   7.052   2.235 -0.1333 -0.0031  0.0564
13162W        W29423  15.577  12.528  14.635  0.0379 -0.0296 -0.3627
13163W        W29424  17.456  14.633   4.311 -0.2748 -0.2044 -0.1280
13164W        W29425   8.701  14.589  10.290  0.3338  0.0545  0.0185
13165W        W29426  17.866   6.125   4.151 -0.3092  0.0934  0.0446
13166W        W29427  10.465  15.228  13.460 -0.2330 -0.0419  0.0407
13167W        W29428   4.003   1.518  13.666  0.2420 -0.0478  0.1353
13168W        W29429   8.085   2.052   5.108  0.0456 -0.1083 -0.1877
13169W        W29430   9.599  15.543   1.368  0.2890 -0.2112 -0.1403
13170W        W29431   9.322  13.814  12.043  0.0772 -0.0349  0.0006
13171W        W29432  11.763  17.952  10.946  0.1179 -0.2300  0.1396
13172W        W29433  14.295   8.920  11.156  0.2320 -0.1882 -0.0700
13173W        W29434   5.693  10.801  10.100  0.0219 -0.0778  0.1094
13174W        W29435  12.572  11.849  11.386  0.1341  0.2021  0.0101
13175W        W29436  14.828  10.867  10.618  0.0920  0.0347  0.1046
13176W        W29437   9.674  13.406  10.989 -0.0628 -0.0710  0.1328
13177W        W29438  10.236   3.388   3.922 -0.1818 -0.1597  0.0032
13178W        W29439   8.248   6.510  12.980  0.0452 -0.1792 -0.1993
13179W        W29440  18.746  14.451   2.801  0.1644 -0.0670 -0.0835
13180W        W29441   9.811   4.810   2.201 -0.0171 -0.0985  0.0675
13181W        W29442  18.089   0.524   0.907 -0.0924 -0.2516 -0.1229
13182W        W29443   3.420  10.350   0.566 -0.0976 -0.2480  0.2595
13183W        W29444   9.946  18.971   3.598  0.1481  0.0524 -0.1295
13184W        W29445   3.358   5.301   4.883 -0.1286  0.0940  0.1925
13185W        W29446   5.281  16.560   3.203  0.1171 -0.0907 -0.0155
13186W        W29447   7.476  11.478   4.964  0.0343  0.1223 -0.1154
13187W        W29448   6.259  16.415   3.316 -0.1285 -0.0848 -0.1246
13188W        W29449  12.560   6.567   1.043  0.2295 -0.3062 -0.2273
13189W        W29450  12.680  15.235   2.557  0.1636  0.0524 -0.1164
13190W        W29451   0.158   0.116   0.798  0.0125  0.1098 -0.1725
13191W        W29452   7.451   1.933   2.610  0.1698 -0.1701  0.3757
13192W        W29453  15.295  15.934  10.197 -0.0442  0.1269 -0.1433
13193W        W29454  14.948  13.179   2.875  0.4010 -0.0966  0.2825
13194W        W29455   1.996  17.314   1.121 -0.0368  0.1810 -0.0041
13195W        W29456  17.689   1.235   3.269  0.0612 -0.2615 -0.0507
13196W        W29457  15.498  11.900  11.506  0.0845  0.0282 -0.0066
13197W        W29458   5.156   9.056   5.118 -0.2519  0.4055 -0.0259
13198W        W29459  15.835   9.165   5.360  0.0331 -0.0700  0.3121
13199W        W29460   7.037   3.056  11.599 -0.0535  0.0771 -0.3746
13200W        W29461  11.334   0.480  12.673  0.0629 -0.0624  0.0654
13201W        W29462   7.572  17.983   5.064 -0.0868  0.1053 -0.1313
13202W        W29463  14.484  10.575  14.440  0.2063 -0.1020  0.1444
13203W        W29464   9.335   8.301  12.046  0.1284  0.2290 -0.1566
13204W        W29465   6.319  14.891   1.688  0.0817 -0.0947 -0.1479
13205W        W29466   6.212  18.866   3.199  0.1872  0.1547  0.0427
13206W        W29467  17.136  17.167  11.149  0.0100  0.0191  0.2929
13207W        W29468   6.533   4.314   3.404  0.1560 -0.2378  0.0333
13208W        W29469   5.258   2.125   3.243 -0.1942 -0.0501  0.0081
13209W        W29470  18.510   3.482  12.225 -0.2913 -0.0499 -0.2889
13210W        W29471  13.162   2.248   5.055  0.1235  0.1985 -0.3168
13211W        W29472   3.202   3.095   5.673  0.3801 -0.1730 -0.0761
13212W        W29473  12.376  13.495   3.011  0.0012 -0.0205  0.0777
13213W        W29474   2.946  18.732  12.585  0.3641  0.0466 -0.1954
13214W        W29475   6.110  11.015  14.307  0.1759 -0.0275 -0.0153
13215W        W29476  15.038  13.850  11.247 -0.2356  0.2809  0.2678
13216W        W29477   6.983   1.307  12.530  0.3297 -0.1148  0.1368
13217W        W29478  13.436  15.632   1.845 -0.0930  0.2638 -0.0792
13218W        W29479   5.338  13.700   0.680 -0.0486  0.1633  0.0821
13219W        W29480  19.250   0.496  11.847 -0.2374 -0.1542  0.1365
13220W        W29481  14.690   8.348  11.544  0.0368  0.0543  0.0888
13221W        W29482   4.498  16.463   4.947 -0.3751  0.1196  0.0566
13222W        W29483   1.822  16.347  11.303  0.1408 -0.1667 -0.2176
13223W        W29484   9.082   3.939  13.278 -0.3613 -0.2922 -0.1050
13224W        W29485  12.065   6.207   9.158 -0.2200  0.3024 -0.1729
13225W        W29486   5.251  11.085   1.189  0.2150 -0.4175  0.4849
13226W        W29487  18.153   9.753   0.553  0.0120 -0.1411 -0.3608
13227W        W29488  19.384   6.338  11.180 -0.0515  0.1135 -0.2679
13228W        W29489  15.312   9.675  10.368  0.0329 -0.3275 -0.2268
13229W        W29490  11.874  10.061  11.071  0.0572 -0.0267 -0.1093
13230W        W29491   0.562  18.477  13.889  0.1678 -0.2093  0.2370
13231W        W29492   2.662   5.934   3.578  0.1822  0.1482  0.2452
13232W        W29493   9.956   7.785   5.359 -0.0359  0.3580 -0.0603
13233W        W29494   8.600  19.178   3.797 -0.4423  0.3086  0.1300
13234W        W29495   3.002   1.568   0.489 -0.0786 -0.2151 -0.0374
13235W        W29496  13.759  10.096   1.899  0.3444  0.2887  0.2279
13236W        W29497  14.712  17.606  13.316 -0.1527  0.0668 -0.0088
13237W        W29498   6.006  17.215  12.957  0.0805  0.0199  0.0493
13238W        W29499  13.920  16.544   1.851 -0.0250 -0.0221  0.0138
13239W        W29500  13.876  18.934   2.457  0.1125  0.0926  0.1209
13240W        W29501   0.983  12.782  12.027 -0.1330  0.2053 -0.1625
13241W        W29502   7.812   2.894   1.735  0.0875 -0.2721  0.0863
13242W        W29503   1.162  11.568   4.859 -0.0701 -0.1254  0.0498
13243W        W29504   6.967  11.343  13.647  0.0487  0.0156 -0.2926
13244W        W29505  16.645  18.421   0.783  0.1931 -0.1114 -0.1864
13245W        W29506   9.710  18.364  12.243  0.0976 -0.3289 -0.1138
13246W        W29507   5.798   2.350   1.142  0.0405  0.1214 -0.0095
13247W        W29508   8.252  12.393   5.276 -0.2499 -0.1451  0.0683
13248W        W29509   8.390   7.216  14.410 -0.0239  0.3951 -0.0437
13249W        W29510  17.972  12.980   3.309  0.1077 -0.0787  0.1841
13250W        W29511   7.657   9.794   3.748  0.2362  0.2783  0.0162
13251W        W29512  10.949   7.541  11.011  0.0849 -0.2489  0.0238
13252W        W29513  11.078  15.130  14.838  0.0701  0.1769 -0.2245
13253W        W29514   8.100  14.761  11.123  0.1943 -0.1155  0.1280
13254W        W29515  10.975   1.236   4.792 -0.0963 -0.1039  0.1533
13255W        W29516  16.627   3.166   4.943  0.1074 -0.2519 -0.1575
13256W        W29517   0.390   2.765   0.649 -0.1003  0.2435  0.0232
13257W        W29518  18.319  14.747   3.066 -0.3799  0.0431  0.0026
13258W        W29519  10.546   5.802  11.097  0.4659 -0.3330  0.0585
13259W        W29520   7.859  12.263   1.894 -0.2756  0.1273  0.1128
13260W        W29521  11.714   0.746   2.595  0.0800  0.1120 -0.3733
13261W        W29522   7.958  18.240   3.141  0.3513 -0.0860  0.1372
13262W        W29523  14.553   3.545  14.665  0.0166 -0.0014 -0.3261
13263W        W29524   0.944  14.013   4.909  0.0183 -0.0330 -0.2040
13264W        W29525  18.387   1.662  11.699  0.0598  0.0171 -0.1488
13265W        W29526  14.539   7.789  12.313 -0.2346 -0.0912 -0.2803
13266W        W29527   1.272   6.768  11.811 -0.2155 -0.1385 -0.1681
13267W        W29528  11.794   4.327  11.605 -0.0603 -0.2162  0.1757
13268W        W29529   4.473  11.698   0.460  0.1864 -0.0806  0.3860
13269W        W29530  16.236   4.321   0.221  0.1546 -0.0663 -0.3070
13270W        W29531   7.471   6.691   1.054  0.0800  0.3597 -0.1052
13271W        W29532  13.455   4.611  12.791  0.1838 -0.2631 -0.1930
13272W        W29533   1.177   3.782  12.722 -0.0062  0.3686  0.1734
13273W        W29534   1.678  17.390  11.393 -0.0841  0.0026 -0.4075
13274W        W29535  16.795   1.381   1.892 -0.3348  0.3598  0.5494
13275W        W29536   7.899   2.162   2.505 -0.3541 -0.0501 -0.1031
13276W        W29537  16.769   4.807   1.788 -0.0708  0.1761  0.0106
13277W        W29538  12.137  16.684   1.278  0.2176  0.2163  0.2225
13278W        W29539  10.320  16.324   0.658 -0.2202  0.2585  0.1944
13279W        W29540  13.356   2.655  14.001 -0.2068  0.5953  0.0002
13280W        W29541   5.784  16.070   3.181 -0.2467  0.2918 -0.3477
13281W        W29542   8.426   4.686   0.180 -0.3335 -0.0292  0.1276
13282W        W29543   5.211   1.041   4.658  0.3929 -0.0206 -0.0324
13283W        W29544   2.612  18.714  11.085  0.0801  0.2640 -0.0042
13284W        W29545  16.640  16.775  12.862  0.2489  0.2386 -0.1874
13285W        W29546  12.859  14.594   1.276 -0.1834 -0.1786 -0.4056
13286W        W29547   1.248   4.696  14.622 -0.0611  0.2532 -0.0350
13287W        W29548  15.149  11.684  11.772  0.1701 -0.4346 -0.1408
13288W        W29549  17.365  11.175  10.526 -0.1294  0.3253  0.0561
13289W        W29550  13.421  16.608  12.464  0.0994  0.2729  0.0735
13290W        W29551   4.326  14.408   3.678  0.1049 -0.0112  0.2047
13291W        W29552   3.219   4.789  14.500  0.4205  0.3270  0.1661
13292W        W29553   2.273   1.509  11.152  0.1746  0.0728 -0.2351
13293W        W29554   3.104  11.221  13.009  0.0683  0.1497 -0.0501
13294W        W29555   7.433  13.925   0.119  0.1198  0.2601 -0.0291
13295W        W29556  12.058  10.721  14.447  0.1605  0.1604  0.1882
13296W        W29557   0.919   9.101   2.138 -0.0336 -0.1527  0.0184
13297W        W29558   3.229  13.650   3.441 -0.1727  0.3894 -0.0833
13298W        W29559  15.910   3.855   1.837 -0.2237 -0.0136 -0.0567
13299W        W29560  10.711   1.928   0.806  0.0750  0.0523  0.0142
13300W        W29561  18.770  11.703  12.242  0.2225 -0.1453  0.0691
13301W        W29562   3.289   2.934  11.509 -0.0502 -0.1196 -0.0349
13302W        W29563  10.726   8.794   4.538 -0.1352 -0.1017  0.1983
13303W        W29564   4.610  12.511  14.189  0.1373  0.0210 -0.2079
13304W        W29565  15.812   3.788   1.306  0.2562  0.1120 -0.2371
13305W        W29566   7.945   9.276  12.772  0.0052  0.1453 -0.1989
13306W        W29567   3.799   3.826  14.618  0.1502  0.3683 -0.0380
13307W        W29568  16.539  17.382   4.495 -0.0116  0.1302 -0.0962
13308W        W29569  11.531   3.059  14.643 -0.1086  0.0652  0.1318
13309W        W29570  10.451   7.863   4.208  0.1629  0.2554 -0.3234
13310W        W29571   8.567   1.398  11.789  0.0170 -0.0147  0.0772
13311W        W29572   1.736   5.929   6.611 -0.1480 -0.1945  0.1580
13312W        W29573  13.532   1.140   3.143  0.1835 -0.0954  0.1615
13313W        W29574  12.424   9.541  14.132 -0.1365  0.0602 -0.0511
13314W        W29575   1.624  19.129   2.553  0.0107 -0.1559  0.1366
13315W        W29576   9.710  18.673   4.404  0.1026  0.0947  0.1085
13316W        W29577  11.849  14.924   2.821 -0.0583 -0.1133  0.0837
13317W        W29578  13.239  13.051   2.734 -0.2319  0.1319 -0.3414
13318W        W29579  16.695  12.438  13.591  0.0490  0.0337  0.2301
13319W        W29580  15.548   3.073   3.852 -0.4583 -0.1961 -0.2201
13320W        W29581   4.533   0.182  10.788 -0.5032  0.0375 -0.3177
13321W        W29582   1.786   3.837   4.518 -0.2435  0.3088  0.0481
13322W        W29583  15.383  17.243  14.583  0.0739  0.0751 -0.2096
13323W        W29584  15.103  12.153  11.515 -0.1365  0.0163 -0.0394
13324W        W29585   9.198   7.167  13.915  0.0953  0.1757 -0.0738
13325W        W29586   5.726   2.885   2.874 -0.1582  0.0232 -0.2904
13326W        W29587   5.580  15.759  14.604 -0.3538  0.0217  0.2138
13327W        W29588  13.999  19.337  12.707  0.1521  0.0901 -0.0187
13328W        W29589  12.894  14.873   2.894  0.4413  0.2017 -0.2169
13329W        W29590  17.402   9.322  12.561 -0.2028 -0.0135  0.0319
13330W        W29591   5.563  15.041   6.041 -0.2806 -0.3206  0.1370
13331W        W29592  15.782   3.949   2.386 -0.1700 -0.1497 -0.0191
13332W        W29593   8.076   0.833  12.105 -0.2888  0.1303  0.2656
13333W        W29594  16.662   6.831   4.458 -0.1601 -0.3538 -0.1242
13334W        W29595   5.078   8.525  14.053 -0.0278 -0.2313  0.1172
13335W        W29596  16.690   3.088   0.847 -0.2905 -0.0565 -0.0555
13336W        W29597  17.612  18.037   2.546  0.0591 -0.0036 -0.0318
13337W        W29598  14.937  18.925   4.701 -0.2480  0.2285 -0.0554
13338W        W29599   7.914   5.916  13.794 -0.1696 -0.0449  0.1119
13339W        W29600   3.491   9.452   0.075  0.0863 -0.1801  0.1428
13340W        W29601  18.959  12.121  12.038  0.0082 -0.2224 -0.1210
13341W        W29602   4.634   8.603  12.366 -0.1908  0.1602  0.2090
13342W        W29603   6.369   0.321  11.935 -0.0252 -0.2328  0.1700
13343W        W29604   4.742   2.179  11.244 -0.2057 -0.3858 -0.0718
13344W        W29605   0.691  17.942   4.558  0.4082  0.2244  0.1011
13345W        W29606  16.289  12.439  10.848 -0.3564  0.2664 -0.2874
13346W        W29607  13.040   2.166   3.141 -0.1732 -0.0094 -0.3372
13347W        W29608  15.474   0.103   0.033 -0.2679 -0.1422  0.0532
13348W        W29609  13.879   1.659   1.886  0.1170 -0.0381  0.2019
13349W        W29610   4.226  15.380  13.057  0.0984  0.2319 -0.2972
13350W        W29611   8.118   5.083   1.071  0.3786  0.2376 -0.0252
13351W        W29612  10.663  14.397  10.881  0.0783 -0.0873 -0.2561
13352W        W29613  16.753  15.326   1.877  0.0038  0.3393 -0.3510
13353W        W29614  10.201   4.396   1.618 -0.3031 -0.0212 -0.1354
13354W        W29615  18.286  12.106   2.488 -0.0048 -0.1724 -0.0260
13355W        W29616  15.305  12.209   2.299 -0.0767 -0.2672 -0.1521
13356W        W29617   9.102  15.345  14.038 -0.1327  0.0296 -0.0049
13357W        W29618  18.820   5.848   4.047 -0.1796  0.0928  0.1981
13358W        W29619   5.404   4.295   0.532  0.0080 -0.3268 -0.0496
13359W        W29620  12.320   0.834   1.160 -0.0535  0.1840 -0.0743
13360W        W29621  12.960   2.994   4.145  0.3281 -0.1662  0.1888
13361W        W29622  11.543   3.874   3.356 -0.1351  0.4006 -0.3805
13362W        W29623   9.586   9.141   5.150  0.4056 -0.1750 -0.1714
13363W        W29624  18.591   1.635   0.200  0.0169  0.1267 -0.3691
13364W        W29625  14.223  14.835   1.575 -0.2279  0.1300 -0.2275
13365W        W29626  15.697  15.385   5.007 -0.1178 -0.1207 -0.1230
13366W        W29627   5.376   7.644   2.518 -0.0130 -0.0249 -0.0579
13367W        W29628   7.138   1.763   1.119 -0.0610 -0.0035 -0.1440
13368W        W29629   4.288  11.800  14.450  0.2092 -0.1710  0.0406
13369W        W29630  15.764   3.359  14.697 -0.1588  0.1528  0.0807
13370W        W29631   4.449   7.839   3.260  0.0247 -0.0757  0.2482
13371W        W29632  13.350   2.977  12.163  0.2192  0.1678  0.0193
13372W        W29633   5.011  14.557  12.180  0.0098  0.1540 -0.1039
13373W        W29634  12.302   8.311   3.589 -0.1916 -0.1314 -0.2077
13374W        W29635   6.030  15.373  14.464 -0.3158 -0.1826  0.1483
13375W        W29636  15.422  16.957  13.563 -0.0973 -0.1310 -0.2304
13376W        W29637  10.470   4.552   4.560 -0.1948 -0.0185  0.1341
13377W        W29638  18.959   8.893   4.270  0.0026 -0.1875  0.3062
13378W        W29639   2.318   3.321  13.707 -0.2701 -0.3078  0.0987
13379W        W29640  17.867  12.093  14.621  0.1733 -0.0859  0.0671
13380W        W29641  16.095  16.750   0.092  0.0080 -0.0542  0.1219
13381W        W29642   4.740  14.268   3.044 -0.1865 -0.0843  0.1280
13382W        W29643   4.956  10.985  13.676  0.0867 -0.0956 -0.3693
13383W        W29644  16.295  15.590   1.802 -0.3950  0.2265  0.0829
13384W        W29645   1.107  11.213  13.040 -0.0523  0.3468 -0.0299
13385W        W29646   0.090   7.968  11.081  0.1101  0.3131 -0.1687
13386W        W29647  16.929  11.772   0.087  0.1469  0.1953 -0.2352
13387W        W29648   2.657   5.572   3.277  0.0207  0.3027  0.2945
13388W        W29649  15.669   5.746   4.748  0.0103  0.1239  0.0706
13389W        W29650  19.243  14.298   2.905  0.0775  0.0090  0.1501
13390W        W29651   7.796  11.955   4.395 -0.2886 -0.1995  0.0882
13391W        W29652   0.540  11.617   1.906  0.0017 -0.1225 -0.3492
13392W        W29653   3.621   8.859   2.775  0.0867  0.0604  0.0522
13393W        W29654  14.962   5.728   3.497  0.0835  0.1196  0.0729
13394W        W29655  10.395  16.839   0.052 -0.1072 -0.1352  0.2857
13395W        W29656  14.910  16.513   3.944 -0.0235 -0.1177  0.0460
13396W        W29657  16.806  18.605   1.340 -0.0593  0.0895  0.2162
13397W        W29658  13.166   2.365  14.411  0.4152  0.0028 -0.0318
13398W        W29659   7.893  18.773   0.240 -0.1812  0.0518  0.1334
13399W        W29660  10.235  14.629  12.710 -0.0963 -0.1215 -0.1323
13400W        W29661  12.408   0.095   2.907 -0.1153  0.0774 -0.1611
13401W        W29662   9.965   2.207  10.060  0.2368  0.1848  0.4833
13402W        W29663   8.134  12.902  11.675  0.1314 -0.1178  0.1797
13403W        W29664   4.590   4.096  11.595  0.0074 -0.0862  0.0306
13404W        W29665   2.726  16.884  11.168  0.1158 -0.2923  0.0170
13405W        W29666  10.071  18.339  11.687  0.2480  0.1776  0.0440
13406W        W29667  11.126   9.392   3.305  0.1694  0.2670 -0.1672
13407W        W29668   3.618  11.397  14.490 -0.0565 -0.0199  0.0680
13408W        W29669   1.811   3.348  13.549 -0.1507 -0.2845  0.0091
13409W        W29670  13.683  11.289  10.934 -0.4657  0.1505  0.1781
13410W        W29671   5.859  11.297   3.376  0.3368  0.0089 -0.0600
13411W        W29672  10.757  13.549  13.908  0.0542 -0.1035  0.0812
13412W        W29673   6.815  18.497  10.813 -0.2151 -0.2323  0.0731
13413W        W29674  14.290  11.045  12.874  0.0372  0.1677  0.2533
13414W        W29675  18.698  16.774  14.527  0.0452 -0.2514 -0.4086
13415W        W29676  10.576  13.049  14.191 -0.0086  0.1475  0.1791
13416W        W29677  17.550   3.418   2.314  0.2850  0.2058 -0.2057
13417W        W29678   8.139  16.299  14.029  0.0063 -0.1392 -0.1719
13418W        W29679  10.602   5.324  11.112  0.0567  0.1657  0.1323
13419W        W29680   3.140   4.829  13.126  0.0060 -0.0927  0.1621
13420W        W29681  14.065  15.501   2.360  0.0075  0.1128  0.1631
13421W        W29682  16.222  11.149   1.814 -0.0173 -0.2150 -0.1528
13422W        W29683   1.287  13.375   2.682 -0.0330 -0.1752  0.1687
13423W        W29684   1.231  17.437   1.092 -0.0816 -0.0517 -0.1878
13424W        W29685  13.749  13.954  11.722  0.2687 -0.1126 -0.1746
13425W        W29686  11.470  11.786  11.382 -0.1665  0.1503 -0.0784
13426W        W29687  13.875  11.507  11.967  0.1891  0.1505 -0.2298
13427W        W29688  17.894  13.394  10.913 -0.0966  0.1343  0.2027
13428W        W29689  11.043  12.038  10.438 -0.1972  0.1229 -0.1107
13429W        W29690   7.834  11.849   0.713  0.4253  0.2404  0.2464
13430W        W29691   5.396  14.731   1.863  0.0096 -0.0096 -0.1886
13431W        W29692  18.189  10.761  12.391 -0.0301  0.3224  0.0331
13432W        W29693  18.850   5.620  14.463  0.4277 -0.0178  0.1332
13433W        W29694  13.252   7.547  11.632  0.0287  0.2922  0.3004
13434W        W29695  18.660  16.989   5.186  0.2448 -0.1218  0.1935
13435W        W29696   7.504   7.493  14.326  0.2434  0.0085  0.1751
13436W        W29697  16.077  14.342  14.651  0.1370 -0.1013  0.0338
13437W        W29698   3.343   1.985   5.931  0.1968 -0.3571  0.3651
13438W        W29699  10.721   6.786  12.857 -0.0730  0.0925  0.2158
13439W        W29700  14.926   4.370   0.564  0.3333 -0.0932 -0.0800
13440W        W29701  19.081  19.143   4.203  0.4604  0.2339 -0.0423
13441W        W29702   8.152   7.374  10.574 -0.3800  0.1411 -0.1752
13442W        W29703   9.341  12.382   1.068 -0.0874  0.1961  0.1489
13443W        W29704  15.156   8.867  11.722  0.2946  0.5888 -0.0322
13444W        W29705  17.472   4.781   1.742  0.0320 -0.0901 -0.0718
13445W        W29706   2.428   4.043  11.588 -0.0588  0.1996 -0.1179
13446W        W29707   8.001  15.508   0.476  0.2211 -0.0257 -0.0853
13447W        W29708  18.848   6.428   2.650 -0.2160 -0.0982 -0.5011
13448W        W29709   2.198  15.762   4.632  0.2275 -0.0333 -0.1667
13449W        W29710   8.565  19.163   2.448  0.0583 -0.0314  0.1586
13450W        W29711  13.360   4.478   3.254 -0.1423 -0.0205 -0.1701
13451W        W29712   1.096   0.957  13.190  0.0013 -0.3739  0.0189
13452W        W29713  16.465  11.971   9.984 -0.1366  0.0671 -0.2528
13453W        W29714   2.181   4.634   5.661 -0.0232 -0.0321  0.0550
13454W        W29715   6.594   4.757   5.900  0.2554  0.1057  0.0027
13455W        W29716   3.042   2.923  10.327 -0.0214  0.1246 -0.0186
13456W        W29717   0.151   0.001   5.116 -0.3241  0.4122 -0.0081
13457W        W29718   6.693   5.476   1.009 -0.6004 -0.2293 -0.0187
13458W        W29719  13.106   6.843   0.343  0.2496  0.1402  0.0511
13459W        W29720   2.558  12.804   3.213  0.1149  0.0376 -0.2253
13460W        W29721  14.384  13.255  11.716 -0.1974  0.0021 -0.1844
13461W        W29722  16.861   6.386   4.423 -0.1502 -0.0256  0.0416
13462W        W29723  13.722   8.479   1.213 -0.1865 -0.1129  0.0708
13463W        W29724  13.395  17.093  11.600 -0.1734  0.0773  0.1458
13464W        W29725   6.674   8.425   2.840  0.4169  0.0024 -0.0513
13465W        W29726  11.673  11.293   4.960 -0.0502  0.2212 -0.3245
13466W        W29727  18.934   3.771   2.436 -0.2998  0.0446 -0.1581
13467W        W29728  11.494  13.204   1.112 -0.2671 -0.2288  0.0207
13468W        W29729   9.588  10.386   2.897 -0.4944  0.1788 -0.0046
13469W        W29730  16.402  17.926   2.357  0.1217 -0.0472 -0.4170
13470W        W29731   7.560   9.871  12.230  0.0233 -0.0589  0.2515
13471W        W29732  13.839   6.516   2.377 -0.1318  0.1883 -0.1181
13472W        W29733  18.610  12.544   4.387 -0.1491 -0.1289  0.1865
13473W        W29734   3.985   1.321   2.058 -0.1754  0.2528 -0.0270
13474W        W29735   3.778  10.446  10.295 -0.1117 -0.0401 -0.1691
13475W        W29736  15.154  14.616   0.209 -0.2447  0.2829 -0.1595
13476W        W29737   9.265  13.169  10.162 -0.0072  0.0595  0.2085
13477W        W29738  17.390  11.370   4.636  0.1597  0.0493  0.1738
13478W        W29739  10.074   8.815   2.844  0.0871  0.0740 -0.0413
13479W        W29740  15.501  10.198   3.234 -0.0726  0.0826  0.0175
13480W        W29741   3.918  18.962  14.273  0.2484  0.1955 -0.1141
13481W        W29742   0.270   5.932  11.425  0.0295  0.0558  0.0957
13482W        W29743   2.339  10.654   0.566 -0.2013 -0.4864  0.0726
13483W        W29744   9.228   6.100   3.311  0.1266  0.0357 -0.3643
13484W        W29745  18.504  14.359  10.679  0.0059 -0.2200 -0.0847
13485W        W29746   0.765  12.758   3.952  0.1158 -0.0660 -0.1772
13486W        W29747  11.954   6.625  10.386  0.1847  0.0686  0.0261
13487W        W29748   5.447   2.891   0.576  0.1718 -0.2258 -0.0270
13488W        W29749   1.965  11.621  13.376 -0.0690  0.2966 -0.3874
13489W        W29750  13.852  18.380   0.836 -0.3396  0.2674 -0.0017
13490W        W29751   8.943  10.769   4.366  0.1626 -0.2109 -0.0049
13491W        W29752  17.328   3.249   0.963  0.0572  0.3144  0.2196
13492W        W29753  13.797  11.090   3.759  0.2920  0.2294 -0.2259
13493W        W29754  12.925   4.783   4.814 -0.0671 -0.0651  0.0010
13494W        W29755   7.140   7.979   3.524  0.1926  0.0368  0.3790
13495W        W29756   0.467   7.862   4.776 -0.2308 -0.0453 -0.0538
13496W        W29757   4.100   9.894  14.760 -0.0608  0.1065 -0.2191
13497W        W29758  12.904  19.009   2.404 -0.0648  0.0525 -0.1180
13498W        W29759  19.133  13.177   4.939  0.2458  0.1955  0.0995
13499W        W29760  12.299   9.553  13.531  0.0375  0.1877  0.1092
13500W        W29761   9.640  13.127   3.483  0.2260  0.0743  0.1226
13501W        W29762   0.517  10.171   2.153  0.1962 -0.1863 -0.0559
13502W        W29763  17.596   6.823   1.901 -0.0617  0.0075 -0.0752
13503W        W29764   5.542  11.125   4.729  0.1256  0.0152 -0.3040
13504W        W29765   6.591   3.743   2.950  0.0620  0.0486  0.0275
13505W        W29766   6.642  10.294   2.785 -0.0966  0.0568 -0.4411
13506W        W29767   6.942   6.732  12.248 -0.0259  0.0357  0.1842
13507W        W29768   1.034   1.941  13.439 -0.0656 -0.0044 -0.1583
13508W        W29769   0.273   1.566   5.292  0.0385 -0.3174 -0.1407
13509W        W29770   1.104   6.341  11.761 -0.0377  0.2300  0.1531
13510W        W29771  10.456   5.820   2.842 -0.2907  0.0047 -0.1284
13511W        W29772   2.976   6.285   3.849 -0.1579  0.2836  0.2216
13512W        W29773   9.405   1.981   3.588  0.1207 -0.0890 -0.0899
13513W        W29774   1.495  11.759  12.322  0.2801 -0.0345  0.1138
13514W        W29775   8.917  12.764  11.182  0.0367 -0.0041  0.1631
13515W        W29776   3.611  17.889  11.814  0.1882  0.0644 -0.1242
13516W        W29777   9.364   1.148  13.542 -0.1164 -0.2388  0.0140
13517W        W29778   8.475   6.737  13.356  0.0831 -0.1600  0.0489
13518W        W29779   1.494   7.308   2.149 -0.0459  0.2922 -0.1761
13519W        W29780  12.860   8.635  12.060 -0.1634  0.0997  0.1142
13520W        W29781  18.804   6.949   0.963  0.0018  0.0340 -0.3956
13521W        W29782  18.432   9.615  13.506 -0.0069  0.3292 -0.0258
13522W        W29783  17.037  18.468  10.381 -0.0488  0.1473  0.2295
13523W        W29784  15.769  17.964  11.799  0.1241  0.1877  0.2343
13524W        W29785   0.128   5.167   4.126  0.0053 -0.4868  0.2725
13525W        W29786   0.846  15.158   0.233  0.3088  0.1674 -0.0928
13526W        W29787   9.694  12.761   3.891 -0.0410 -0.3179 -0.1907
13527W        W29788  14.733  11.186   4.133  0.2377  0.1064  0.2754
13528W        W29789   0.656  18.612   2.372  0.4242 -0.0290  0.2765
13529W        W29790  15.602  17.847  12.722 -0.1722  0.0982  0.2198
13530W        W29791  18.060  11.351   0.296  0.3162  0.4529  0.0186
13531W        W29792   1.871   6.193   4.878  0.3610 -0.2675 -0.4453
13532W        W29793  18.977   0.803  11.403  0.0777 -0.2547  0.0552
13533W        W29794  13.623   0.764   2.702 -0.0577 -0.0730  0.4444
13534W        W29795  11.848  15.562  13.364  0.1068 -0.1382 -0.0086
13535W        W29796   1.404   7.567   4.855 -0.0064  0.0561  0.0239
13536W        W29797   2.268   5.071   3.636 -0.0998 -0.1344  0.0557
13537W        W29798   2.655   6.216  14.564  0.1217  0.1730  0.0625
13538W        W29799  10.190   1.090  13.162  0.4381  0.0399 -0.1195
13539W        W29800   3.631   0.115   6.091  0.5625 -0.2796  0.0056
13540W        W29801  13.965   8.048   2.419 -0.0036 -0.0863 -0.0025
13541W        W29802  18.959   3.927  11.792  0.0687  0.2465 -0.2522
13542W        W29803  14.541   2.097   2.194 -0.0308 -0.2485 -0.0313
13543W        W29804  11.243  16.775  12.903 -0.0187 -0.3066 -0.2976
13544W        W29805  17.793   9.660   3.123 -0.4292 -0.1823  0.0487
13545W        W29806  15.425  15.165   4.137  0.1486  0.2161 -0.0700
13546W        W29807  13.812   4.978   1.460 -0.0178 -0.2468 -0.2404
13547W        W29808  15.366   4.384  13.524 -0.3261  0.4041 -0.1346
13548W        W29809  15.992   9.079   4.590 -0.0839  0.0937 -0.2146
13549W        W29810  10.903  18.143   2.604 -0.2214 -0.0721 -0.2733
13550W        W29811   8.634  14.850  14.708  0.0415 -0.0674 -0.1697
13551W        W29812   2.174  10.814  10.417 -0.0820 -0.2563  0.0080
13552W        W29813  15.309  19.324  13.379 -0.1312  0.1644 -0.0851
13553W        W29814   3.261   3.532  11.533 -0.2898 -0.1578 -0.1968
13554W        W29815  16.494   7.616   2.892 -0.0496 -0.4599  0.0981
13555W        W29816  16.762  10.653  12.425  0.2470 -0.1454  0.2010
13556W        W29817  16.589  10.955  10.696  0.2565 -0.3890  0.0736
13557W        W29818  12.257   1.987  11.431  0.0920  0.0454 -0.0854
13558W        W29819  17.831  12.819  13.040 -0.1302  0.0057 -0.0054
13559W        W29820   4.191   8.828  13.763 -0.1864  0.1306  0.0665
13560W        W29821   7.763   1.418  13.060 -0.0002 -0.3510 -0.0614
13561W        W29822   5.127  10.276  12.492  0.1475  0.2946  0.0264
13562W        W29823  16.426  11.655   3.215  0.2201  0.1158  0.3684
13563W        W29824  10.107   8.434  13.857 -0.0980 -0.4006 -0.2819
13564W        W29825  15.690  17.366   2.981 -0.0580 -0.0539 -0.4371
13565W        W29826  11.629   1.208  11.082  0.2993 -0.0313  0.0450
13566W        W29827   8.891   5.273   3.180 -0.0870 -0.3968  0.4725
13567W        W29828  18.484   9.876   1.065 -0.2545  0.0918  0.1029
13568W        W29829  14.781  13.607   0.636 -0.0715  0.0699  0.3484
13569W        W29830  15.888  15.417   4.050  0.0900 -0.3470 -0.0215
13570W        W29831   0.637  14.971  10.830 -0.3000 -0.0745  0.0217
13571W        W29832   4.236   2.518  13.054 -0.0984  0.0076 -0.3647
13572W        W29833  13.381   8.193  14.468  0.0853 -0.0521  0.3322
13573W        W29834  14.692   4.630   1.245 -0.2097 -0.0681  0.0207
13574W        W29835   9.529   5.813  10.939 -0.2190 -0.1646 -0.0653
13575W        W29836  13.916   4.019  10.186 -0.0481  0.1404 -0.1884
13576W        W29837   6.646   2.565   1.220 -0.0083  0.1073  0.0865
13577W        W29838   7.163   1.542   2.730 -0.1076  0.1233 -0.1634
13578W        W29839  11.482  14.396   1.736 -0.1691  0.1058 -0.0029
13579W        W29840  11.708  19.372   3.917  0.3888 -0.0996 -0.2645
13580W        W29841  11.640  13.620  14.293  0.2403  0.3089  0.0626
13581W        W29842   2.165   6.308   1.808 -0.3165  0.4377 -0.1317
13582W        W29843  13.527   7.015   0.061  0.0953 -0.2437  0.4437
13583W        W29844  18.257  17.632   0.761 -0.0776  0.1544  0.0023
13584W        W29845   0.408  19.144  11.531  0.1704  0.1215 -0.0209
13585W        W29846   4.031   4.219  12.389  0.2582 -0.0308 -0.1993
13586W        W29847  15.108   2.883   2.769  0.0663 -0.0208  0.0987
13587W        W29848   0.080  11.068  11.616  0.2296 -0.0527  0.0235
13588W        W29849  15.660  11.232   4.528 -0.2458 -0.1680 -0.0537
13589W        W29850  16.698   6.932   1.847  0.0341  0.4318 -0.1216
13590W        W29851  13.537   7.321  10.675 -0.0829 -0.2913 -0.2716
13591W        W29852  13.983   3.136   4.761  0.1553 -0.3172  0.1245
13592W        W29853  16.427  10.507   0.494 -0.1238  0.0640 -0.0922
13593W        W29854   3.599   0.823  11.104 -0.1261  0.1942  0.0011
13594W        W29855  17.211  16.903  12.622  0.0628 -0.0825 -0.0071
13595W        W29856   7.697   4.270   3.108  0.2203 -0.0380  0.2029
13596W        W29857   1.809  17.523   5.414 -0.1050 -0.2052  0.2593
13597W        W29858   4.768  14.018  12.086  0.3297 -0.0681  0.3333
13598W        W29859  17.466   6.282   2.710  0.1208 -0.1245  0.1748
13599W        W29860   1.871   7.759  14.653  0.0247  0.2626  0.0446
13600W        W29861   3.766  13.970  14.324 -0.3497  0.0515  0.1818
13601W        W29862   3.006  16.179  11.628  0.0099 -0.0829 -0.2608
13602W        W29863   4.460   7.363   3.509  0.0374  0.3677 -0.0024
13603W        W29864  14.741   2.501   1.021  0.3947 -0.0417 -0.1631
13604W        W29865   2.492   3.853   2.710 -0.0251  0.1306  0.0180
13605W        W29866  15.498   9.973  11.368 -0.1128  0.0095  0.1871
13606W        W29867   7.747   3.428   1.581 -0.1765 -0.1134  0.3200
13607W        W29868   5.371   2.973   4.639  0.1954 -0.0966 -0.0990
13608W        W29869  11.449  16.996   4.618  0.3544 -0.1630  0.0384
13609W        W29870   2.777   5.493  13.319 -0.0493 -0.0707  0.1195
13610W        W29871  13.824   0.680   4.031  0.3472 -0.2072  0.0045
13611W        W29872  13.628  10.816  10.792 -0.0748 -0.0825 -0.0282
13612W        W29873  14.592  13.465   3.655 -0.0675 -0.0346  0.3530
13613W        W29874  18.734  16.652   4.809  0.0727 -0.0598  0.2502
13614W        W29875   9.974   5.682   0.109  0.1689 -0.1557 -0.0061
13615W        W29876  19.071   5.238   4.283 -0.1820 -0.0077 -0.2828
13616W        W29877   6.107   7.721  12.457 -0.2317  0.1310  0.2710
13617W        W29878  16.847   3.482   2.030 -0.3797  0.2945  0.3829
13618W        W29879  15.590   5.671   4.033 -0.0794 -0.0850 -0.1032
13619W        W29880  17.907   6.272  12.491  0.3304  0.1831 -0.0481
13620W        W29881   4.684   1.651   3.047  0.1801  0.0975 -0.1169
13621W        W29882  13.765   0.294   2.876  0.2239 -0.1405  0.2691
13622W        W29883  13.274  12.976  14.154 -0.3777  0.1932 -0.2577
13623W        W29884  11.868   4.781  11.149  0.1437 -0.4897 -0.3358
13624W        W29885  18.987   9.039  13.146 -0.1254  0.0879 -0.1639
13625W        W29886   6.446  15.890   0.128 -0.0085 -0.2728  0.0519
13626W        W29887   9.818   8.706   2.022 -0.0895 -0.0098 -0.0408
13627W        W29888  13.714   1.880   1.443 -0.0297 -0.1214 -0.1163
13628W        W29889  12.317   8.260   4.400 -0.0247 -0.1714  0.1073
13629W        W29890   3.062  16.766  10.814  0.0462 -0.2121 -0.0553
13630W        W29891   2.316  15.736   0.008 -0.1210  0.1347 -0.0828
13631W        W29892  11.822  10.514  12.591 -0.3324  0.1928 -0.1867
13632W        W29893  15.943   1.419   2.835 -0.0430  0.3087 -0.0003
13633W        W29894   7.634   3.628   2.573 -0.0194 -0.2093  0.1124
13634W        W29895   9.958  10.700   4.148 -0.4778  0.1024  0.3431
13635W        W29896  17.199  12.720   1.717  0.4819 -0.1176  0.0433
13636W        W29897   3.013  13.145  14.255 -0.0954  0.2752  0.1773
13637W        W29898   7.847  14.501   2.687  0.1908  0.1881 -0.4818
13638W        W29899   3.173   9.019  14.027  0.1595 -0.1466 -0.0318
13639W        W29900  11.592  18.530  10.201  0.1843 -0.1469 -0.1287
13640W        W29901   3.526  14.598  11.339 -0.0317 -0.0705  0.0385
13641W        W29902   7.938   6.470  13.353 -0.1506 -0.1447  0.0944
13642W        W29903   8.942   5.432   2.657 -0.2154 -0.2614 -0.2367
13643W        W29904   4.343   4.275  11.152 -0.4660  0.2032 -0.0293
13644W        W29905   7.902  12.062   3.313  0.3983  0.0247  0.2577
13645W        W29906   5.287  19.291   4.361  0.1075  0.0701  0.2166
13646W        W29907   8.102   8.359  13.972 -0.1035 -0.0290  0.2937
13647W        W29908   3.987   2.395   2.022  0.0765  0.0287  0.0761
13648W        W29909   7.209   8.736  14.767  0.0977  0.0693 -0.1724
13649W        W29910   4.779  10.599  13.416 -0.0752 -0.0777 -0.1635
13650W        W29911  12.263  16.115   1.051 -0.1757  0.2237 -0.3019
13651W        W29912  18.843   1.492  13.595  0.0481  0.2088  0.2274
13652W        W29913  14.784   2.480   2.012 -0.8218  0.1855  0.1171
13653W        W29914  15.941  10.220   1.629  0.1254  0.1914 -0.1645
13654W        W29915  15.720  11.250  14.013  0.1177 -0.2312 -0.1872
13655W        W29916   6.735  10.170  14.765  0.0051  0.0721 -0.2177
13656W        W29917   6.331   4.242  14.310 -0.1804  0.0075  0.3109
13657W        W29918  11.430  17.715   9.160 -0.0626  0.1287  0.1608
13658W        W29919   0.139   2.682   4.656  0.1461 -0.0994  0.1078
13659W        W29920  14.112  18.029  13.285 -0.3071 -0.1072  0.4672
13660W        W29921  14.762   5.703  14.085  0.3036  0.1504  0.1986
13661W        W29922   5.219  11.155   9.584 -0.0732 -0.2215  0.2318
13662W        W29923  10.736   0.348   2.883  0.1326  0.0113  0.1283
13663W        W29924   2.813   9.352  11.447  0.1199 -0.0088 -0.1195
13664W        W29925   4.484   5.346   2.897 -0.4964 -0.4107  0.0601
13665W        W29926   1.954   7.221   1.845  0.0709  0.1193 -0.2577
13666W        W29927  15.465  14.325   1.945  0.0708 -0.2308  0.0157
13667W        W29928  13.941  12.102   2.419  0.2483 -0.1307  0.2725
13668W        W29929  11.242   5.964   1.454  0.0357  0.3262 -0.0832
13669W        W29930   6.265   8.686   3.741  0.0266  0.2792  0.0945
13670W        W29931  19.296   8.272   2.500  0.1423 -0.0327  0.0038
13671W        W29932   9.626   7.555   0.678  0.1570 -0.2627 -0.6132
13672W        W29933  15.874   3.518  13.275 -0.0523  0.4292 -0.3076
13673W        W29934   0.823   2.026  12.098  0.0889  0.1258 -0.3349
13674W        W29935   7.704   9.304  10.380 -0.0388 -0.0406 -0.2940
13675W        W29936   5.187   9.233   2.370  0.1007  0.1288  0.2393
13676W        W29937  14.608  10.304   1.239  0.0755 -0.2532  0.4721
13677W        W29938   7.164  15.783   1.197  0.0841  0.1109  0.2360
13678W        W29939  10.751  15.802   2.564 -0.0255 -0.0389  0.0686
13679W        W29940   2.094  10.374  13.116  0.0953 -0.0200 -0.2804
13680W        W29941   6.615  13.338  14.127 -0.1503 -0.3177 -0.0400
13681W        W29942   4.270   3.728   2.305  0.1380  0.2372  0.1718
13682W        W29943  15.500  10.204   0.501 -0.2579  0.0947 -0.1983
13683W        W29944  10.103   6.133   3.169  0.1759 -0.0704 -0.1197
13684W        W29945  14.928  13.661   1.309  0.1196  0.0758  0.1064
13685W        W29946   2.622  10.305  14.573 -0.1612  0.2101 -0.0092
13686W        W29947   5.208   8.290   4.020 -0.1144 -0.0648 -0.1587
13687W        W29948  10.454  17.432   4.145 -0.3204  0.0065 -0.0408
13688W        W29949   2.070  17.470   6.172 -0.0024 -0.3661  0.1769
13689W        W29950  18.681  15.425  13.605 -0.4205  0.1034  0.0701
13690W        W29951  11.455   1.891   1.154  0.0004 -0.2768 -0.0233
13691W        W29952   1.308   5.609  14.200 -0.0246  0.0025 -0.0327
13692W        W29953  11.150   9.469  13.820 -0.2350 -0.4112 -0.0388
13693W        W29954   9.874  18.174   2.866 -0.2217 -0.0650  0.1549
13694W        W29955  17.749   1.270   1.579 -0.2392 -0.0173 -0.0709
13695W        W29956  14.472   1.085   0.882  0.0936 -0.0042 -0.1350
13696W        W29957   3.484   1.849   4.247 -0.1902  0.0257  0.0073
13697W        W29958  17.679  10.152  10.889 -0.3869 -0.1511 -0.1505
13698W        W29959  10.734  18.431  12.315  0.0540  0.0817 -0.3224
13699W        W29960  17.796   1.915  14.012  0.1807 -0.4508 -0.2031
13700W        W29961  13.252  14.925   0.340 -0.3218 -0.1010 -0.3853
13701W        W29962   8.594   0.168  10.302 -0.0203  0.0885  0.1961
13702W        W29963  14.775  16.319  14.083 -0.0001  0.2980  0.3068
13703W        W29964  18.586   4.252  14.091  0.1235  0.0349 -0.1867
13704W        W29965   1.582  14.626   5.722 -0.2113 -0.0805 -0.0166
13705W        W29966   6.163  18.031   2.591  0.0277  0.2543 -0.3710
13706W        W29967  15.834  10.001  13.201 -0.4429 -0.3248  0.3024
13707W        W29968  17.411  12.036  14.312  0.0201  0.0293  0.0086
13708W        W29969   4.745   6.330  10.117  0.1371 -0.1337  0.3079
13709W        W29970   3.037   2.245   1.674 -0.0347  0.0984 -0.2610
13710W        W29971  11.910  13.466  11.171  0.1673 -0.3268 -0.0441
13711W        W29972   9.906   9.510  11.312 -0.0717  0.3228 -0.0382
13712W        W29973  16.964  14.220   2.331  0.3089  0.1272  0.0801
13713W        W29974  16.466  19.323   4.665  0.0411  0.0863  0.0911
13714W        W29975  12.888  13.834   3.647  0.4130  0.1566  0.4640
13715W        W29976  18.438  12.371   1.112  0.0778 -0.3910  0.0239
13716W        W29977   5.094  17.840   9.599 -0.2620 -0.1228 -0.0835
13717W        W29978  17.466   7.996  11.892 -0.0571 -0.4838 -0.0595
13718W        W29979  19.225   6.862  14.151  0.1895  0.3624 -0.2060
13719W        W29980   9.604   1.821  12.568  0.2271 -0.2007  0.6106
13720W        W29981   7.772  17.980   0.752  0.1322  0.3972 -0.3507
13721W        W29982  16.394  15.395  10.086  0.1528 -0.0343  0.0821
13722W        W29983  14.624   7.624   0.299 -0.1499 -0.0116 -0.3201
13723W        W29984   9.842  13.861  11.137 -0.1556  0.2388  0.0979
13724W        W29985  19.315  11.876   0.465 -0.1883  0.1342 -0.3048
13725W        W29986   2.667  14.251  11.999 -0.1547  0.0075  0.0499
13726W        W29987  14.098  14.606  14.282 -0.0696  0.1211  0.1797
13727W        W29988  15.858  17.414  10.455 -0.0890 -0.1801 -0.1070
13728W        W29989   2.246   3.291  14.227 -0.3881 -0.2986 -0.0077
13729W        W29990   1.651   1.481   0.404  0.0547 -0.2716  0.1539
13730W        W29991   0.095  12.052  12.002  0.4910  0.3282 -0.1789
13731W        W29992  18.977   8.549   3.068  0.0798  0.0458  0.1680
13732W        W29993   4.059   5.977   2.190 -0.1647 -0.2213 -0.1432
13733W        W29994   4.766   0.783   5.689  0.1405  0.0537  0.0487
13734W        W29995   0.821  10.550   2.063 -0.0421 -0.0796  0.3181
13735W        W29996  15.763  14.052   2.417 -0.3045  0.0239 -0.2391
13736W        W29997   9.808   9.400   9.612 -0.0172 -0.1967 -0.0200
13737W        W29998   9.898  10.010  11.787  0.0583 -0.1057 -0.1763
13738W        W29999  13.026  13.760   1.854  0.1231 -0.1960 -0.2634
13739W        W30000  17.620  19.123   0.960  0.0522 -0.0706 -0.0285
13740W        W30001  15.697  13.116  14.323  0.0194  0.1792 -0.0107
13741W        W30002  13.352   7.012   5.443 -0.3798  0.2895  0.0237
13742W        W30003  10.206  17.939   1.259  0.1210 -0.2832  0.2240
13743W        W30004  12.766   0.523   4.115  0.3215 -0.0881  0.0907
13744W        W30005   6.586   9.335   3.752  0.1586  0.1333  0.0133
13745W        W30006  17.360  19.313   5.794  0.1009  0.0319 -0.2434
13746W        W30007   7.593  13.117  10.922  0.1594 -0.2447 -0.0826
13747W        W30008   3.517   7.446   3.218 -0.3202 -0.0883  0.4023
13748W        W30009   5.092   5.162   3.846  0.0942  0.1120  0.4263
13749W        W30010  18.779  15.340   0.936  0.1885 -0.0440  0.1187
13750W        W30011   3.458  17.234   3.340 -0.0620 -0.6993  0.0285
13751W        W30012  19.296   8.230  14.038 -0.2898 -0.3246 -0.1393
13752W        W30013   5.565  17.982   9.755  0.1189 -0.0647 -0.2075
13753W        W30014   3.952   4.494   2.273 -0.1544  0.0115 -0.0294
13754W        W30015  14.275  14.890   4.007 -0.2203  0.2324  0.0830
13755W        W30016   3.364   2.649  11.074 -0.2058  0.2754  0.1493
13756W        W30017   6.216  11.979  14.348  0.2017  0.3022  0.0029
13757W        W30018   5.757  14.444   2.743  0.0584 -0.0748  0.0014
13758W        W30019  14.334  14.458   3.814 -0.0564 -0.0712  0.0007
13759W        W30020   6.019   0.026  14.215  0.1244  0.3335 -0.0018
13760W        W30021  14.947  12.227  10.193  0.1475 -0.1327  0.0178
13761W        W30022  17.731   3.807  13.995 -0.0019 -0.3090  0.4513
13762W        W30023  14.197  12.627   3.801  0.2302 -0.0246  0.1701
13763W        W30024   7.234  13.095  13.204  0.1399  0.2508  0.0750
13764W        W30025  10.423  18.851  11.470 -0.0661  0.2480  0.2398
13765W        W30026   1.099  11.971   4.001 -0.0927 -0.2465 -0.2643
13766W        W30027   5.104  10.312   2.270  0.0283 -0.0279 -0.0105
13767W        W30028   7.663  11.829   1.186  0.1401 -0.0647  0.0661
13768W        W30029  14.444  12.670  13.853  0.1069 -0.0039 -0.0229
13769W        W30030  11.982   6.565  14.614 -0.0041 -0.2884 -0.1567
13770W        W30031   0.372  15.004   0.333 -0.0463 -0.0766  0.4751
13771W        W30032   0.115   3.949   5.463  0.0321  0.0465 -0.1387
13772W        W30033  17.105   0.942  14.552  0.1614  0.1568  0.2066
13773W        W30034  18.380   2.481  12.743 -0.2448 -0.1647  0.0974
13774W        W30035  11.622   9.204  13.571 -0.1963 -0.0467 -0.2904
13775W        W30036  16.710   6.841  12.724  0.2015  0.1267 -0.0435
13776W        W30037  12.821   1.727  12.840  0.2889 -0.1473  0.1811
13777W        W30038  14.978   1.466   0.366  0.1338  0.0078  0.0159
13778W        W30039   6.646  10.526   4.265  0.2560 -0.1751  0.0593
13779W        W30040   3.454   6.845  14.634 -0.0213 -0.1273  0.0738
13780W        W30041   2.565  14.208   0.238  0.3069  0.0165  0.2762
13781W        W30042  17.263   5.799   3.208  0.0743  0.1130  0.0870
13782W        W30043   1.611   4.231   2.000 -0.0018  0.1749 -0.1758
13783W        W30044   8.147  17.990  14.180  0.0704 -0.1140 -0.3956
13784W        W30045  19.083   2.245  10.859  0.2612 -0.1645  0.0583
13785W        W30046  13.427   9.936   3.797  0.1606  0.1094 -0.0024
13786W        W30047   6.256   8.277   9.931  0.0169  0.0340  0.0098
13787W        W30048   9.842  18.893   0.315 -0.0135  0.1803  0.0632
13788W        W30049  16.437   4.375   9.801 -0.1262  0.1046  0.0433
13789W        W30050  13.612   5.541  12.222  0.2472  0.0328 -0.2299
13790W        W30051   0.235   5.142  10.336  0.3147 -0.1287 -0.2296
13791W        W30052   7.847   7.433   3.633  0.1552 -0.2651  0.1637
13792W        W30053   3.089  19.233   2.011 -0.0055 -0.0270 -0.3002
13793W        W30054   8.665   5.647  11.057  0.0537 -0.4487 -0.0906
13794W        W30055   2.426  14.720  14.354 -0.0869 -0.0888 -0.0307
13795W        W30056  11.212  15.517   0.532 -0.0804 -0.2350  0.0518
13796W        W30057  13.704   1.205  12.884 -0.2071 -0.1197  0.5768
13797W        W30058  17.409  12.998  14.879  0.1653 -0.1191  0.1368
13798W        W30059   6.944  16.228  13.607 -0.0189 -0.1216 -0.0861
13799W        W30060  17.240   8.940   4.515 -0.1504  0.4646  0.1185
13800W        W30061   6.206   9.144   3.484 -0.0771  0.1516 -0.4415
13801W        W30062   8.386   3.616   0.699 -0.1422  0.0954  0.0636
13802W        W30063   8.481  17.478   2.545 -0.0145  0.1343  0.1691
13803W        W30064  16.304   2.753   4.995 -0.3295 -0.2540  0.3597
13804W        W30065   9.704  17.634   3.044  0.2180  0.1709 -0.0760
13805W        W30066   8.831  18.290   0.258 -0.0424 -0.0753 -0.1458
13806W        W30067   3.804  12.597  13.214 -0.3185  0.2770 -0.3350
13807W        W30068   2.673   8.874   1.194 -0.2010  0.3782  0.1034
13808W        W30069   1.185  19.038   1.586  0.2406  0.3309  0.2377
13809W        W30070   5.984  11.167   1.057 -0.0142 -0.2850  0.0246
13810W        W30071   4.598  12.464   0.108 -0.1175 -0.0436  0.3549
13811W        W30072   1.200   8.583  13.616 -0.1828  0.2707  0.3156
13812W        W30073   1.900   6.559   9.916  0.1097 -0.1097 -0.1633
13813W        W30074   0.065   4.474   1.391  0.1088  0.4475  0.0497
13814W        W30075   5.903  10.428  10.950  0.2832  0.0835  0.3678
13815W        W30076   0.573  14.591   9.819  0.3045 -0.2013  0.0822
13816W        W30077  16.031   6.148   0.644 -0.3994  0.1954 -0.1490
13817W        W30078   5.732   6.704  14.372  0.1201 -0.2618 -0.3303
13818W        W30079  18.748   4.956  13.153 -0.2193 -0.0764 -0.2950
13819W        W30080   6.197   5.852   1.474 -0.0803  0.0153 -0.0582
13820W        W30081  17.599   7.735  14.462  0.0658 -0.4162  0.1094
13821W        W30082   1.459  14.056   4.928 -0.2368 -0.1324 -0.1735
13822W        W30083  18.302  18.244   1.877  0.0423 -0.3051  0.3971
13823W        W30084  13.112  16.372   1.595  0.2217  0.3454 -0.3227
13824W        W30085  10.897   8.772   3.715  0.1957  0.0734 -0.2282
13825W        W30086  17.895  12.326  12.158 -0.1686  0.1885 -0.0487
13826W        W30087   1.617  14.740   3.502 -0.0551 -0.0999 -0.1794
13827W        W30088   2.019  11.984   2.612 -0.2283 -0.1654 -0.2950
13828W        W30089  10.564   2.010  11.036 -0.3043  0.0854 -0.0509
13829W        W30090   9.262  18.716   1.302  0.0555 -0.2014  0.0230
13830W        W30091   3.151  12.366   3.688  0.1034  0.1701  0.3864
13831W        W30092   9.454  17.415   2.656  0.1367  0.3562  0.1843
13832W        W30093   5.556  17.071  13.699 -0.0587 -0.0058 -0.2241
13833W        W30094  17.233   4.696  12.148  0.1109  0.0139 -0.3007
13834W        W30095  11.544  19.186  12.548 -0.0856  0.2084 -0.0778
13835W        W30096   9.616  14.361   3.167  0.2169 -0.3185 -0.0752
13836W        W30097  14.160  16.116   9.023  0.1147  0.0818 -0.0188
13837W        W30098   2.430  17.508  13.472 -0.0778  0.1031 -0.2046
13838W        W30099  12.331   3.978  11.466  0.2048 -0.0591  0.0560
13839W        W30100  13.040  17.052   2.477 -0.4265 -0.0655  0.0334
13840W        W30101  19.227  19.369   4.838 -0.3870 -0.2487  0.3482
13841W        W30102  16.308   3.430  14.272  0.1905  0.0035  0.2153
13842W        W30103  10.217   8.950   4.465  0.2324  0.0611 -0.1275
13843W        W30104   7.229   6.304   3.550  0.0147 -0.3828 -0.0096
13844W        W30105   3.236  10.450   4.468 -0.0623  0.1509  0.1240
13845W        W30106  18.836   1.454  12.028  0.0878  0.2283 -0.2141
13846W        W30107   2.402   4.790   0.636 -0.0243 -0.2329  0.1063
13847W        W30108   5.615  18.897  11.098  0.1419 -0.2366 -0.1024
13848W        W30109   0.271   4.096  13.202 -0.3005 -0.4933  0.1243
13849W        W30110   5.547  13.952   3.811  0.1207 -0.0534  0.0418
13850W        W30111   3.276  14.328   1.245 -0.3882  0.0138  0.1152
13851W        W30112  12.572  17.740   3.298 -0.2739 -0.5475  0.0376
13852W        W30113  12.043  13.910  11.974  0.0624 -0.0619 -0.2345
13853W        W30114   3.315  14.934  12.559 -0.0634  0.2924 -0.0021
13854W        W30115  16.142  15.123  13.340 -0.1995 -0.0314  0.1011
13855W        W30116   6.018  12.837  10.859 -0.1938 -0.1613 -0.2282
13856W        W30117  13.868   9.359   0.274  0.2724  0.0022  0.0128
13857W        W30118   0.634   7.298   1.467  0.0708  0.0230 -0.0400
13858W        W30119  15.695   6.488   1.761  0.4406  0.4341  0.4736
13859W        W30120  15.281  18.145   1.444  0.3245 -0.0250 -0.0076
13860W        W30121  13.430  16.376  13.448 -0.2683 -0.1685 -0.0710
13861W        W30122   4.067   1.166  14.036  0.0275  0.2317 -0.2090
13862W        W30123  12.634   7.058   1.190  0.0400 -0.0595  0.0391
13863W        W30124  17.023   7.218   0.321  0.1956 -0.1274 -0.2254
13864W        W30125  17.236   0.551  13.279  0.3010 -0.2804  0.0361
13865W        W30126   9.473  12.020   9.790  0.2224  0.1449 -0.3178
13866W        W30127  11.888   0.983   1.353 -0.2962 -0.5036  0.2538
13867W        W30128   6.341  17.798   3.090 -0.2144  0.3196  0.0584
13868W        W30129  18.417  19.272   0.703 -0.1392 -0.0842  0.2934
13869W        W30130   8.214   9.406  10.591 -0.0763 -0.0712  0.1596
13870W        W30131   9.946  19.118   1.761 -0.0706  0.1858  0.1402
13871W        W30132   8.242   1.527   2.199 -0.0336  0.1394  0.1308
13872W        W30133  18.058  18.423   4.881  0.1352 -0.1315 -0.0101
13873W        W30134   2.514   1.606  11.560 -0.4749  0.1181 -0.0321
13874W        W30135   4.811  13.872  12.683 -0.1699 -0.0059  0.0928
13875W        W30136   8.385  15.115   9.354  0.0116 -0.2017 -0.0443
13876W        W30137  14.938   0.969   4.599  0.1225 -0.1007 -0.1623
13877W        W30138   3.982   7.036   4.259 -0.3878  0.1823  0.1884
13878W        W30139   8.333  18.308   2.388  0.1464 -0.0218  0.2190
13879W        W30140  15.619  16.311   3.054 -0.0803 -0.0183  0.0914
13880W        W30141   4.618  10.742  10.865  0.3008 -0.1261 -0.2291
13881W        W30142  13.204  15.509  13.832 -0.4558  0.0420  0.0318
13882W        W30143   1.773  10.357  10.355 -0.0012 -0.0958  0.2897
13883W        W30144   6.752  15.089   5.121 -0.4522  0.0427 -0.2451
13884W        W30145  17.601   3.897  12.301  0.2357 -0.2493 -0.1089
13885W        W30146   0.867   8.573   3.032 -0.0827  0.1891  0.2719
13886W        W30147   4.153   5.400   4.180  0.0087 -0.1509  0.1648
13887W        W30148   0.882  14.929   3.618 -0.2804  0.0347 -0.0679
13888W        W30149  14.036   5.779   0.203  0.1696 -0.1037 -0.3065
13889W        W30150   2.631  15.385   1.773 -0.0083 -0.0367  0.0420
13890W        W30151   0.732   9.098   2.927 -0.2155 -0.1609 -0.2946
13891W        W30152  14.130   9.985   4.600  0.3229 -0.3299  0.3054
13892W        W30153   8.789   5.654  13.417 -0.0138 -0.1631  0.1199
13893W        W30154   7.443  19.381   2.056  0.1502 -0.1008  0.0582
13894W        W30155  10.324   3.348  12.845 -0.2772 -0.0482 -0.0242
13895W        W30156  17.888  16.174   0.882  0.0863 -0.2006  0.2049
13896W        W30157   8.598   8.059  12.801 -0.2295  0.3194 -0.0970
13897W        W30158  16.491   0.410  11.859 -0.2569  0.2878  0.0231
13898W        W30159  11.341  13.506   3.911  0.2186 -0.1620  0.2188
13899W        W30160   0.870   5.948   2.582  0.0669 -0.0766  0.3641
13900W        W30161   1.771  14.775   0.663  0.0125 -0.1504  0.0433
13901W        W30162   0.702   3.820  12.539 -0.1255 -0.0859  0.2052
13902W        W30163  10.269  12.382  12.939 -0.0864  0.0614  0.1478
13903W        W30164  12.770   4.821  14.292  0.2094  0.0280  0.2859
13904W        W30165   0.915  14.420   3.572 -0.0830  0.1069  0.0990
13905W        W30166  17.524   4.905   2.992  0.1747 -0.1810 -0.1709
13906W        W30167   8.829   7.029  14.702 -0.0184 -0.3361 -0.2170
13907W        W30168   7.008  16.493   4.589  0.2686  0.3913  0.0538
13908W        W30169  14.193   4.051  11.722  0.1265 -0.2097  0.0053
13909W        W30170   4.281   2.727  14.011  0.2864  0.0987  0.2187
13910W        W30171  18.789  15.151   1.868  0.2898 -0.1045  0.0994
13911W        W30172   5.951  12.847  11.859 -0.0841  0.0435  0.2328
13912W        W30173  16.139   9.199  12.100 -0.4216 -0.1631  0.1140
13913W        W30174   0.711  10.373  12.282 -0.2216  0.0079 -0.1655
13914W        W30175  10.036   7.971   0.900  0.1988  0.1380 -0.2639
13915W        W30176   7.544  12.579  12.130  0.1609  0.3894 -0.0837
13916W        W30177   0.361  16.910  13.412  0.1219 -0.1547  0.0111
13917W        W30178   3.379   7.126   1.245 -0.0330 -0.1417  0.0653
13918W        W30179  12.889   0.086   3.294  0.1011  0.0142 -0.0891
13919W        W30180   3.663  12.661  12.337 -0.0595 -0.0054 -0.0816
13920W        W30181   7.502  12.559   2.098 -0.3053 -0.4977  0.2251
13921W        W30182  18.168   8.394   5.346 -0.0419  0.1392 -0.0543
13922W        W30183  11.700   6.121  11.287 -0.1324  0.0413  0.0094
13923W        W30184   2.506  10.899  11.769 -0.1727 -0.1040  0.0343
13924W        W30185  14.327  14.665   5.219  0.1144  0.0608  0.1441
13925W        W30186  15.450   8.763   1.375 -0.3055  0.3134 -0.0043
13926W        W30187   5.859   3.488  11.850 -0.2169 -0.1973 -0.2538
13927W        W30188  12.961   8.867  13.248  0.2961 -0.2388  0.1913
13928W        W30189   4.757  18.688   1.963 -0.2699  0.2546 -0.1744
13929W        W30190   4.603  15.816  10.533 -0.0516 -0.0415 -0.2386
13930W        W30191   8.599   4.635  10.953 -0.2172 -0.1445  0.3433
13931W        W30192   8.064  18.474  14.352 -0.0641 -0.0490 -0.0520
13932W        W30193   7.622   8.660  11.603 -0.1447 -0.2387  0.0877
13933W        W30194  18.271   5.019   2.647 -0.2398  0.0549 -0.1598
13934W        W30195   1.781   8.262  14.700 -0.0459 -0.1969 -0.1065
13935W        W30196   9.655  11.023  11.873 -0.0181 -0.0678  0.1714
13936W        W30197   3.353  17.460   0.922 -0.0348  0.1546  0.1291
13937W        W30198  18.492  16.334   2.131 -0.2010  0.2606  0.2949
13938W        W30199   9.187   7.848  11.745  0.3810 -0.0994  0.0614
13939W        W30200   8.739  10.948  13.128  0.0615  0.2643  0.0523
13940W        W30201  17.377   5.717  14.168  0.0020  0.0330  0.0355
13941W        W30202   7.195   8.664  13.897  0.2599 -0.3835 -0.3796
13942W        W30203   7.104  14.521  14.668 -0.1557  0.0178 -0.1781
13943W        W30204  15.399   8.581  12.051  0.0023 -0.0861  0.2149
13944W        W30205  17.461  10.357  13.614 -0.2143 -0.0552  0.3301
13945W        W30206   2.177  13.538  12.916  0.2113 -0.0175  0.0673
13946W        W30207   3.261  11.102   1.391  0.1292 -0.0861 -0.0915
13947W        W30208   4.547   1.943   2.633 -0.3776  0.1691 -0.0406
13948W        W30209   9.040  11.333   2.238 -0.0155  0.0870 -0.1785
13949W        W30210  14.248  10.418   0.326  0.1534  0.2975 -0.0671
13950W        W30211  11.567  15.140  13.314  0.0958 -0.3853 -0.0721
13951W        W30212  10.270   9.997  11.338  0.2807  0.0587  0.2312
13952W        W30213  17.825   8.241  11.718  0.3159 -0.0056  0.2916
13953W        W30214   8.177   9.340   4.149 -0.0444  0.1093  0.0319
13954W        W30215   3.632   1.349  10.733 -0.1388  0.0013 -0.0122
13955W        W30216  11.246  16.918   2.028  0.1070 -0.0740 -0.0144
13956W        W30217   9.444  10.893   3.524 -0.1398 -0.3753 -0.1376
13957W        W30218  10.740  19.093   3.366 -0.2378  0.2087  0.2969
13958W        W30219   6.218   5.277  14.673  0.1376  0.1148  0.2500
13959W        W30220  18.991  12.253  13.443 -0.0291  0.0413  0.2676
13960W        W30221   4.332  18.914   2.168 -0.1557  0.0071  0.0803
13961W        W30222   1.944   4.752   4.745 -0.0687 -0.2624 -0.0973
13962W        W30223  14.164   2.184   2.556 -0.0117  0.1414 -0.2772
13963W        W30224   9.388  16.757  11.131 -0.1580  0.1965 -0.3317
13964W        W30225  14.453   5.574   1.408  0.1960 -0.1902  0.2258
13965W        W30226  17.683   8.611   1.703  0.2066 -0.0112 -0.2449
13966W        W30227   2.244   4.262  14.177  0.0271  0.1506  0.2272
13967W        W30228   7.032  14.636  11.170 -0.1087 -0.0956  0.3763
13968W        W30229  15.514   1.221  14.778  0.0306  0.3465  0.0956
13969W        W30230  10.733  11.281   2.314  0.0354 -0.3411  0.2897
13970W        W30231  10.262  12.187  10.336 -0.0554  0.0758  0.1437
13971W        W30232   7.306   2.520  13.852 -0.3390 -0.0224  0.0249
13972W        W30233  16.344  15.148   4.251 -0.1541 -0.1765  0.4239
13973W        W30234   8.069   8.044   3.682  0.1818 -0.1975  0.0154
13974W        W30235  16.003  12.620   2.771  0.0760 -0.0873  0.0545
13975W        W30236   8.845  18.303  11.214  0.2803  0.3636  0.0928
13976W        W30237   8.417   8.532  12.265  0.2486  0.2047  0.0465
13977W        W30238  15.367   6.674   2.152  0.3217 -0.1231 -0.1885
13978W        W30239   2.667  11.743   1.378 -0.4592 -0.4042 -0.1454
13979W        W30240  16.355   8.883  14.610  0.1551  0.0551 -0.1259
13980W        W30241   2.983  18.109   4.967 -0.3455  0.2774 -0.1048
13981W        W30242  13.041   6.063  11.398  0.0997 -0.0176 -0.2400
13982W        W30243   0.665  18.707  11.264 -0.0721 -0.0936 -0.0635
13983W        W30244   2.711   7.161  12.076  0.2269  0.1793 -0.1094
13984W        W30245  11.017   9.070  11.668  0.1077 -0.1737 -0.0499
13985W        W30246   9.043   4.148   2.638 -0.0201  0.1911  0.3933
13986W        W30247  11.881   6.911   3.976  0.1462 -0.1836 -0.1716
13987W        W30248   7.908   6.741  14.195  0.1643 -0.2182 -0.0328
13988W        W30249   1.901   6.983   5.892 -0.0200  0.2668 -0.3229
13989W        W30250  10.853  18.007  12.080 -0.1361  0.0485  0.4659
13990W        W30251  17.092  17.118   2.242  0.1822  0.1983  0.1315
13991W        W30252   0.792   3.752   0.948 -0.1211 -0.0659 -0.0751
13992W        W30253  14.588  17.155   2.899  0.1104 -0.2039 -0.0183
13993W        W30254  14.786   4.722  10.920 -0.0346 -0.3265  0.2930
13994W        W30255   1.167   9.794  12.146 -0.1064 -0.3284 -0.3381
13995W        W30256   6.260   3.717   2.424 -0.1991 -0.2619  0.0728
13996W        W30257   2.313  11.557   0.084  0.3537 -0.1343 -0.1273
13997W        W30258   1.280  10.349  12.049  0.0001 -0.3460 -0.0090
13998W        W30259   6.957   5.111  11.904 -0.0869 -0.1813  0.0912
13999W        W30260  14.958   3.269   3.020  0.1736 -0.2170 -0.0764
14000W        W30261  11.547   1.783   3.113  0.0452  0.0930 -0.0836
14001W        W30262   5.723   5.557   2.111 -0.1432  0.2376 -0.1384
14002W        W30263  10.276  17.939   1.789 -0.0886 -0.0628 -0.4109
14003W        W30264  13.709  14.724  14.684 -0.0786 -0.2161 -0.0647
14004W        W30265  13.548  14.300  12.005  0.1312  0.1361  0.1993
14005W        W30266  11.394   1.803  12.681  0.2393 -0.1191 -0.2342
14006W        W30267  11.629  19.338   4.527 -0.0154  0.3059 -0.1022
14007W        W30268  13.224  12.382   1.683  0.2026 -0.0755  0.0951
14008W        W30269   6.828   1.619   0.778  0.0524 -0.3137  0.1620
14009W        W30270  12.054   4.150   3.198 -0.1772  0.0396 -0.0226
14010W        W30271  15.816   5.727   5.263 -0.2487  0.0609  0.0251
14011W        W30272   5.230  15.306   4.164 -0.0939 -0.1351  0.0592
14012W        W30273   7.486   9.561   0.176  0.2761 -0.0718  0.2095
14013W        W30274   6.468  18.464   5.157 -0.2828  0.1825  0.0677
14014W        W30275  17.754   0.335  14.414  0.1084  0.4988 -0.2666
14015W        W30276   4.358  15.743  12.373 -0.2312  0.2912  0.0699
14016W        W30277   9.209   7.856  10.525  0.2281 -0.1100  0.2250
14017W        W30278   7.221   5.552   1.246  0.0812  0.2799  0.1936
14018W        W30279   4.237  16.265   0.288  0.0480  0.0990  0.0813
14019W        W30280  13.666  11.804   9.660 -0.1211  0.0865  0.3904
14020W        W30281  10.338   0.250  13.549  0.1649  0.1474  0.0819
14021W        W30282  11.222  15.107   2.105  0.0441  0.0784  0.1780
14022W        W30283   6.907  17.903   4.490 -0.0923 -0.1544 -0.3481
14023W        W30284  17.163   6.844  12.918  0.2116  0.1401  0.2186
14024W        W30285  10.721  16.616   4.630  0.0219 -0.2324 -0.5273
14025W        W30286   3.126   6.815  12.194  0.2322  0.0629 -0.1154
14026W        W30287  14.993   1.458  12.641  0.0010 -0.3103  0.1740
14027W        W30288  16.743   1.805   0.605  0.0708 -0.0114  0.0913
14028W        W30289   5.902   5.004  12.544 -0.3531  0.2431 -0.1391
14029W        W30290   4.843  12.910   0.187  0.1481  0.0655 -0.1348
14030W        W30291  17.139  11.175   6.044 -0.1109  0.1709 -0.0720
14031W        W30292  10.197  14.971   3.503  0.0701 -0.2045  0.1251
14032W        W30293   7.861   8.204   0.053  0.2603 -0.0981 -0.0990
14033W        W30294   5.421  16.325   5.173 -0.0672 -0.1747 -0.0846
14034W        W30295   6.440   6.196   0.083 -0.2698 -0.3751  0.0851
14035W        W30296   4.737   1.688  12.820  0.3056  0.2792  0.1739
14036W        W30297  13.675   3.967  10.635  0.1061 -0.4809 -0.4790
14037W        W30298  13.339   8.734  11.822 -0.2230  0.0867  0.0238
14038W        W30299   1.204   9.992  13.030  0.1852  0.3082 -0.0239
14039W        W30300   4.949   8.093   9.298  0.0324 -0.0563  0.1159
14040W        W30301   8.327   2.387   4.854 -0.0339  0.0676 -0.1855
14041W        W30302  15.218   7.200  11.170 -0.0774 -0.0157 -0.1460
14042W        W30303   1.084   1.862  13.912 -0.0963  0.1950 -0.1320
14043W        W30304   1.308  14.968   0.550 -0.0256  0.1033  0.3040
14044W        W30305   0.112  10.620  13.462  0.1259 -0.0836  0.0011
14045W        W30306   9.512   6.672   1.439 -0.1967  0.0838 -0.0726
14046W        W30307   4.414  16.337  11.506 -0.2282 -0.3610  0.1282
14047W        W30308  12.301   1.384   4.056  0.0582 -0.0870 -0.0950
14048W        W30309  13.697   1.167   0.559 -0.1798 -0.4062 -0.1005
14049W        W30310   9.613  11.815   3.901  0.1775  0.1404  0.0981
14050W        W30311   5.637  10.013  13.471 -0.0297  0.0179 -0.0695
14051W        W30312   1.826   1.035  14.537  0.2590  0.3009  0.1970
14052W        W30313   3.434   2.131  12.979 -0.0655 -0.1712  0.1789
14053W        W30314  13.828   3.759  12.373 -0.4515  0.0057 -0.0809
14054W        W30315   3.246  14.617   3.212 -0.2152  0.3995 -0.0229
14055W        W30316   6.390   7.232  11.609  0.3358  0.3532  0.2066
14056W        W30317   3.457  14.983   3.999 -0.0516  0.1561  0.1856
14057W        W30318  15.243  16.101   3.349 -0.1510  0.1107  0.0582
14058W        W30319  12.346  11.125  14.681  0.2467 -0.1278  0.1389
14059W        W30320  14.084  16.990   3.742 -0.0700  0.0369 -0.2259
14060W        W30321  15.648  11.045  12.378 -0.0086 -0.0024  0.3067
14061W        W30322  14.665  16.738  13.846  0.1322  0.3262 -0.0850
14062W        W30323   9.369   6.568   3.139  0.6830  0.0486  0.1775
14063W        W30324  14.253  11.036   2.419  0.2156  0.0154  0.0975
14064W        W30325  11.571   2.560   2.050 -0.1788  0.1377 -0.1404
14065W        W30326  18.073  12.652  10.305 -0.2731 -0.0632 -0.0607
14066W        W30327   9.254  10.103   0.434 -0.2332 -0.2383 -0.3536
14067W        W30328  17.389  10.339  13.157 -0.0249 -0.0395  0.2189
14068W        W30329  16.535   8.935   3.868 -0.0194  0.0243 -0.0301
14069W        W30330  19.226  13.593  11.786 -0.0399  0.0706  0.3039
14070W        W30331  17.523   5.164  10.831  0.3977  0.4201  0.4130
14071W        W30332  17.967  18.335  10.793 -0.1722  0.1943 -0.0094
14072W        W30333   1.605   0.126  11.123  0.0284 -0.2576 -0.0635
14073W        W30334  13.695   9.169  12.558 -0.1176  0.0030 -0.2834
14074W        W30335  10.453  13.035  10.365 -0.0749  0.1282 -0.0630
14075W        W30336  11.412  16.860  14.600  0.2007 -0.2258  0.3129
14076W        W30337   2.794  14.392   4.916 -0.0488 -0.1360  0.3503
14077W        W30338  13.884   5.636   1.212 -0.3750 -0.0487 -0.0032
14078W        W30339   1.988   7.220   4.088  0.3021  0.2070  0.1534
14079W        W30340  15.298  14.322  14.077 -0.0390 -0.0451  0.1974
14080W        W30341  14.209  11.119  11.785 -0.3092  0.0099  0.0559
14081W        W30342  13.080   5.592  12.537 -0.2181 -0.0654  0.0605
14082W        W30343  10.711   8.936   1.052 -0.0315 -0.1655  0.0621
14083W        W30344   2.143  10.108   2.469 -0.2152 -0.0689  0.1820
14084W        W30345  15.199   8.110   9.922  0.0453  0.0724  0.0903
14085W        W30346   3.341   1.169   6.327  0.0221 -0.3259 -0.1041
14086W        W30347   6.023   4.478   3.823  0.0463  0.2683 -0.1602
14087W        W30348  18.198   5.742   1.301 -0.2265 -0.1287  0.0136
14088W        W30349  18.510  15.847  11.031 -0.2943 -0.0861  0.4798
14089W        W30350  10.692   5.867  12.432  0.0468  0.1198 -0.3604
14090W        W30351  10.707  12.989  13.713  0.3099 -0.2197  0.0227
14091W        W30352   1.726   8.642   2.978  0.0383 -0.0213 -0.1144
14092W        W30353  18.403  19.292   2.381 -0.1106 -0.3422  0.0586
14093W        W30354   9.872   8.961  12.805 -0.2996  0.0029  0.0279
14094W        W30355  12.449   7.827   3.587 -0.1415 -0.0853 -0.4727
14095W        W30356   1.323  15.294  13.329 -0.0822  0.0809  0.4080
14096W        W30357  15.673  15.973   4.989  0.1501  0.1203  0.2346
14097W        W30358   6.295   6.537  14.020  0.0970  0.0753  0.1345
14098W        W30359   2.498   5.524  11.922 -0.1968  0.1987  0.0555
14099W        W30360  13.174  17.236   1.561 -0.2424 -0.2147 -0.0707
14100W        W30361  12.205  12.314   1.410  0.2024 -0.0434  0.0895
14101W        W30362   8.552   4.077   2.808  0.2186  0.0142 -0.5171
14102W        W30363   9.555  17.924   2.569  0.0050 -0.0806  0.0169
14103W        W30364  13.519  17.784  13.907  0.0237 -0.0504  0.1375
14104W        W30365   0.290  18.748   4.282  0.0568  0.1838  0.1827
14105W        W30366  10.794   5.506  13.226  0.0665 -0.0241  0.0235
14106W        W30367   5.386   2.156   0.514 -0.2050 -0.1331  0.1134
14107W        W30368  10.206  17.429   1.098  0.1118 -0.1379 -0.0406
14108W        W30369  13.574   8.845   3.817 -0.0081 -0.3461 -0.1904
14109W        W30370  12.275  13.078  12.019 -0.0362 -0.0390 -0.0231
14110W        W30371   4.405  16.552  13.448 -0.2708  0.0539  0.1963
14111W        W30372  11.193  10.924  11.429 -0.1125  0.2949  0.1170
14112W        W30373  14.998  10.678  11.078 -0.0250 -0.1372 -0.0874
14113W        W30374   8.497  12.455   4.148  0.2933  0.2859 -0.0361
14114W        W30375  16.345   1.389  13.953  0.0257 -0.2967  0.4301
14115W        W30376   6.137   6.418  13.371 -0.0236  0.1634 -0.0072
14116W        W30377   8.754   8.331  13.242  0.0043 -0.2282 -0.1640
14117W        W30378   0.511  15.539   2.722 -0.1020 -0.0376 -0.0685
14118W        W30379   4.855  17.903   0.094  0.0910  0.4178  0.2827
14119W        W30380  18.653   3.994   0.113  0.1286  0.1496  0.1616
14120W        W30381   4.255   1.289   4.294  0.0106  0.1648  0.0833
14121W        W30382  11.972   2.688   3.539  0.2692  0.0417  0.1835
14122W        W30383   0.006  14.699  11.856 -0.2758 -0.0510 -0.1282
14123W        W30384   1.908  15.977  11.631  0.0941  0.3490  0.3332
14124W        W30385   4.094   4.558  11.810  0.0709  0.2907 -0.4289
14125W        W30386   5.524   7.642   0.581 -0.0619 -0.0635  0.0247
14126W        W30387   1.896  15.403   0.115 -0.3076 -0.2009  0.1012
14127W        W30388   7.706  18.062  14.386 -0.0110 -0.0248  0.0516
14128W        W30389  18.213  18.957   3.153 -0.0197  0.3014  0.0800
14129W        W30390  12.487   6.190   5.032 -0.0176 -0.0865 -0.0168
14130W        W30391  18.653  12.839  12.041  0.3875  0.0541  0.3342
14131W        W30392   5.324   7.910   5.335 -0.0777  0.0934 -0.0530
14132W        W30393  18.511   4.818  14.852 -0.0820 -0.1876  0.2147
14133W        W30394   0.819  15.799   3.412 -0.1378  0.0584  0.1997
14134W        W30395  12.018   0.549   1.542 -0.0845 -0.1589 -0.0469
14135W        W30396   1.479   1.012   0.166  0.0385 -0.0725 -0.1789
14136W        W30397   1.925   3.884   3.441 -0.1143 -0.1623 -0.0358
14137W        W30398  12.472  13.611  11.932  0.2208  0.0565  0.0003
14138W        W30399   2.942  17.533   4.776 -0.0114 -0.2253  0.1557
14139W        W30400  18.787   6.990  13.836  0.2849 -0.2588  0.1443
14140W        W30401   3.648   7.752   2.676  0.1419  0.3955 -0.2949
14141W        W30402   8.384   3.025   2.993 -0.1617  0.2166  0.0072
14142W        W30403   1.977  11.497   2.301 -0.0528 -0.4081 -0.3751
14143W        W30404   6.986  13.032  14.117 -0.0394 -0.0362  0.0351
14144W        W30405  12.029  15.375   3.849 -0.1058  0.0214 -0.2449
14145W        W30406  16.086   0.799   4.211  0.2247 -0.1603 -0.1952
14146W        W30407  16.085  11.533   4.262 -0.0624 -0.3972 -0.0819
14147W        W30408   5.207   7.801  13.629 -0.0462  0.0266 -0.1557
14148W        W30409   8.457  16.740   9.834  0.3385 -0.1948  0.2575
14149W        W30410  11.167  16.660   1.115  0.1918  0.0725  0.0432
14150W        W30411  14.925  17.301   3.821  0.2001 -0.0074  0.4088
14151W        W30412  13.299   1.351  13.554  0.0523 -0.5710  0.0842
14152W        W30413  12.383  11.906  12.532 -0.0730 -0.0694 -0.1209
14153W        W30414  12.672  15.190  13.018  0.0306 -0.5161 -0.3510
14154W        W30415   2.572   1.414   4.317 -0.0106  0.1228  0.0033
14155W        W30416  14.331  15.701   3.639  0.2785  0.1246  0.2936
14156W        W30417   3.701   6.035  13.083 -0.0651  0.0050  0.1605
14157W        W30418   8.963   4.725  12.599  0.1169  0.0098  0.0168
14158W        W30419   7.996   7.092   4.028  0.3577 -0.1138 -0.2702
14159W        W30420  15.308  13.449   3.773 -0.2589 -0.2214  0.0540
14160W        W30421  18.094  17.245   2.058  0.0564 -0.0398 -0.0488
14161W        W30422   6.927   8.428  14.441 -0.2243  0.0930 -0.0023
14162W        W30423   2.778   0.053   0.097 -0.1885  0.0873  0.1484
14163W        W30424  16.354   0.440   1.971  0.0497 -0.2846  0.1374
14164W        W30425  10.148   4.955   1.570  0.0620  0.0335  0.0472
14165W        W30426   4.880  18.640  14.340  0.2044 -0.1379 -0.0464
14166W        W30427   6.872   2.488   2.632 -0.2514  0.0074  0.2629
14167W        W30428  16.959  12.975   2.150 -0.2200  0.3509  0.0264
14168W        W30429   2.618   8.738   4.465  0.2479 -0.0294  0.2035
14169W        W30430  10.190   2.556   0.913 -0.0838 -0.0480  0.0537
14170W        W30431  18.308   7.414  12.782  0.0351 -0.0521 -0.0091
14171W        W30432  15.488   2.142   4.920 -0.1807  0.2570 -0.0388
14172W        W30433   7.107  13.884   1.392  0.1885  0.3597 -0.2869
14173W        W30434   2.465  12.597   1.415 -0.2610  0.1315  0.3417
14174W        W30435  19.362  16.580   5.922  0.2790 -0.0655 -0.0535
14175W        W30436  10.621  13.094   3.145 -0.0426  0.2764  0.2081
14176W        W30437   6.796   3.488   0.956 -0.1423  0.1050  0.3331
14177W        W30438  14.521  18.716  12.166  0.1336 -0.0566 -0.1311
14178W        W30439   6.033  18.079   0.828 -0.1096  0.0864 -0.1729
14179W        W30440   8.601   6.284   3.534 -0.1719 -0.1284  0.1674
14180W        W30441   2.095  13.255  12.015 -0.1371 -0.1000  0.2017
14181W        W30442  19.447  10.084  10.265 -0.2313  0.2920 -0.0467
14182W        W30443   2.578  11.129   1.145  0.1723 -0.0754  0.0385
14183W        W30444  11.482   0.561   4.484  0.0576  0.1120  0.0870
14184W        W30445   7.014   6.268   0.437 -0.0608  0.0615  0.0542
14185W        W30446  18.972  14.673   3.676 -0.1355 -0.0686  0.1426
14186W        W30447  18.646  19.149  11.884 -0.2635  0.1327 -0.1538
14187W        W30448   0.368   9.238   4.289  0.0967 -0.1190 -0.4201
14188W        W30449  13.571  16.150   4.077 -0.1553 -0.1715 -0.0460
14189W        W30450   3.789   4.052   1.899  0.0482  0.0492  0.0485
14190W        W30451  13.397  17.123   2.791  0.0275 -0.0711  0.0731
14191W        W30452   6.634   6.183  12.432  0.3865  0.0987  0.4649
14192W        W30453   7.638  15.323  12.507  0.0823 -0.0110  0.5730
14193W        W30454   9.073  14.143   2.722 -0.2580 -0.4080  0.2740
14194W        W30455  18.010  10.994  14.357  0.0352  0.2673  0.1392
14195W        W30456   6.707  10.440   5.310  0.0996  0.0279  0.1408
14196W        W30457  12.674   0.113   3.809 -0.4652  0.2602 -0.1356
14197W        W30458  14.654   0.743   3.628 -0.0285  0.1121 -0.4307
14198W        W30459  15.966  19.043  14.349  0.0958 -0.0195  0.0112
14199W        W30460  13.217  17.273  12.996  0.2508 -0.2417 -0.1932
14200W        W30461  10.432   5.566  14.071  0.2551 -0.2848 -0.3835
14201W        W30462   9.164  18.546  12.232 -0.0316 -0.1539 -0.2696
14202W        W30463   9.460   3.374  10.909 -0.0396 -0.0046 -0.0684
14203W        W30464  13.516  18.094   1.098 -0.1644 -0.0950  0.2119
14204W        W30465  10.203  18.400  12.491 -0.0083  0.2601  0.0311
14205W        W30466  12.815  11.258  13.146 -0.1484 -0.3495 -0.0331
14206W        W30467  18.099   7.929   3.770 -0.2905 -0.2139 -0.2813
14207W        W30468  15.863  11.634  14.373  0.3712 -0.3016 -0.1185
14208W        W30469   1.901  11.836  14.253 -0.0392 -0.2995 -0.0376
14209W        W30470   4.575   3.814  13.752  0.2675 -0.1275  0.3214
14210W        W30471   9.469   6.631   5.187  0.3000  0.3912  0.0528
14211W        W30472  14.567  11.921  12.241 -0.3959  0.0269  0.1442
14212W        W30473  12.191  16.950  13.479 -0.1654 -0.1522  0.2033
14213W        W30474   0.144   0.629   5.313 -0.0863 -0.0628  0.0835
14214W        W30475  17.204  16.813   0.471  0.0889  0.2253  0.2187
14215W        W30476   6.329  17.519   2.508 -0.2263 -0.0339  0.0145
14216W        W30477   7.280   3.052  12.955  0.0987 -0.0360  0.1698
14217W        W30478  10.233  17.848   3.828 -0.0869  0.0071  0.0602
14218W        W30479  13.994   3.539  10.469  0.1947  0.0595  0.0402
14219W        W30480   1.935   4.900   0.911 -0.0574 -0.2223 -0.2793
14220W        W30481  16.332  13.462   4.552 -0.0431 -0.2191  0.1285
14221W        W30482   0.762  11.821  14.388  0.1755  0.1980  0.3069
14222W        W30483   5.102  17.259  13.261 -0.1029  0.1572  0.0936
14223W        W30484   2.833  17.505  12.513  0.1539  0.1259  0.2282
14224W        W30485  16.504   6.071  14.648 -0.0069  0.2120  0.1770
14225W        W30486  10.776   5.021   9.877  0.4023 -0.0337  0.4296
14226W        W30487   2.954  11.145  14.224  0.0950 -0.1369 -0.2018
14227W        W30488   9.691  18.463  14.808  0.1925 -0.1295  0.1267
14228W        W30489   8.337  17.887   3.983 -0.2113  0.0052 -0.0082
14229W        W30490  18.151   0.944   0.598 -0.1786 -0.2530 -0.1399
14230W        W30491  13.072   4.244   3.641  0.3420  0.1555 -0.3733
14231W        W30492  16.196   7.153  13.834  0.0980  0.2634 -0.0093
14232W        W30493   0.667  14.503   2.600  0.1641  0.2946  0.0812
14233W        W30494  12.054   6.353   3.182 -0.3067 -0.1252  0.1489
14234W        W30495  14.222  17.168   3.314 -0.0129  0.0096  0.2048
14235W        W30496  13.510   8.382   5.147  0.0355 -0.0410 -0.0154
14236W        W30497   5.283   8.061   0.735  0.0379 -0.2758  0.1879
14237W        W30498   5.856   7.720   2.521  0.1066 -0.1421 -0.3278
14238W        W30499   8.516  16.266  14.708  0.2427  0.0477 -0.3467
14239W        W30500   6.424  17.678  13.871  0.4040  0.2294 -0.4609
14240W        W30501  15.568  10.042   4.466 -0.0491  0.3152  0.3514
14241W        W30502   3.925   1.272   1.448 -0.1906 -0.0643  0.2862
14242W        W30503   1.998  11.271  10.826  0.3932 -0.1138  0.2547
14243W        W30504   2.942  19.376  14.459  0.2544 -0.3072 -0.1768
14244W        W30505  14.046   9.645  11.885 -0.1457 -0.0952 -0.0415
14245W        W30506  15.906  18.016   4.561 -0.1710 -0.2266 -0.0400
14246W        W30507   2.770  17.001   4.264 -0.0579 -0.1921  0.0735
14247W        W30508   2.489  13.654  14.695 -0.2616  0.2254 -0.2886
14248W        W30509  16.601   1.681  12.323  0.0030 -0.1303 -0.2860
14249W        W30510   3.903  15.820   2.938 -0.1798 -0.2761 -0.2644
14250W        W30511   3.574  18.687   5.090  0.2139 -0.1185  0.0694
14251W        W30512   3.753   4.179  14.263  0.4221  0.1507  0.1675
14252W        W30513  18.138  16.475  12.108  0.0408  0.1124  0.4510
14253W        W30514   8.889  10.075   3.776  0.0862  0.3648  0.0302
14254W        W30515   1.794   2.302   2.690 -0.0105 -0.0804 -0.2642
14255W        W30516   0.192   7.945  14.834 -0.1667  0.1485  0.2942
14256W        W30517   7.115   1.759  13.856 -0.2489  0.0636 -0.1046
14257W        W30518   8.393   9.889   1.937 -0.1007  0.1640 -0.2321
14258W        W30519  11.407   2.087   2.122  0.3299 -0.2133 -0.0240
14259W        W30520  15.779  12.180   4.865  0.2210  0.2872 -0.0163
14260W        W30521  18.090  15.106   2.714  0.0058  0.0201 -0.2487
14261W        W30522  11.302   5.460  13.075 -0.1404  0.2598 -0.0386
14262W        W30523   0.392  13.417   3.301  0.1492 -0.1984 -0.1181
14263W        W30524  12.811   2.859  12.286  0.1270 -0.1578 -0.4721
14264W        W30525   6.522  12.575   1.606  0.0893  0.1324  0.1305
14265W        W30526   0.249   4.734   3.962  0.1152  0.0748 -0.1441
14266W        W30527  11.327  19.046   4.031  0.0209  0.3651 -0.1462
14267W        W30528  11.359  17.275  14.014  0.0386 -0.2579 -0.2883
14268W        W30529   4.242   6.319   2.556  0.1436  0.2827 -0.1653
14269W        W30530   0.094   4.470   5.310  0.1546  0.0399  0.1482
14270W        W30531  16.247  12.319  12.763  0.1421 -0.1771  0.0038
14271W        W30532   1.350   0.945  14.509  0.1741  0.3455 -0.1726
14272W        W30533  16.065  16.920  12.695  0.1956  0.1041  0.0216
14273W        W30534  17.600  12.196  12.585 -0.3920  0.3772 -0.0500
14274W        W30535   5.737   4.799   4.599 -0.3391  0.0424 -0.1202
14275W        W30536  17.500  12.844  10.094 -0.0586 -0.2836 -0.1816
14276W        W30537   7.222  13.519   9.860  0.0316  0.0154 -0.1526
14277W        W30538  14.175   5.677   9.194 -0.0742 -0.2712 -0.0953
14278W        W30539   2.895  14.209  13.221 -0.0721  0.0309  0.0646
14279W        W30540  11.680   4.896   5.563  0.2911  0.0329 -0.2777
14280W        W30541   1.792   0.549  14.406  0.0217  0.0188 -0.2808
14281W        W30542   4.652   9.092   2.703 -0.0912  0.0078 -0.0568
14282W        W30543  18.084   7.968   2.339  0.0280  0.1568  0.0082
14283W        W30544  18.645  14.672   0.033 -0.4042  0.0461  0.0806
14284W        W30545   3.320   3.382   3.548 -0.0217 -0.1322 -0.1561
14285W        W30546   5.694  11.769  10.440  0.0763  0.2285  0.0786
14286W        W30547  17.427  16.943  13.176 -0.1374 -0.4666 -0.2227
14287W        W30548  10.514   7.005  13.304  0.0181 -0.0684  0.1505
14288W        W30549   6.164   5.388   4.031  0.5448 -0.3372 -0.1878
14289W        W30550  12.155  12.542  11.490  0.1583 -0.2042 -0.1693
14290W        W30551   8.890   3.512   0.846 -0.1786 -0.0358  0.1345
14291W        W30552  14.044   4.067  14.057 -0.3542  0.0611 -0.1299
14292W        W30553   0.764  10.330  10.059  0.2871 -0.3212 -0.0645
14293W        W30554   0.883  18.686   9.804 -0.1780 -0.3862  0.0939
14294W        W30555   0.899   4.358  14.506  0.0531 -0.0155  0.2130
14295W        W30556  13.790  15.299  12.331  0.3393 -0.4596  0.0146
14296W        W30557   8.930  10.403   0.631  0.0553 -0.1712 -0.0143
14297W        W30558   2.209  12.113   3.070 -0.0553  0.0076  0.1366
14298W        W30559  12.928  12.445  10.425  0.2716 -0.3273  0.0534
14299W        W30560  14.724   6.848   1.355  0.0742  0.3166 -0.0782
14300W        W30561   3.148   7.214   3.678 -0.0201  0.1781  0.0703
14301W        W30562  17.488   3.453  10.922  0.2989  0.2399  0.0778
14302W        W30563  13.460   6.207   1.681  0.2481 -0.1806  0.2179
14303W        W30564   5.303   6.926   4.492  0.0891  0.0819 -0.3934
14304W        W30565  13.394  15.789  11.113 -0.1252 -0.0144 -0.0377
14305W        W30566  19.182   5.145  10.047 -0.0683 -0.0490  0.2055
14306W        W30567   2.949   2.377   0.048  0.1993 -0.0911  0.1796
14307W        W30568   4.737  13.938  14.107 -0.2330  0.2944 -0.0739
14308W        W30569  13.667  16.192   3.181  0.1742 -0.2387 -0.1514
14309W        W30570  11.242   5.600   4.783  0.1365 -0.0618 -0.2340
14310W        W30571  12.070  15.620   1.210  0.3537 -0.1938 -0.1991
14311W        W30572  15.532  16.591  10.376  0.1038 -0.1583  0.0346
14312W        W30573  19.294  13.763  10.142  0.2921  0.2826  0.0314
14313W        W30574  18.335  11.930   1.640 -0.2155  0.0278  0.0775
14314W        W30575  11.153  12.176  11.316  0.2819 -0.1577  0.4754
14315W        W30576   7.065  15.276  13.414  0.0924  0.1258  0.2250
14316W        W30577  16.846  12.267   9.682  0.1476 -0.1567  0.0718
14317W        W30578   9.990  12.394   0.105 -0.2955 -0.0739 -0.0327
14318W        W30579  10.178  10.550  11.760 -0.0511  0.3029 -0.1554
14319W        W30580   4.136  14.909   0.417  0.2066  0.2632 -0.0855
14320W        W30581  10.554   2.273  12.868 -0.1764 -0.0461  0.3941
14321W        W30582   3.293   2.959  14.126 -0.0498 -0.0967  0.0486
14322W        W30583   6.287   4.077   5.124  0.2510  0.0189  0.0743
14323W        W30584  10.736  10.541  10.304 -0.0472  0.3695  0.1971
14324W        W30585  18.690   6.990   3.313 -0.1427  0.2205  0.1586
14325W        W30586   5.265  16.970   2.597  0.0498 -0.0273 -0.0644
14326W        W30587   5.893   2.429  14.038  0.3220  0.0912  0.2084
14327W        W30588  12.090   5.322   3.370  0.3596  0.2364 -0.0354
14328W        W30589   4.289   6.110  10.621  0.0510  0.0746  0.0473
14329W        W30590   4.003  19.094   1.129  0.3259  0.2231  0.2174
14330W        W30591   3.929   1.064   3.971  0.1773 -0.1005 -0.2336
14331W        W30592  17.809  14.745  10.185 -0.4364  0.0092  0.0358
14332W        W30593  16.510   4.766   2.888  0.1318  0.0623  0.1471
14333W        W30594   3.738   2.046   0.332  0.1477 -0.3472 -0.0786
14334W        W30595   5.692  16.411  13.142  0.2524  0.0006  0.0714
14335W        W30596   0.637   4.346  13.511  0.1150 -0.1012 -0.3172
14336W        W30597   0.391  15.946  10.500 -0.1229 -0.0250 -0.2409
14337W        W30598  19.281   9.819  12.495  0.1436  0.0449 -0.1145
14338W        W30599  17.041  16.180   1.423 -0.1051 -0.3732  0.1223
14339W        W30600   5.711   8.316   3.240  0.3110 -0.3476 -0.2523
14340W        W30601  13.018  11.727   2.299 -0.1052  0.1598 -0.0819
14341W        W30602   2.694  16.701   2.047 -0.4687  0.0088 -0.2981
14342W        W30603   9.543  13.667  14.668  0.1009 -0.2667  0.3072
14343W        W30604   5.776  11.507   3.838 -0.2372  0.0144 -0.2092
14344W        W30605   8.056   1.574   0.805  0.1183 -0.0759 -0.3421
14345W        W30606  11.590   5.676   2.375 -0.4762 -0.1222 -0.1130
14346W        W30607   9.217  12.513   4.029 -0.1781  0.5095 -0.2942
14347W        W30608   5.575  16.611  13.643 -0.2356  0.0243 -0.1225
14348W        W30609  14.528   8.863  13.146 -0.1842  0.3847  0.4195
14349W        W30610   4.623   3.553   3.225  0.2463 -0.0256  0.1329
14350W        W30611  16.176  18.593  12.257 -0.0410  0.1616  0.4139
14351W        W30612  19.101   5.348   0.952  0.0995 -0.1801  0.0211
14352W        W30613   4.047  16.870   4.537 -0.0305 -0.0738  0.2550
14353W        W30614  12.289   1.882   0.369  0.0280 -0.0853 -0.1351
14354W        W30615   2.805  12.559  13.540 -0.0210  0.2205 -0.1843
14355W        W30616  15.626   6.999  13.147  0.0119 -0.2278  0.0084
14356W        W30617  11.307   0.952   2.443  0.0518  0.1357  0.0745
14357W        W30618  18.849  14.998   4.217  0.2734 -0.1610  0.0956
14358W        W30619  15.019  16.954  10.165 -0.2080  0.0725 -0.1376
14359W        W30620  12.019   4.971   0.645  0.1971  0.1074  0.1680
14360W        W30621   0.933   6.739  12.228  0.0868 -0.3472  0.1107
14361W        W30622   1.196   2.361   5.522 -0.3802 -0.1384  0.2955
14362W        W30623  15.788  12.254  12.890 -0.1438 -0.1125 -0.2873
14363W        W30624   1.170  15.663  11.428  0.0106 -0.0306 -0.2374
14364W        W30625  15.847   8.402  10.580 -0.1186  0.1032  0.4362
14365W        W30626   3.835   0.767   0.037  0.1934  0.3178 -0.1301
14366W        W30627  16.921  18.419  10.892 -0.1182 -0.0467 -0.1189
14367W        W30628  14.146   4.602   1.218  0.1348  0.0225  0.0402
14368W        W30629  14.084  11.204   1.449  0.3046  0.2368  0.1979
14369W        W30630   9.390   2.141  13.533  0.3657 -0.2269 -0.0501
14370W        W30631  14.953   6.994  14.360  0.0278 -0.3006 -0.1478
14371W        W30632  15.799   6.372  13.848 -0.0290 -0.0821 -0.1100
14372W        W30633   0.264  10.303  14.726 -0.1466 -0.2982 -0.0897
14373W        W30634  12.328  17.002   0.945  0.1935  0.0740 -0.2314
14374W        W30635  19.204  17.855   2.070 -0.0373 -0.3069 -0.2306
14375W        W30636   1.020  19.019   2.515  0.0357 -0.1085 -0.0151
14376W        W30637  12.146   9.715  10.741  0.4015 -0.0569  0.0280
14377W        W30638  16.627   3.776  14.869 -0.2632  0.0164  0.4905
14378W        W30639   0.863   4.801   2.930 -0.1874 -0.0430 -0.2574
14379W        W30640  19.178   8.161   3.928  0.1740  0.2342 -0.0206
14380W        W30641   4.165  11.777  13.281 -0.0451 -0.1447 -0.0015
14381W        W30642   9.363  10.229   0.892 -0.2702  0.1869  0.1907
14382W        W30643  18.193   3.486   3.513 -0.0809  0.0136 -0.1774
14383W        W30644   3.160  18.778   5.438  0.2120 -0.2282 -0.0448
14384W        W30645  15.701  16.751   1.614 -0.0973 -0.0682  0.2214
14385W        W30646   4.581   1.591  12.394 -0.1410  0.1314 -0.0530
14386W        W30647  11.417  18.512   3.999 -0.0559  0.4322 -0.0861
14387W        W30648  10.660  16.728   1.323 -0.1457  0.2160 -0.0247
14388W        W30649  15.217   7.916  11.204 -0.2064 -0.3138 -0.2540
14389W        W30650  15.569  13.433  12.848  0.0416 -0.0837  0.0695
14390W        W30651   0.375   8.351  13.927  0.0627  0.0110  0.2937
14391W        W30652   3.476  19.009   2.844 -0.1835  0.1810  0.2575
14392W        W30653  14.056   9.984  10.948 -0.1478 -0.1646  0.1043
14393W        W30654   8.300   3.198  13.370  0.0843  0.0955  0.0984
14394W        W30655   8.399   1.881   0.925  0.0820 -0.0874 -0.3309
14395W        W30656  15.909   0.348  14.742  0.0834  0.0136  0.0329
14396W        W30657  18.491   7.423  13.779 -0.0074  0.1152 -0.1142
14397W        W30658   0.812   3.808  11.564 -0.3333  0.0206  0.0873
14398W        W30659   5.139   8.910  11.259 -0.1303 -0.1300 -0.0085
14399W        W30660   9.549  10.083  14.228 -0.0894 -0.1294  0.2445
14400W        W30661  15.025  13.451  12.962 -0.1737  0.0619  0.1700
14401W        W30662  14.146  18.680  10.243 -0.2050 -0.3523 -0.3393
14402W        W30663   8.072   3.129   1.361  0.2447  0.0567 -0.1764
14403W        W30664  15.152   2.398  11.397  0.0741 -0.2953  0.1294
14404W        W30665   3.625   8.358   5.101 -0.2606 -0.1129  0.1424
14405W        W30666  15.435   9.672  12.073 -0.0119  0.1306 -0.0756
14406W        W30667   4.299  13.928  11.966  0.0070 -0.2769  0.2671
14407W        W30668  16.553  18.742   2.582 -0.0399  0.1169  0.1159
14408W        W30669  10.320  15.280   0.669 -0.0561 -0.2027  0.1940
14409W        W30670   8.533   1.933  13.572 -0.1377 -0.0661  0.0414
14410W        W30671  18.896  12.856  13.715 -0.1089 -0.3019 -0.1522
14411W        W30672   8.278   1.405  11.421  0.0188 -0.2911  0.1310
14412W        W30673   8.133  15.890  13.739  0.2958 -0.0451  0.1071
14413W        W30674   8.562   8.191   4.343 -0.1244 -0.1614 -0.0060
14414W        W30675   4.732  16.888   2.401 -0.3004  0.0542  0.1336
14415W        W30676   8.111  15.119  11.847 -0.0438 -0.2342  0.1236
14416W        W30677  18.308  12.044  10.284 -0.2234 -0.1342  0.2560
14417W        W30678  10.621   5.279   4.419 -0.1158  0.1135  0.0963
14418W        W30679   2.690   6.772  14.616 -0.0207 -0.3050  0.0090
14419W        W30680  14.603   6.548   1.810 -0.2047 -0.1538  0.0937
14420W        W30681   0.385  13.644   4.137 -0.1561 -0.2286 -0.0925
14421W        W30682  17.955  10.153   3.722 -0.0040 -0.0343  0.3276
14422W        W30683   9.095   9.800  13.382  0.1653 -0.3353  0.0441
14423W        W30684   9.601   0.065   4.337  0.0128  0.3160  0.1986
14424W        W30685   5.940  13.559   4.856  0.0095  0.1703 -0.1569
14425W        W30686   7.831   0.009   4.256  0.0605  0.3644 -0.3078
14426W        W30687  15.737   2.546  13.727 -0.4543  0.0138  0.0583
14427W        W30688  16.418   2.017  12.037 -0.1205 -0.0942  0.1092
14428W        W30689   0.444  18.185  12.627 -0.1394  0.0259  0.0475
14429W        W30690   8.478   6.600   2.982 -0.0284 -0.0469  0.0117
14430W        W30691  12.994   4.823  10.245  0.1386 -0.2634 -0.0797
14431W        W30692   5.716  15.786   3.590  0.0087 -0.0747 -0.2235
14432W        W30693  12.372   5.157  13.485 -0.3469  0.0896  0.3062
14433W        W30694  15.911  15.522   2.720 -0.2953 -0.2135 -0.1065
14434W        W30695   3.711   3.163  11.656 -0.4110  0.2833  0.1723
14435W        W30696   5.754  16.572   3.354  0.0451  0.0423 -0.2417
14436W        W30697   0.723  11.203   1.709 -0.1595 -0.0555 -0.2362
14437W        W30698   4.005   2.392  12.167  0.1633 -0.2425  0.2272
14438W        W30699   7.934   2.547   2.164 -0.0917 -0.2091 -0.2412
14439W        W30700   6.199   0.634  11.268 -0.2193 -0.0273 -0.2314
14440W        W30701   8.278   9.217   1.567  0.2403 -0.0054 -0.0513
14441W        W30702  10.468  13.570   5.642 -0.0211  0.2796  0.0538
14442W        W30703   7.105  12.721  13.513  0.1470  0.0719 -0.0685
14443W        W30704  10.083  17.247  13.720 -0.0794 -0.2769 -0.2194
14444W        W30705   7.670  18.896   2.055  0.2411  0.3681  0.2453
14445W        W30706  11.570   2.467  10.450  0.1155 -0.3273  0.1427
14446W        W30707  10.558  13.572  11.273 -0.0085 -0.1786  0.1198
14447W        W30708   9.162   8.449  13.969 -0.0497 -0.0838  0.0676
14448W        W30709   0.396   8.237   0.287  0.2172 -0.1523 -0.1889
14449W        W30710   1.901   8.351  12.282 -0.2840 -0.3453 -0.2252
14450W        W30711   5.096   5.579  13.027  0.1900 -0.0826 -0.1559
14451W        W30712   7.501  14.311   4.337  0.2570 -0.3334 -0.2312
14452W        W30713   5.377   3.460   4.508  0.0961  0.0524  0.0667
14453W        W30714  12.458  14.535  13.461 -0.0909  0.0534  0.1876
14454W        W30715   9.604  18.932  14.151  0.0913 -0.1816 -0.0685
14455W        W30716  10.464   6.718  11.417 -0.0534  0.0516  0.0013
14456W        W30717  17.376   0.351  12.094 -0.0737  0.4032 -0.0146
14457W        W30718  12.604   3.449   0.217  0.1973 -0.1634  0.2731
14458W        W30719  17.333  15.198   4.948 -0.0680 -0.0448  0.1396
14459W        W30720  17.906  14.908   4.413 -0.1868 -0.0269  0.4726
14460W        W30721   7.669   6.266   1.365 -0.0826 -0.0773  0.0398
14461W        W30722   6.379  14.871  12.739 -0.1468 -0.2025  0.2967
14462W        W30723   6.723   7.591   3.539  0.4065  0.3139  0.3193
14463W        W30724   2.256   3.349  11.238 -0.0939  0.0780 -0.2010
14464W        W30725  15.972   9.209  10.191 -0.0511  0.1610  0.0885
14465W        W30726  13.600  18.873  14.436 -0.4602  0.3013  0.0160
14466W        W30727  15.371   1.819  12.899 -0.0694 -0.1416  0.0936
14467W        W30728   9.194   5.082   1.063 -0.1576 -0.1275  0.0753
14468W        W30729   6.472   3.918  12.312 -0.3029  0.2682  0.2698
14469W        W30730   7.410   3.160   1.301  0.1575 -0.2524  0.0893
14470W        W30731  13.148   4.383  10.853 -0.1237  0.0300 -0.1214
14471W        W30732   8.217  16.147  12.764 -0.0652 -0.3096 -0.0960
14472W        W30733  13.650   4.522   2.863 -0.1685  0.0031  0.3304
14473W        W30734  11.288   4.436  11.663 -0.1155  0.2098  0.2753
14474W        W30735  16.204  15.201   3.076  0.1822  0.1267 -0.0201
14475W        W30736   0.544   0.958   2.673 -0.1395  0.1565 -0.2932
14476W        W30737  15.952  10.562   2.002 -0.0858 -0.0082  0.4342
14477W        W30738   3.173  18.913  12.136 -0.0173  0.1433  0.0115
14478W        W30739  16.805  12.891   3.780 -0.0981  0.4209 -0.0855
14479W        W30740   4.266   4.222   1.535  0.0906  0.0631 -0.0364
14480W        W30741   6.188   2.359   0.360  0.0026 -0.0256 -0.0703
14481W        W30742   9.284   0.513  10.774  0.2622  0.1218  0.3990
14482W        W30743  17.826   8.835  13.110  0.0283 -0.0449 -0.1352
14483W        W30744  13.923   4.697   0.556  0.0593  0.0414 -0.2190
14484W        W30745  11.071   4.598   4.716  0.1704 -0.0933  0.2880
14485W        W30746   1.692  16.827   0.437 -0.0148  0.1493 -0.2632
14486W        W30747   3.210   5.929   0.703  0.0988 -0.1226  0.0787
14487W        W30748  14.817   5.371   3.904  0.0740 -0.1568 -0.1949
14488W        W30749  10.968   6.294   2.323  0.1014 -0.2356 -0.1511
14489W        W30750   1.446  15.801  13.236  0.3182 -0.1082  0.0061
14490W        W30751   7.085  14.439  10.311 -0.3244 -0.1009  0.1363
14491W        W30752  18.888  14.073  11.786 -0.3230  0.0048 -0.1191
14492W        W30753  13.130  16.096  12.358  0.0006  0.0327 -0.2267
14493W        W30754  15.596   0.357  12.548 -0.4262  0.1278 -0.0948
14494W        W30755  14.869  18.552  10.117 -0.1264  0.3232 -0.0391
14495W        W30756  18.961  15.687  12.195 -0.0005 -0.1916  0.1674
14496W        W30757  12.300   0.765  13.629 -0.1663 -0.0297  0.2426
14497W        W30758  17.493   5.163  14.395 -0.2660 -0.0622  0.1537
14498W        W30759   1.149  18.476  13.892  0.0500  0.0237 -0.1630
14499W        W30760  13.832  14.272   2.157  0.1150 -0.0906 -0.1058
14500W        W30761   8.642  12.406  10.113  0.0118  0.2428 -0.2072
14501W        W30762   6.700  19.255   5.011  0.0365  0.1408  0.0592
14502W        W30763   3.840   8.486  12.205 -0.2157 -0.1105 -0.0168
14503W        W30764  18.019  16.235   4.703 -0.0528  0.0818 -0.2104
14504W        W30765   3.649   8.239  11.805  0.1111  0.0529  0.0759
14505W        W30766   6.630   9.540   4.486 -0.1010 -0.1913 -0.1777
14506W        W30767   0.325   3.649   5.129 -0.3500 -0.0260  0.0002
14507W        W30768   9.908   7.822   3.611  0.2311  0.0485  0.5238
14508W        W30769   7.953  12.355  13.301  0.1464 -0.1412  0.2106
14509W        W30770  12.254  10.881  13.611  0.1367  0.0568 -0.0518
14510W        W30771  19.081   3.079  12.811 -0.1458 -0.3398  0.1466
14511W        W30772   9.140   7.838   0.675 -0.2089 -0.0172  0.2055
14512W        W30773   4.086  11.147   0.487  0.0346 -0.0284  0.1833
14513W        W30774  10.564  11.017  10.077  0.0080 -0.0940 -0.0524
14514W        W30775   0.189  13.316   0.623  0.2238  0.0757 -0.0587
14515W        W30776  18.538   2.174   1.681 -0.0616  0.0259  0.0443
14516W        W30777  13.247   2.986   2.645 -0.1146  0.1392 -0.3266
14517W        W30778   3.831   3.290  14.739  0.0501 -0.2339  0.2045
14518W        W30779  18.735   5.121   2.399  0.0736 -0.1036 -0.0479
14519W        W30780   4.528  18.042  12.233  0.1450  0.0870  0.1028
14520W        W30781   7.435  17.927   4.568  0.2848  0.2373 -0.2521
14521W        W30782  10.214   0.429   3.230 -0.1394 -0.0609 -0.1173
14522W        W30783   3.737  17.775   3.165  0.0554 -0.2979 -0.0168
14523W        W30784   0.544   0.846   5.811  0.0038 -0.0233 -0.3702
14524W        W30785   9.397  17.717  13.202  0.2065 -0.0870 -0.0590
14525W        W30786  10.074  12.035   0.559 -0.1169 -0.0767  0.3099
14526W        W30787  17.438   6.086  14.779  0.0080  0.1159  0.1519
14527W        W30788   5.443   2.724  12.342 -0.0451 -0.1727 -0.0821
14528W        W30789  14.638  14.050   2.339 -0.1523  0.2496  0.0153
14529W        W30790   8.453   7.761   1.372 -0.2714  0.0385  0.0408
14530W        W30791   8.286   1.195  10.892  0.4081  0.0537  0.2283
14531W        W30792   6.284   6.270   5.091 -0.0757  0.1586 -0.0281
14532W        W30793   8.463  19.329  11.241 -0.1775  0.3172  0.3436
14533W        W30794  10.483  18.537  12.845  0.0070 -0.0221  0.1048
14534W        W30795  12.810   9.406  14.669 -0.0217  0.0008 -0.3933
14535W        W30796   8.149   3.527   0.185 -0.0056  0.0750 -0.1750
14536W        W30797   7.521  17.380  11.687 -0.2439 -0.0773  0.1348
14537W        W30798  12.024   8.060   9.631  0.0440 -0.0105 -0.0265
14538W        W30799  12.991  12.659   2.598  0.1689  0.1704  0.2777
14539W        W30800   9.490   9.961   4.757  0.4032 -0.2622  0.0722
14540W        W30801   7.554   9.192   3.689  0.0996 -0.0567 -0.0122
14541W        W30802   1.668   7.044   3.786  0.2886  0.1270  0.2353
14542W        W30803  15.083   1.383  11.598 -0.1248  0.3252 -0.0598
14543W        W30804  10.260  11.955  13.352  0.0052 -0.1707 -0.1441
14544W        W30805   7.001   6.127  14.797  0.1944  0.1525  0.3496
14545W        W30806  12.770   9.362   1.562 -0.0682  0.2563  0.2538
14546W        W30807   6.988   1.049  11.581 -0.3125  0.1763  0.0503
14547W        W30808   9.438  18.276   1.233  0.0180  0.2033 -0.1333
14548W        W30809   3.118  18.760   4.180  0.0368 -0.0733  0.1982
14549W        W30810   1.982   9.878   1.641  0.0896 -0.0061 -0.3199
14550W        W30811   0.218   4.915  13.997 -0.1955  0.1788  0.1325
14551W        W30812   5.098   4.030   2.955 -0.0430 -0.1525  0.0840
14552W        W30813  14.936   8.626  13.890 -0.0802  0.2029 -0.1312
14553W        W30814   2.589  16.586   0.268  0.1207 -0.0228  0.1235
14554W        W30815   8.667   3.702  11.592 -0.1319  0.0079 -0.1563
14555W        W30816  14.139  14.092   2.640 -0.0552 -0.2557 -0.0521
14556W        W30817  13.335  16.275   1.119 -0.0466  0.2281 -0.2294
14557W        W30818   7.704  17.323   1.737  0.0104 -0.0260 -0.0365
14558W        W30819  13.550  17.868   1.551  0.4002  0.2582 -0.0141
14559W        W30820  14.689   8.497   1.857  0.1118  0.2186  0.1363
14560W        W30821   4.340   6.347  14.361  0.0267  0.1409  0.1304
14561W        W30822   5.694  11.610  14.802 -0.0979 -0.1475  0.2378
14562W        W30823   9.913  17.870  12.100  0.1471 -0.0660  0.0432
14563W        W30824   1.111   4.327  11.783  0.2442 -0.0905  0.0536
14564W        W30825  19.311  16.765   2.070  0.2972  0.1000 -0.1097
14565W        W30826  18.534  11.663  13.398  0.1233 -0.2038  0.0734
14566W        W30827  17.901   6.941   3.546 -0.0026  0.0306 -0.0006
14567W        W30828  13.969   4.407   9.927  0.1866 -0.2268 -0.2230
14568W        W30829   9.418   0.176  13.267 -0.1186 -0.1874  0.2826
14569W        W30830   7.403   8.303   2.537  0.0310  0.2033  0.1603
14570W        W30831   8.064  13.285  11.260 -0.1243  0.4120  0.2364
14571W        W30832  15.656   5.883  10.227 -0.0531 -0.2618 -0.0542
14572W        W30833   5.372  11.245  10.067  0.3090 -0.1637  0.2418
14573W        W30834   5.898  13.448   1.909 -0.2096 -0.1199 -0.1163
14574W        W30835   6.887  10.241   0.922  0.0339  0.2295  0.4551
14575W        W30836  14.123  12.271   0.099  0.1290 -0.2041  0.1628
14576W        W30837   4.127   5.374  14.413 -0.2748 -0.3733 -0.0952
14577W        W30838   5.341  12.328  12.979 -0.2380 -0.1410  0.3512
14578W        W30839  17.039   7.702  12.086  0.2489 -0.0454  0.0047
14579W        W30840   2.128   0.015   6.256 -0.2457 -0.3422  0.1145
14580W        W30841  15.177  17.358  13.318  0.0491 -0.1618 -0.0969
14581W        W30842  13.219   5.464   4.435  0.2820  0.1557  0.1338
14582W        W30843   1.084  16.301  12.840  0.1192  0.0526  0.1676
14583W        W30844   8.035   4.416   2.729  0.1954 -0.1798  0.2142
14584W        W30845   2.265   4.802   4.234 -0.2015 -0.0793 -0.2189
14585W        W30846   5.689  10.382   5.105  0.2314 -0.0208 -0.4198
14586W        W30847   3.991  13.558  12.907  0.1466  0.0327  0.0869
14587W        W30848   5.714   8.810   1.043 -0.3901  0.0274  0.2180
14588W        W30849  19.065  15.822   0.547  0.0603  0.1093 -0.3787
14589W        W30850  14.900  12.159   3.788 -0.0464 -0.1878  0.2276
14590W        W30851   7.500  16.959  13.816 -0.0722  0.0293  0.1368
14591W        W30852   8.120   6.886  10.700  0.0222 -0.2090 -0.0095
14592W        W30853   4.178   5.045  12.044 -0.1074 -0.3281 -0.1225
14593W        W30854   5.974   1.051  11.873 -0.0261  0.2202  0.0244
14594W        W30855   3.185  18.297   1.534 -0.1132  0.2258 -0.0267
14595W        W30856   5.347  16.669  11.937 -0.1779  0.0424  0.2638
14596W        W30857  18.021  13.706  14.791  0.0090  0.3430 -0.0051
14597W        W30858  10.076  15.232   1.441  0.0923 -0.2094 -0.2873
14598W        W30859   9.638   3.005   3.449 -0.0579  0.1869  0.0449
14599W        W30860   8.362   4.820   2.205 -0.0069  0.0999  0.0027
14600W        W30861   9.211  14.653  12.618  0.1737 -0.2901 -0.0299
14601W        W30862  13.086  14.744  12.244 -0.0532  0.0040  0.0290
14602W        W30863   6.105   7.993   4.090  0.1895 -0.1532 -0.0944
14603W        W30864  13.352  19.386  14.600  0.0812  0.2622 -0.1921
14604W        W30865  13.276  18.833   3.464 -0.0086  0.0795  0.0107
14605W        W30866   4.744  14.810  10.969  0.1954 -0.2693  0.0386
14606W        W30867  10.162  15.948  11.582  0.2168  0.3443  0.0686
14607W        W30868   5.946  17.159   4.120 -0.0391  0.1995 -0.0567
14608W        W30869   3.811  12.448   0.956  0.2062 -0.0868 -0.0621
14609W        W30870  14.705   4.958   1.608 -0.0296  0.2361  0.3658
14610W        W30871   0.405  16.527  12.150 -0.2092  0.0298  0.0532
14611W        W30872  16.950   8.256  12.053  0.0050 -0.1789  0.0464
14612W        W30873   9.273  11.737   2.582 -0.2457 -0.1605  0.0597
14613W        W30874   7.018   7.901   1.735  0.3612  0.0236 -0.3401
14614W        W30875   8.514   3.998   0.049  0.1378  0.0015 -0.3574
14615W        W30876  15.116  15.059  13.037  0.1419 -0.0704 -0.4743
14616W        W30877   3.263  11.915  13.663 -0.0413 -0.2542 -0.0918
14617W        W30878   7.048   8.029  12.703 -0.2063  0.3026 -0.3239
14618W        W30879   1.571  19.312   1.665  0.0074 -0.2365 -0.0382
14619W        W30880  17.508   4.556   1.314  0.1417 -0.0463 -0.1049
14620W        W30881   8.073   5.898  11.047  0.2144 -0.0310 -0.0087
14621W        W30882  15.031   2.322  12.882  0.0474  0.0808 -0.2286
14622W        W30883  15.597   1.726  14.651 -0.0780 -0.2157 -0.1969
14623W        W30884  19.264  17.693  13.597  0.2053  0.0691  0.2263
14624W        W30885  10.384  16.792  10.818  0.0745  0.4508  0.1352
14625W        W30886   7.149   3.803   2.837 -0.3382 -0.1064 -0.1534
14626W        W30887  16.238   3.786   2.264  0.0778 -0.1682  0.1350
14627W        W30888  18.927   1.738  12.470  0.1541  0.2054 -0.0166
14628W        W30889  16.400   4.648   4.549 -0.2109 -0.3227 -0.0027
14629W        W30890   6.828   6.258   2.614 -0.0585  0.0108 -0.4014
14630W        W30891   7.203  18.190  12.126  0.1193  0.1657  0.4026
14631W        W30892  11.541   1.443   1.235 -0.5241 -0.1205 -0.0805
14632W        W30893  13.966  16.986   0.588 -0.0254  0.0133 -0.0054
14633W        W30894  12.236   5.004   5.505  0.2328  0.1222  0.3071
14634W        W30895   6.014  18.932  14.536  0.2798 -0.0669  0.1394
14635W        W30896   1.375   9.078   3.590 -0.2063 -0.0204 -0.0076
14636W        W30897   3.253  13.032   2.914 -0.3333 -0.2225  0.0182
14637W        W30898   2.648  13.895   2.829  0.0168  0.1803 -0.2732
14638W        W30899   6.499  17.463   1.450 -0.2768  0.1601  0.1016
14639W        W30900  12.741  14.152   1.463  0.1663 -0.0776  0.2309
14640W        W30901  18.549   2.047   5.441 -0.0839  0.6323 -0.0841
14641W        W30902   1.938  14.113   3.251  0.0140  0.0526 -0.0420
14642W        W30903  16.007  18.864   0.052 -0.1731  0.0580 -0.0489
14643W        W30904  18.904  13.531   2.227 -0.2242  0.1621  0.1303
14644W        W30905   4.535  18.289  11.825 -0.1076 -0.0937  0.0572
14645W        W30906   8.902  14.032   1.832 -0.0727  0.0579 -0.0722
14646W        W30907  11.391  10.655   0.923 -0.1882 -0.0724 -0.3102
14647W        W30908   3.507  18.446   4.239 -0.3776  0.3366  0.1899
14648W        W30909  17.944  18.787  14.286  0.0837  0.1076 -0.4192
14649W        W30910  17.946   9.136   3.298 -0.0917  0.0831 -0.1692
14650W        W30911   0.739  11.425  13.454 -0.3353 -0.0767 -0.0138
14651W        W30912   0.716  11.165   3.439 -0.1135  0.0581  0.1903
14652W        W30913   7.036   6.993   9.923  0.0805  0.1898 -0.2041
14653W        W30914  14.320  19.088  13.087  0.0106 -0.0149  0.0366
14654W        W30915   6.846  11.640  10.689  0.1714 -0.0902  0.0287
14655W        W30916  16.937   0.705  12.905  0.0136  0.1293  0.0777
14656W        W30917  18.032   1.385   2.826  0.2297 -0.1715 -0.2701
14657W        W30918   2.960   1.641   2.667  0.1087  0.0262  0.0446
14658W        W30919  15.436   8.967   0.897 -0.0379  0.2379  0.2202
14659W        W30920   2.485  16.700   2.579  0.0587 -0.0344  0.3725
14660W        W30921   0.285  16.881  13.995  0.1422  0.0262 -0.1357
14661W        W30922   3.094   1.193   4.364  0.1073 -0.0125  0.3466
14662W        W30923   0.253   5.848   0.868 -0.3425 -0.2544 -0.1652
14663W        W30924   1.049  19.062  14.582 -0.2528  0.3735 -0.1435
14664W        W30925  12.896   0.334  10.077  0.4901 -0.2741  0.0644
14665W        W30926  18.744   6.753  10.692  0.0311 -0.2085 -0.0353
14666W        W30927  16.750  14.328  12.356 -0.0370  0.2592  0.3021
14667W        W30928  12.816  14.908   4.809 -0.0806  0.0414  0.0660
14668W        W30929   4.913  11.850   0.394 -0.2195  0.1930 -0.0025
14669W        W30930   1.916  14.884  14.105  0.0069  0.2461 -0.0478
14670W        W30931   9.498  13.062  10.609  0.3181  0.0867  0.4843
14671W        W30932  19.130   1.107   5.536  0.0843 -0.2474 -0.2955
14672W        W30933  12.629  14.001  10.706  0.0293  0.5430 -0.0827
14673W        W30934   0.272  17.359  12.220  0.0217  0.4516 -0.3363
14674W        W30935   3.510  16.347  14.346 -0.2326 -0.1523 -0.3226
14675W        W30936  13.021  15.882   1.531 -0.2750 -0.4861  0.2862
14676W        W30937  11.953   1.821   0.934  0.1264 -0.0102  0.0470
14677W        W30938  13.090   1.698   1.702 -0.3369  0.1210 -0.0596
14678W        W30939  18.451  12.664   1.909 -0.1665  0.0358  0.1401
14679W        W30940   6.008  10.802  11.575  0.1588  0.0863 -0.0967
14680W        W30941   9.452  15.636  10.327 -0.3328 -0.0313 -0.1508
14681W        W30942  12.663   8.147   4.728 -0.2272 -0.3716 -0.0256
14682W        W30943   7.968  10.626   4.474 -0.0981  0.1447 -0.1614
14683W        W30944   8.833  13.776   4.689 -0.2469 -0.0933 -0.0944
14684W        W30945   9.855  10.007   1.069  0.0720  0.2852 -0.1288
14685W        W30946   8.571   3.047  11.758 -0.2479 -0.0194 -0.0293
14686W        W30947   5.981  19.146   0.728  0.0106 -0.4353 -0.3117
14687W        W30948   8.564   3.285   1.128 -0.4183  0.0018  0.0137
14688W        W30949  10.762  15.240   9.572  0.4023 -0.3438  0.1285
14689W        W30950   2.356  12.436  13.919  0.1346  0.0624 -0.1084
14690W        W30951  13.076  13.981  13.843 -0.2753  0.1090 -0.0896
14691W        W30952  18.963  15.049  12.755  0.3427 -0.1553  0.0837
14692W        W30953   2.837   2.088  11.501 -0.0556 -0.0717  0.0620
14693W        W30954  12.706  13.584  13.723 -0.5810  0.3053 -0.1245
14694W        W30955  16.222   8.001   2.659  0.2065  0.1765  0.0848
14695W        W30956  15.723  15.260   1.338  0.0758 -0.2064 -0.1388
14696W        W30957  19.299   3.281  14.337  0.2653  0.0845  0.0956
14697W        W30958   5.128   0.944  14.558  0.0940 -0.0591  0.0633
14698W        W30959   4.804  19.040  11.513  0.3459  0.0565 -0.0402
14699W        W30960   6.769  10.128  12.403 -0.2957  0.0968 -0.1932
14700W        W30961   6.780  14.779   0.976 -0.2039 -0.0998  0.2276
14701W        W30962  15.141   5.784  10.219 -0.2019 -0.0457 -0.1752
14702W        W30963  12.604  14.569  12.313 -0.3370 -0.2389  0.2084
14703W        W30964  14.091   8.116  13.156 -0.0460 -0.4392 -0.0995
14704W        W30965  10.274  11.229   2.457 -0.1848  0.2633  0.3666
14705W        W30966  17.901   8.761   4.165  0.1943 -0.1467 -0.0180
14706W        W30967  18.052   3.628  12.261 -0.2809  0.1884 -0.1762
14707W        W30968   3.435   5.791   4.677 -0.2229 -0.2037  0.0162
14708W        W30969   1.989   8.377   2.101 -0.2293  0.3390 -0.1345
14709W        W30970  13.009   2.299   1.892  0.3272  0.1687 -0.1148
14710W        W30971   4.970   3.501  11.952  0.1070  0.0104  0.0656
14711W        W30972   5.471  12.901   3.483  0.1099  0.0141  0.1377
14712W        W30973   6.651  14.942  13.164 -0.0497 -0.0478  0.1595
14713W        W30974   5.477   9.049  12.157  0.2522  0.1969  0.0805
14714W        W30975   9.049   1.690  11.251 -0.0570  0.0486  0.1967
14715W        W30976  17.881  10.631   2.037  0.0852 -0.1253 -0.2541
14716W        W30977   3.271   6.595  11.775  0.1150 -0.0236 -0.1649
14717W        W30978   7.535  10.056  11.002 -0.1607  0.2653  0.0574
14718W        W30979  16.702   1.228  14.252  0.2723  0.0099 -0.4054
14719W        W30980   3.818   7.398   5.129  0.0939  0.0198 -0.2636
14720W        W30981  12.830   7.730  11.802 -0.1440 -0.0377 -0.0599
14721W        W30982  15.664   5.862  13.954 -0.0767  0.3565  0.2534
14722W        W30983   9.986   9.696  12.307  0.1042 -0.2067  0.4976
14723W        W30984  13.033  12.971  10.225 -0.0821 -0.0976 -0.0180
14724W        W30985  11.251   5.880   4.366 -0.0236 -0.2948 -0.0085
14725W        W30986   9.269   5.476  10.725 -0.0482 -0.1122  0.0099
14726W        W30987   6.067   7.404   2.066  0.2855 -0.2450 -0.5956
14727W        W30988   9.826  17.452  11.811  0.0741 -0.3941  0.1396
14728W        W30989  15.964  11.887  10.519 -0.2710  0.1277 -0.2572
14729W        W30990   2.958  13.225   3.313  0.0911 -0.1084  0.0175
14730W        W30991   4.969  19.209  14.158  0.0859 -0.4137 -0.1360
14731W        W30992   7.711   9.502   3.218 -0.0545  0.0051 -0.0818
14732W        W30993   7.728  11.790  10.956 -0.0235  0.3728 -0.1464
14733W        W30994  11.878  14.215  10.494  0.5100  0.2119 -0.1956
14734W        W30995   0.367   2.525  12.611 -0.3854 -0.0218 -0.1534
14735W        W30996  12.441   2.004   4.906  0.0863 -0.1720 -0.0732
14736W        W30997  14.918   0.346   3.435 -0.0972 -0.1504 -0.0290
14737W        W30998   7.837  18.105   5.569 -0.0159  0.3242  0.0590
14738W        W30999  15.217  16.010   1.668 -0.1687  0.1889  0.0334
14739W        W31000   4.432   5.291  13.786  0.2734 -0.1255  0.3473
14740W        W31001   3.002   8.190   2.249 -0.1182 -0.2363 -0.0682
14741W        W31002  12.734   7.377   2.579 -0.2263 -0.0475 -0.4545
14742W        W31003  11.817  11.148  13.342 -0.1178  0.4231 -0.2541
14743W        W31004   4.039  15.263   5.093 -0.3053 -0.1732 -0.0837
14744W        W31005   6.593   4.946   2.056  0.0241 -0.0429  0.0307
14745W        W31006   9.834  17.928  13.110  0.0228 -0.0886 -0.0856
14746W        W31007   7.100  10.334   4.220 -0.2289 -0.1701  0.0124
14747W        W31008   8.257  12.895   3.257 -0.0810 -0.4004  0.2218
14748W        W31009   9.504  17.822   1.612  0.0695 -0.4411 -0.0505
14749W        W31010  10.958   8.053   4.015  0.0495  0.0315 -0.1478
14750W        W31011  18.790   9.310   4.446  0.3068 -0.2121  0.0645
14751W        W31012   3.892  10.944   2.122 -0.0825 -0.0553  0.0983
14752W        W31013  10.286  18.223  13.895  0.0512 -0.2706  0.3477
14753W        W31014  10.941   6.023  13.289 -0.0555  0.0579 -0.0609
14754W        W31015   6.862   3.219   5.566  0.5992  0.1107 -0.1846
14755W        W31016  10.898   0.234   1.920 -0.1826  0.1479 -0.2471
14756W        W31017   5.845  13.386   1.374 -0.0369 -0.1963  0.1159
14757W        W31018   7.670  10.644   1.241  0.0212 -0.0573 -0.1890
14758W        W31019  11.886  15.774   1.657  0.0888  0.4441 -0.1096
14759W        W31020   8.559  11.034   2.553  0.0864 -0.2073  0.4922
14760W        W31021  15.115   6.709  14.874  0.2514 -0.2183 -0.0134
14761W        W31022  10.036   5.710   0.882 -0.2868  0.2374  0.1237
14762W        W31023   5.481  10.174   1.112 -0.2035  0.3272 -0.2451
14763W        W31024  17.150   8.190  13.752  0.1043  0.1730  0.1744
14764W        W31025   7.504  16.997   2.601 -0.0442 -0.0437 -0.3845
14765W        W31026  13.729   0.815  14.656  0.3909  0.1369  0.1054
14766W        W31027  12.264   9.795   2.755 -0.2778  0.4047 -0.4597
14767W        W31028   8.054   9.452   3.694  0.1712 -0.1077 -0.0344
14768W        W31029  12.181  17.394   1.909 -0.4110  0.1287  0.0012
14769W        W31030   8.696   2.358   0.621  0.0509 -0.0396  0.0820
14770W        W31031   9.600   1.281  12.458  0.1724  0.1875 -0.1298
14771W        W31032   2.157  17.628   0.655 -0.1666  0.2183 -0.1096
14772W        W31033   1.671  11.063  13.816 -0.2354 -0.0576  0.1819
14773W        W31034  14.663   8.330   3.023  0.2170  0.0941  0.0885
14774W        W31035  12.866   7.823  13.248 -0.3665 -0.1128  0.0003
14775W        W31036   1.057   7.019   1.448 -0.0731 -0.0507  0.1305
14776W        W31037  15.734   3.593   5.089  0.0992  0.1145  0.3835
14777W        W31038   2.161  16.399  14.415 -0.1760 -0.4520  0.1984
14778W        W31039   2.474   1.810   0.733 -0.1086 -0.1247 -0.2263
14779W        W31040  17.618  14.022  14.739  0.1399 -0.2010  0.1737
14780W        W31041  10.836  10.478  13.461  0.0103  0.0952  0.1154
14781W        W31042  16.625   1.026   5.849  0.1555 -0.0568 -0.1621
14782W        W31043   8.554   3.136   0.647  0.1874  0.2047 -0.0249
14783W        W31044   1.288  10.759   2.998  0.0360  0.0787  0.0290
14784W        W31045   6.446   6.767  11.203  0.2568  0.0916 -0.0884
14785W        W31046  17.129  15.274  14.277  0.0140 -0.1531  0.0757
14786W        W31047  11.095   7.559   3.109  0.0166  0.1500  0.2471
14787W        W31048   9.072  15.387  10.833 -0.3410  0.1282 -0.1826
14788W        W31049  14.424  12.622  12.372  0.0770 -0.2224 -0.1328
14789W        W31050   2.405   6.416  10.947  0.0100  0.2485  0.2340
14790W        W31051   5.276  13.146   5.245  0.0948 -0.4322  0.0371
14791W        W31052   0.687  12.080   1.524 -0.2374  0.3257  0.1666
14792W        W31053  16.564   8.494   4.169  0.3532  0.0866  0.2768
14793W        W31054  10.572  15.256   3.351  0.0736 -0.3896  0.2657
14794W        W31055  13.530   4.741   3.727  0.0769 -0.2197  0.1455
14795W        W31056   5.920   9.095  11.360 -0.0449 -0.0706 -0.1873
14796W        W31057   1.192   9.595  11.695  0.1788 -0.0779  0.1361
14797W        W31058   8.118   1.815   2.762 -0.0369  0.1536 -0.4136
14798W        W31059  12.025  16.261  12.997  0.0318 -0.0579  0.0445
14799W        W31060  17.951   0.816  12.105 -0.0959  0.0676  0.1231
14800W        W31061   0.043   3.090   1.690  0.0960 -0.3275  0.1779
14801W        W31062   1.422   7.803   1.422 -0.2578 -0.2357  0.0399
14802W        W31063  14.169  11.746   0.496 -0.1877  0.0552 -0.2089
14803W        W31064   0.411   4.825   1.518  0.3845 -0.1881  0.1689
14804W        W31065  12.662  18.960   0.057  0.1991  0.1253 -0.0514
14805W        W31066  17.082  12.710  10.356 -0.1228 -0.0431 -0.0579
14806W        W31067  13.555  18.855  13.403  0.0453  0.1215 -0.3061
14807W        W31068   6.687  12.821   2.458  0.0897 -0.0530  0.0890
14808W        W31069   6.431   6.787   3.648  0.1396 -0.2074 -0.1702
14809W        W31070   0.005  11.809  10.918 -0.2497  0.0737  0.2332
14810W        W31071  12.464  12.310   3.569 -0.1547  0.0588  0.2813
14811W        W31072  14.788   3.292   4.577  0.0127  0.1037 -0.0107
14812W        W31073   9.003   4.238  12.582  0.0144  0.0716 -0.0934
14813W        W31074   6.743   4.289   5.269  0.0492  0.1113 -0.1968
14814W        W31075   8.392  17.574   2.042  0.1135 -0.1236 -0.0100
14815W        W31076  16.611  14.441   3.508 -0.1335 -0.2163 -0.0950
14816W        W31077  10.899  11.774  11.452  0.0650  0.3961  0.2991
14817W        W31078  15.700   9.572   4.579 -0.0174 -0.4254  0.0866
14818W        W31079   3.027  13.525   2.876 -0.2205  0.1332  0.2183
14819W        W31080   7.412   0.329  14.674 -0.3136  0.1745  0.4096
14820W        W31081  15.288  15.064   5.053  0.2527 -0.2247 -0.0213
14821W        W31082   4.797   1.630  13.639 -0.0348 -0.1237  0.2243
14822W        W31083  18.810  14.105  11.006 -0.2238 -0.1677 -0.3300
14823W        W31084   0.256   2.962  14.540  0.1923  0.0452 -0.0192
14824W        W31085  14.269   1.987  11.844  0.1603  0.1634  0.1255
14825W        W31086   9.719  12.896  11.899  0.1084  0.1091 -0.2667
14826W        W31087   8.808   8.245  12.298 -0.1153 -0.2467 -0.0080
14827W        W31088   4.266   6.798   1.656  0.0272  0.0666  0.1120
14828W        W31089  16.402   1.699  14.354  0.0392 -0.3366 -0.3930
14829W        W31090   6.499  11.556   3.228 -0.3926 -0.1288 -0.1344
14830W        W31091   8.654  13.759   3.667  0.0251 -0.3352 -0.0138
14831W        W31092   3.723  16.776  13.405  0.0785 -0.0940 -0.0422
14832W        W31093  15.327  18.984  13.034  0.0467  0.2406 -0.2966
14833W        W31094  14.383  16.468   4.140 -0.0810 -0.0244 -0.0315
14834W        W31095   3.728  18.120   0.601  0.3223  0.1912 -0.6391
14835W        W31096   6.583   6.818   2.187 -0.0612  0.0304 -0.0718
14836W        W31097   8.570  11.543  13.164  0.1339  0.0109 -0.1023
14837W        W31098  19.431  16.107   3.223 -0.0658 -0.4520 -0.1801
14838W        W31099  12.691   1.404  10.099 -0.1037 -0.2704  0.3844
14839W        W31100  11.645  19.208  10.703  0.1906  0.2316 -0.0123
14840W        W31101   0.237  18.999  12.034 -0.3342 -0.4368  0.4717
14841W        W31102  18.945   7.483  13.438  0.0894  0.0563  0.1133
14842W        W31103   0.257   6.968   0.059 -0.0249 -0.2864 -0.2497
14843W        W31104   8.766  14.691  11.126  0.1740 -0.2073  0.4429
14844W        W31105  15.532   1.481  10.738 -0.1309 -0.1749 -0.0942
14845W        W31106  13.436  15.867  11.627  0.0955  0.0500  0.0037
14846W        W31107   5.401  19.308  11.341  0.2494 -0.0489  0.2309
14847W        W31108  11.150  10.946   2.340  0.2047 -0.1138  0.0479
14848W        W31109  10.638   3.469   4.235 -0.1093 -0.1104 -0.0408
14849W        W31110  14.468  17.093   0.717  0.3077 -0.1706 -0.2449
14850W        W31111   2.325   7.883  12.735  0.3001 -0.0007  0.1844
14851W        W31112   1.798   3.793   1.630  0.1498  0.1358  0.1260
14852W        W31113  16.606   7.315   4.781 -0.1617 -0.0913 -0.5725
14853W        W31114   2.052  19.439   0.765 -0.4658 -0.4029  0.1695
14854W        W31115  11.553  10.855  12.323  0.2119  0.3395 -0.0049
14855W        W31116  18.340  18.476   1.325 -0.0874  0.0966  0.1689
14856W        W31117   4.468   3.381   4.668  0.0545 -0.2738  0.0243
14857W        W31118   0.168  15.454  14.036  0.3198 -0.1917  0.2543
14858W        W31119  10.289  11.115   1.394 -0.3041 -0.0349 -0.1063
14859W        W31120  11.280   6.997   3.743 -0.2640  0.4619 -0.1750
14860W        W31121  10.484   2.127   2.082  0.1701  0.1482 -0.1217
14861W        W31122   5.965  11.121  13.785  0.0154 -0.2459 -0.0618
14862W        W31123   8.973  11.570  14.870  0.1982 -0.0337 -0.0867
14863W        W31124   8.647  10.853   3.862  0.1263 -0.1715  0.0284
14864W        W31125  15.771   4.268   1.098 -0.0703  0.2567 -0.1140
14865W        W31126   1.982   5.439   3.383 -0.2416  0.1113  0.0206
14866W        W31127  12.310   7.358   5.056  0.0158 -0.2366 -0.0536
14867W        W31128  13.412  10.434  12.303  0.0635  0.0524 -0.4277
14868W        W31129   6.275  16.847   0.588 -0.1211  0.1028  0.0256
14869W        W31130   0.017  12.268  10.026  0.1110  0.1437 -0.0543
14870W        W31131   8.889   1.015  14.205 -0.0491 -0.1378 -0.2208
14871W        W31132  18.472  13.371   0.289 -0.0948  0.2203 -0.1664
14872W        W31133  10.089   3.165  14.546 -0.1381  0.1388 -0.0321
14873W        W31134  10.633   6.285  11.622  0.2604 -0.0208  0.1705
14874W        W31135  12.920  15.912  10.889  0.0085 -0.1504 -0.2684
14875W        W31136   4.742  15.376   2.461  0.0586  0.1277 -0.2748
14876W        W31137   1.669  17.864   9.894 -0.1615  0.4796  0.1158
14877W        W31138  16.416  14.668   0.847  0.0786 -0.0408 -0.0687
14878W        W31139  12.097  14.353  11.025 -0.2518  0.2196  0.0951
14879W        W31140  14.145  15.303  13.821  0.0493  0.2479  0.2127
14880W        W31141   7.882  17.218  13.956  0.0650  0.4774  0.1220
14881W        W31142   1.979   3.409   5.112 -0.1889 -0.1807 -0.2547
14882W        W31143   3.759  14.653   0.229 -0.0057  0.0896 -0.1279
14883W        W31144  12.508   0.003  13.674  0.2016 -0.1262 -0.0674
14884W        W31145  15.021  17.500  11.978  0.0591  0.0884  0.0910
14885W        W31146   8.965  19.077   2.062 -0.1214 -0.0352 -0.0995
14886W        W31147  11.847  10.527   0.806  0.2578  0.1379 -0.1077
14887W        W31148  12.443   9.060  11.214  0.3084 -0.0435 -0.0911
14888W        W31149   3.303   1.669   1.919 -0.3233  0.1029  0.0343
14889W        W31150   6.116   4.517  14.688  0.1063  0.0092 -0.1543
14890W        W31151   6.886  18.577   2.691  0.2454  0.3852 -0.0113
14891W        W31152  13.257  13.470  11.165  0.4774 -0.2416  0.0303
14892W        W31153   9.946   7.263  10.848  0.3376  0.0548 -0.0640
14893W        W31154  17.474  13.481  14.720 -0.1308 -0.1118 -0.0552
14894W        W31155   4.307   2.560   4.347 -0.1480 -0.0617  0.1717
14895W        W31156  19.329   6.411   3.857 -0.1030 -0.1822 -0.1246
14896W        W31157   8.453   0.825   0.518 -0.1769  0.0945 -0.0106
14897W        W31158  15.164  10.125  12.197 -0.6026 -0.0668 -0.0335
14898W        W31159  14.063  10.697  12.644  0.2124  0.1450 -0.2534
14899W        W31160   3.960  19.194   5.887  0.1493 -0.0178 -0.3215
14900W        W31161  17.175   6.726  11.839 -0.0475  0.2683 -0.0836
14901W        W31162   9.520   9.799  13.126  0.3945 -0.2884  0.0683
14902W        W31163  10.433   0.233  14.290  0.4830 -0.1538  0.2173
14903W        W31164   6.375  13.099  13.270 -0.3618  0.3401 -0.0142
14904W        W31165   8.787   0.052   0.960 -0.0897  0.3101  0.0488
14905W        W31166   4.540   7.392   1.969 -0.3106  0.2998 -0.3086
14906W        W31167  13.374  16.562  10.069  0.0743 -0.2708  0.0317
14907W        W31168  15.981  16.000   2.857 -0.2943 -0.0336 -0.2285
14908W        W31169   4.509  16.673   1.319 -0.2719 -0.2028 -0.4921
14909W        W31170   2.333  18.156   1.233  0.0140  0.2805  0.1175
14910W        W31171   6.549  16.991  10.206  0.4893 -0.0245 -0.1904
14911W        W31172  13.061  15.343  10.923  0.0737 -0.1462 -0.4266
14912W        W31173  17.570  10.662   4.086  0.1795 -0.1156  0.4484
14913W        W31174   0.003   2.782  13.073  0.3943 -0.0621  0.0860
14914W        W31175   4.004  15.402   0.306  0.1041  0.0763 -0.0556
14915W        W31176  10.048  16.228   2.949 -0.0274  0.0477 -0.0101
14916W        W31177   8.001  17.495   2.545 -0.1186  0.2521  0.1556
14917W        W31178  16.041  12.143  11.502  0.2275  0.2271 -0.1504
14918W        W31179  16.328  16.911   3.730  0.0007  0.4405  0.3418
14919W        W31180  11.089   9.345  12.179 -0.1122 -0.0662 -0.2722
14920W        W31181   4.498  12.556  11.846  0.4157 -0.4234 -0.4146
14921W        W31182   4.750   3.225  12.388  0.0134  0.2098 -0.0679
14922W        W31183  12.472  16.598   9.875  0.1175 -0.0314  0.3203
14923W        W31184   0.588  17.876   0.415  0.3898  0.0166 -0.0750
14924W        W31185  19.242   9.083  10.450  0.0037 -0.0747 -0.0969
14925W        W31186   4.826  15.912   5.138 -0.0160 -0.3947 -0.1665
14926W        W31187   6.171   7.789  13.702  0.3555  0.0482  0.0684
14927W        W31188   6.355   1.166  12.202  0.3505  0.0487  0.2107
14928W        W31189  14.417  13.957   4.504  0.2487 -0.2785  0.0461
14929W        W31190  13.252   5.249  11.272 -0.0533  0.0997  0.0594
14930W        W31191   9.624   4.648   3.285 -0.1017  0.0651  0.0621
14931W        W31192   7.998  12.205   4.002 -0.0272 -0.1660 -0.2484
14932W        W31193   8.334   9.661   0.873  0.0762 -0.1119  0.4339
14933W        W31194   5.493  10.077  14.854  0.1073  0.2147 -0.2526
14934W        W31195  16.763   3.543  11.348 -0.1727 -0.3971  0.0901
14935W        W31196  17.402   1.820   4.982 -0.1790  0.1170  0.2576
14936W        W31197  10.114  19.373   4.578  0.2427 -0.0726 -0.0545
14937W        W31198  12.653  11.306   3.530  0.0745 -0.0773 -0.0521
14938W        W31199   5.402   8.684   1.523  0.0316 -0.1535 -0.0315
14939W        W31200   8.461   4.049  13.335 -0.1799 -0.0631  0.2680
14940W        W31201   0.092  10.033  12.110 -0.0406  0.0102  0.0546
14941W        W31202  14.775  11.699   3.925  0.1073  0.0825 -0.2068
14942W        W31203  10.830  12.470  12.951  0.1268  0.3471  0.1732
14943W        W31204   7.643  18.497  14.748  0.3064 -0.1956  0.0301
14944W        W31205   8.923  18.083   4.716  0.0630 -0.1057 -0.1130
14945W        W31206   2.802   6.541   6.174 -0.1987  0.0400  0.0445
14946W        W31207  15.011   0.812   2.134 -0.1035  0.2117 -0.1655
14947W        W31208  17.228   0.538   4.688  0.2505  0.0335  0.3448
14948W        W31209  17.524   7.439   1.064  0.0653 -0.2848 -0.0542
14949W        W31210  15.640  17.542  14.269 -0.1173 -0.1988 -0.1476
14950W        W31211   3.144  19.237   4.446  0.0399 -0.0125 -0.0552
14951W        W31212  14.009  12.507  11.490  0.2720  0.0183  0.1889
14952W        W31213  14.742   2.513   1.534  0.0816  0.1942  0.0696
14953W        W31214   5.419   1.926   1.010 -0.0280 -0.0325  0.2249
14954W        W31215  12.455   3.504  11.562  0.2774 -0.1070  0.3267
14955W        W31216  16.390  12.559   0.179  0.0107  0.0237  0.1733
14956W        W31217  12.076  19.182   2.999 -0.0285 -0.1285 -0.3010
14957W        W31218  13.345  11.944  14.297  0.1317 -0.0591 -0.2547
14958W        W31219   3.170   9.870  10.308  0.1588  0.2927 -0.0987
14959W        W31220   7.472   7.410   2.951 -0.0720  0.3634 -0.3455
14960W        W31221  16.227  10.192   2.157  0.2774  0.2353  0.2518
14961W        W31222   1.181  18.992  11.764  0.3569  0.0815  0.1035
14962W        W31223   6.636   1.106   0.693  0.2831 -0.1037 -0.3250
14963W        W31224   2.913   2.496   3.605 -0.1846  0.0607  0.4209
14964W        W31225   3.651   6.733   5.209 -0.1244 -0.3068 -0.1986
14965W        W31226   5.022  10.164  14.694  0.0162  0.3281  0.0829
14966W        W31227  18.157  16.824   2.871 -0.2190 -0.1192 -0.0527
14967W        W31228   5.193   7.227  13.869  0.0321 -0.0358 -0.0638
14968W        W31229  12.264   1.820   3.701  0.0812 -0.1667  0.0868
14969W        W31230   5.497  10.682  10.663 -0.0073  0.2571  0.1008
14970W        W31231  15.960  10.321  11.600 -0.2402 -0.2586  0.0850
14971W        W31232   9.858   1.638  11.924  0.1367  0.0047  0.4445
14972W        W31233   7.773  13.702   5.147 -0.1884  0.1170 -0.2864
14973W        W31234  17.258   4.034  13.255  0.0429  0.4979 -0.1312
14974W        W31235   1.635  17.795   2.506  0.0361 -0.0430 -0.2467
14975W        W31236   5.610   4.326   0.956 -0.1832 -0.0877  0.0421
14976W        W31237  12.715   6.910  11.336  0.0491 -0.1078 -0.3949
14977W        W31238  12.510  16.714  11.177 -0.0415 -0.0889  0.1904
14978W        W31239   7.401  16.589   3.657 -0.0596 -0.2098  0.0227
14979W        W31240   3.447   3.421  13.705 -0.1386 -0.2451  0.1765
14980W        W31241  16.149  16.861  10.856  0.0316 -0.5165 -0.1262
14981W        W31242  10.703  17.028  12.176 -0.0075 -0.1190  0.1180
14982W        W31243   0.565   4.982   0.778 -0.1230 -0.0924 -0.5754
14983W        W31244  16.291  12.289   1.920  0.1157  0.3429 -0.4108
14984W        W31245   1.596  12.808   1.049  0.0010 -0.4073  0.1803
14985W        W31246  16.005  10.850  13.285 -0.0013  0.2218  0.1710
14986W        W31247   9.477  10.437   5.054  0.2567 -0.3796 -0.2865
14987W        W31248   9.484   1.779   5.086  0.3692 -0.2172  0.0803
14988W        W31249  12.988  12.243   2.371 -0.2192  0.1577 -0.1531
14989W        W31250   4.864  10.827  12.608  0.2078 -0.1689 -0.0284
14990W        W31251  12.455  17.232   3.249 -0.1776 -0.0845  0.2296
14991W        W31252   5.181   9.766   2.301 -0.0113 -0.3799  0.2433
14992W        W31253   2.577   6.642   0.979 -0.3773  0.1348  0.3018
14993W        W31254   9.724  11.225   1.303  0.1438 -0.2544  0.1079
14994W        W31255  15.614   4.711   1.704 -0.2003  0.0099 -0.1042
14995W        W31256  16.619   7.807  14.349 -0.1466  0.0388  0.0405
14996W        W31257  17.604  17.168  14.745  0.0466  0.3755  0.0227
14997W        W31258   3.476  15.204   1.014  0.0675 -0.0308  0.3089
14998W        W31259   9.931   7.599  11.737  0.0386  0.0010  0.0838
14999W        W31260  16.207   3.976  14.203  0.1077  0.1003 -0.0785
15000W        W31261  16.432  13.635   0.753 -0.0974  0.3263  0.2298
15001W        W31262  18.166   8.850   9.872  0.2060 -0.1949 -0.2689
15002W        W31263  18.327  10.374   4.714  0.0228 -0.1431 -0.2703
15003W        W31264  18.282  14.607   4.498 -0.0578  0.1242 -0.0588
15004W        W31265  10.984  12.943   3.390 -0.1968  0.1207  0.0292
15005W        W31266   3.752  17.144  11.211  0.1320 -0.0200  0.1662
15006W        W31267   5.642  18.075  13.378  0.1208 -0.1282  0.2464
15007W        W31268  10.185  13.140  11.125 -0.1953 -0.1136 -0.2188
15008W        W31269  11.431   5.860  12.117  0.5872 -0.1112  0.0930
15009W        W31270   2.527  18.707   6.052  0.0266  0.0858 -0.2532
15010W        W31271   2.031  11.182   1.073  0.0471  0.0365 -0.0402
15011W        W31272   5.204   8.862   2.778 -0.1420 -0.0257 -0.0799
15012W        W31273  16.045  18.436   4.245  0.0333 -0.1526 -0.1196
15013W        W31274  16.598  16.473   4.842 -0.1678  0.0240 -0.0572
15014W        W31275  11.189  16.007  13.670 -0.0867  0.0035 -0.1801
15015W        W31276   5.294  13.973  12.831 -0.0513  0.2507  0.0581
15016W        W31277  14.554  14.636  14.561 -0.3373  0.0991  0.1420
15017W        W31278   2.832  18.826   1.737  0.2727 -0.0412 -0.1974
15018W        W31279  17.530   9.675  11.174  0.0276 -0.1361  0.3152
15019W        W31280  12.170   2.917  11.036  0.1116  0.0085 -0.0527
15020W        W31281   3.275  14.560   3.734 -0.0109 -0.1278  0.0852
15021W        W31282  11.658   4.869  11.703  0.0885  0.1688 -0.0537
15022W        W31283   2.495   9.056   5.308  0.0457 -0.2001 -0.1432
15023W        W31284   5.197   1.812  13.989 -0.1161 -0.1982  0.1772
15024W        W31285   9.867   6.422  13.842  0.5023 -0.0571  0.1552
15025W        W31286  16.385  18.718  14.087 -0.2414 -0.0810 -0.0112
15026W        W31287  16.205   1.065  14.291  0.2207  0.1895 -0.1315
15027W        W31288  18.895  16.079   4.745  0.0465 -0.1176 -0.0229
15028W        W31289  12.599   1.963   3.983 -0.0061  0.0399  0.0994
15029W        W31290   8.199  10.328   4.116  0.0874 -0.1504  0.0045
15030W        W31291  13.960   2.451   3.259  0.4821 -0.1226  0.0527
15031W        W31292   6.903  14.126   3.949  0.0270  0.0780 -0.1266
15032W        W31293  14.363  12.424   4.715 -0.3324 -0.0448 -0.1906
15033W        W31294  19.339  16.389  12.293  0.2104  0.2435  0.2204
15034W        W31295   4.854   1.536   1.692  0.2155  0.0002 -0.0877
15035W        W31296   2.475   9.126   2.473 -0.0721  0.1824 -0.2491
15036W        W31297  12.196  17.357  13.806 -0.0902 -0.1554 -0.0605
15037W        W31298   7.341   0.205   2.727 -0.0316  0.1670  0.1363
15038W        W31299   2.454  12.909  11.271 -0.2344 -0.0626  0.0199
15039W        W31300   4.752   1.491   4.478  0.2394  0.0302 -0.2378
15040W        W31301  11.709   6.956   5.487  0.1844  0.0340  0.0331
15041W        W31302   6.144  17.034   2.515 -0.0491 -0.2269 -0.2657
15042W        W31303  12.025   9.688   0.916 -0.2744  0.1866  0.0751
15043W        W31304  11.702  13.670  11.658 -0.1583  0.2820 -0.0910
15044W        W31305   8.520  15.554  12.368  0.1425  0.0321  0.0477
15045W        W31306   2.772   9.089   3.490 -0.1723  0.2342  0.0841
15046W        W31307  17.760  16.123   1.434 -0.2097  0.1735  0.0323
15047W        W31308   1.120  16.060  11.111  0.1683  0.2515 -0.1255
15048W        W31309  13.470   5.314   1.289  0.1776 -0.3028  0.0722
15049W        W31310   9.793  18.545   3.259  0.3671 -0.0954 -0.1387
15050W        W31311   6.868   6.728   0.238  0.1227  0.2802  0.0913
15051W        W31312  14.269   3.169  14.878  0.1410 -0.0678  0.4350
15052W        W31313  15.850   7.475   1.528 -0.1411 -0.1888  0.3506
15053W        W31314  18.045  18.485  10.308  0.1291 -0.1101 -0.0718
15054W        W31315  10.715  18.608   3.175  0.1333 -0.1959 -0.1565
15055W        W31316   2.688  18.355   1.609  0.0729 -0.0079 -0.0106
15056W        W31317   2.879  15.201  10.302  0.0142 -0.0534  0.2671
15057W        W31318   7.445  13.544   4.455  0.3494 -0.2854 -0.1958
15058W        W31319  13.182   9.620  11.912  0.1380  0.0655 -0.1175
15059W        W31320   4.661   3.297  14.241 -0.1302  0.0783 -0.0666
15060W        W31321   5.254  17.249  12.163  0.2576  0.0308  0.0130
15061W        W31322  13.564  18.715  11.669 -0.1715  0.3077 -0.2869
15062W        W31323   4.042   0.107   2.568  0.1627  0.1423 -0.1455
15063W        W31324  15.104   1.618   3.717  0.0191  0.2667 -0.1303
15064W        W31325   5.175   4.662  14.622  0.1820  0.2058  0.0658
15065W        W31326  14.214   1.041  14.604 -0.1485  0.4025  0.0399
15066W        W31327  16.353   8.523   1.879  0.1232 -0.2715  0.1196
15067W        W31328   3.473   7.644   4.901 -0.2542  0.4468  0.0776
15068W        W31329  18.310  14.867  11.049 -0.1549  0.1550  0.1526
15069W        W31330   4.908   2.845  14.070  0.5530 -0.1542 -0.0217
15070W        W31331   3.491   2.984   2.410 -0.0444  0.0805 -0.0784
15071W        W31332  16.775   9.226   1.395  0.0567  0.2182 -0.0386
15072W        W31333   3.736  12.228   3.437  0.1103 -0.2108 -0.1100
15073W        W31334  19.002  12.703   3.893 -0.0761 -0.1294  0.1190
15074W        W31335   7.527  13.429   3.552 -0.2381 -0.0142  0.4126
15075W        W31336   2.006   1.685  11.567 -0.0526  0.0610 -0.2034
15076W        W31337  16.023  10.782  12.206  0.0259 -0.1293 -0.2802
15077W        W31338   5.444  15.870   4.037 -0.2355 -0.0253 -0.1107
15078W        W31339  12.157   0.575   0.299 -0.0796 -0.0578  0.7699
15079W        W31340   3.500   3.391  14.376  0.2247 -0.1851  0.1580
15080W        W31341  12.381  14.419   9.807  0.2169  0.1614 -0.1508
15081W        W31342   2.900   7.012  11.457  0.2753  0.4063 -0.3377
15082W        W31343  15.194  17.537   0.068 -0.0988  0.0303  0.1188
15083W        W31344   2.455  17.465   4.141 -0.0574 -0.1193  0.2946
15084W        W31345  14.123  13.622   9.554  0.1512 -0.0958 -0.1324
15085W        W31346  15.827   9.254  11.687  0.2596 -0.3591 -0.0093
15086W        W31347   4.089  16.348   1.392 -0.1070  0.0728 -0.2093
15087W        W31348   9.048  17.550   0.754 -0.0355 -0.0712  0.1101
15088W        W31349   2.237  14.724   2.938 -0.1035  0.2551 -0.1634
15089W        W31350  18.679  16.053  12.051 -0.3083 -0.0424 -0.2388
15090W        W31351  13.471  12.485  12.619 -0.0948 -0.4819  0.1341
15091W        W31352  12.367   3.786   5.283  0.3265 -0.0338 -0.2834
15092W        W31353  16.292  11.031  14.020 -0.1289 -0.0368 -0.1210
15093W        W31354   1.777   3.928  10.807 -0.1992  0.1112 -0.0135
15094W        W31355  12.957  10.042   3.981 -0.0813  0.4017 -0.0400
15095W        W31356   2.919   4.910   6.137 -0.2306 -0.0650 -0.0266
15096W        W31357  17.823   0.952  12.559  0.0608  0.1211  0.0201
15097W        W31358   1.084   8.052   2.214  0.1560 -0.0430  0.1492
15098W        W31359   6.409   7.567  14.078 -0.0263  0.5116 -0.5889
15099W        W31360  14.144   0.563   2.725  0.0821 -0.2920  0.1622
15100W        W31361  13.248   0.308   4.842 -0.1142 -0.1425  0.1188
15101W        W31362   3.997   8.678  14.820  0.0025 -0.1283  0.0894
15102W        W31363   3.797  10.712  13.440 -0.1008  0.1122  0.1708
15103W        W31364  12.042   1.299  11.296  0.1419  0.2428  0.0796
15104W        W31365  13.772  18.629   5.380 -0.1725 -0.0724  0.2339
15105W        W31366  17.078   0.519  10.947  0.1990 -0.1739  0.2887
15106W        W31367   8.005  16.212   4.745 -0.3382  0.2497 -0.2460
15107W        W31368  16.802   6.272   3.634  0.1239 -0.1513  0.0864
15108W        W31369   8.542   0.188   4.108 -0.4146  0.1471 -0.0535
15109W        W31370   4.300   0.547   0.912 -0.0633  0.0854  0.3345
15110W        W31371  16.102   3.787  13.675 -0.2373 -0.1961  0.0827
15111W        W31372  17.187  13.513   0.993  0.0222 -0.2582  0.4498
15112W        W31373  16.143  17.798   1.572  0.1629 -0.2076  0.0962
15113W        W31374  18.461  18.563  11.093 -0.0451 -0.2995 -0.0683
15114W        W31375  10.032   6.118  14.735  0.0273  0.1102 -0.0326
15115W        W31376  16.407   5.906   3.663  0.3453 -0.2539  0.0326
15116W        W31377  17.714   4.594  11.512  0.1584  0.0676 -0.1764
15117W        W31378   1.199   5.013   0.114  0.1168  0.0427 -0.1827
15118W        W31379   5.716  19.081  14.140 -0.0531  0.2806  0.0438
15119W        W31380  18.224   0.838   3.630 -0.1256  0.0504  0.1904
15120W        W31381   2.893  10.086  14.077  0.1431 -0.0834 -0.0182
15121W        W31382  12.487  17.887   2.564  0.0988  0.4131 -0.0874
15122W        W31383  12.977  18.687  13.131  0.0623 -0.1307  0.0985
15123W        W31384  17.118  16.288   2.822 -0.3849 -0.4929 -0.0922
15124W        W31385   7.259  10.465   5.156  0.2844  0.4221 -0.0743
15125W        W31386  11.685  17.861   4.526  0.3657  0.2137  0.0813
15126W        W31387  11.917   3.830  11.843 -0.2046 -0.5358 -0.2154
15127W        W31388  11.580  17.421  10.078 -0.4683  0.0422 -0.2632
15128W        W31389  18.573  16.196  13.538  0.0233  0.4362  0.1248
15129W        W31390   2.608  14.647  12.944 -0.0306 -0.2199  0.2332
15130W        W31391  14.554  11.534   2.684 -0.1771 -0.1031  0.1557
15131W        W31392   7.830  16.221   3.292 -0.1336 -0.0699 -0.1835
15132W        W31393   8.228  15.633  11.927  0.1730  0.3605 -0.2592
15133W        W31394  17.857  13.732  14.222  0.3228  0.1048 -0.1263
15134W        W31395   7.984   5.123   0.088  0.0905  0.0799  0.0994
15135W        W31396  17.752  17.897  14.062 -0.1458  0.0026  0.1730
15136W        W31397  15.803   8.963  14.238 -0.2640  0.2414  0.1107
15137W        W31398  12.629  10.551  13.930 -0.2404 -0.1185 -0.0973
15138W        W31399   4.946   3.577  13.507 -0.1147 -0.3633  0.0494
15139W        W31400   6.490   4.849  14.692  0.0968 -0.0829 -0.0368
15140W        W31401   8.462  16.371  13.643 -0.0133 -0.0596  0.2117
15141W        W31402   0.696   1.050   1.343  0.1436  0.2266 -0.2958
15142W        W31403  15.987  18.086   1.237  0.1718 -0.0996  0.0364
15143W        W31404   5.821   4.187  14.293 -0.1054 -0.1270  0.0297
15144W        W31405   6.124   8.924  12.070 -0.3453  0.0365 -0.0621
15145W        W31406  12.762  17.110   5.221  0.1997  0.0748 -0.2457
15146W        W31407   7.024   2.241   4.566  0.1696  0.3621 -0.1023
15147W        W31408  13.085   6.164   5.027 -0.0834  0.2588  0.1898
15148W        W31409   0.446   8.165   2.911 -0.0388 -0.1003  0.1708
15149W        W31410  12.210  17.320  12.176  0.2317 -0.3038  0.0105
15150W        W31411  16.876   1.212  11.467  0.0701 -0.1471 -0.1746
15151W        W31412   5.734   0.651  11.279 -0.1627 -0.1032 -0.0281
15152W        W31413   8.236   3.384  10.334 -0.0520 -0.1732 -0.0993
15153W        W31414  14.392  18.548   1.290  0.1374  0.3711  0.1647
15154W        W31415   1.591  14.834   2.575 -0.0645  0.2507 -0.0196
15155W        W31416   8.726   0.596  12.064  0.4085 -0.0347 -0.1194
15156W        W31417  10.718  12.619  10.488  0.0909 -0.1340  0.0813
15157W        W31418  11.449   0.906  11.505 -0.1219 -0.0352 -0.0348
15158W        W31419  13.233   4.287  11.979  0.0044 -0.2010  0.2165
15159W        W31420  14.353  15.774   2.691  0.0627 -0.1725  0.1658
15160W        W31421   4.337  10.762   3.211 -0.1487  0.0000  0.2240
15161W        W31422   6.107  15.930  14.107  0.1965 -0.1612  0.2337
15162W        W31423  18.505  13.804   0.071 -0.0763  0.2741  0.0951
15163W        W31424   6.618  17.271  14.817 -0.5967  0.2363 -0.3088
15164W        W31425   1.678  17.605  11.963 -0.0394  0.0893  0.0107
15165W        W31426  11.463   7.584  11.838  0.1777 -0.1233 -0.2360
15166W        W31427  15.569   6.598  10.466  0.0691  0.4152 -0.2414
15167W        W31428   1.421  11.569  10.879 -0.2983  0.1603 -0.0443
15168W        W31429  16.494   9.004   4.360  0.1156  0.0284  0.0504
15169W        W31430   2.826  10.817  10.560  0.2313 -0.2441 -0.3160
15170W        W31431   4.986  10.770  11.215 -0.1857  0.2820 -0.1459
15171W        W31432   4.042  15.074  14.816 -0.0387  0.0732  0.0768
15172W        W31433   4.236   9.119  10.016  0.0120 -0.2751 -0.0269
15173W        W31434   5.850  18.400  10.590 -0.0238  0.1817  0.3813
15174W        W31435   4.718   2.989   4.764 -0.0975  0.0048 -0.1913
15175W        W31436   1.329  12.805   2.677 -0.2835 -0.0024  0.0410
15176W        W31437  16.907   1.678   5.074  0.2263 -0.1199  0.0332
15177W        W31438   0.212   0.478   4.029  0.1533 -0.0850  0.0327
15178W        W31439  13.884   1.387  10.247  0.2129  0.1357  0.3108
15179W        W31440   0.734  13.232   4.163  0.0981  0.2979  0.2076
15180W        W31441  18.101  13.552   9.151  0.1829  0.1029  0.5548
15181W        W31442   1.087  13.619   4.125  0.0432  0.0713  0.0057
15182W        W31443   1.422   1.303  14.221 -0.0345 -0.2939  0.2705
15183W        W31444  16.953   9.297  12.792 -0.0843  0.1557 -0.3116
15184W        W31445  17.337   6.650  11.242  0.2204  0.1578  0.0470
15185W        W31446   6.282  13.462   3.646  0.0549 -0.0552 -0.1403
15186W        W31447  16.503   7.777   5.003 -0.2865 -0.3335 -0.1499
15187W        W31448   0.524  16.947  12.377  0.3213  0.5475  0.1144
15188W        W31449   8.193   7.414  13.325 -0.0770  0.0175 -0.2588
15189W        W31450  10.378  10.039   3.346  0.2088 -0.0984  0.1834
15190W        W31451  10.115  18.182   4.216 -0.0654 -0.2196  0.1109
15191W        W31452  15.362  12.061  12.020  0.0927 -0.3843  0.0248
15192W        W31453   0.553   3.992   4.416  0.0448 -0.0856 -0.1019
15193W        W31454  11.513   0.116  10.309 -0.3557  0.2988 -0.0396
15194W        W31455  12.067  16.175  12.378  0.0638 -0.1092 -0.2222
15195W        W31456   2.595  16.262   3.576  0.2362  0.1039  0.0555
15196W        W31457  15.384  13.112  10.047 -0.1220  0.0445  0.1541
15197W        W31458  10.869  16.071   4.298  0.3848 -0.1283  0.1683
15198W        W31459   7.124   7.779   4.075  0.2122  0.4615 -0.1493
15199W        W31460   2.384   3.131   0.885  0.1725 -0.2249  0.0957
15200W        W31461   0.668  17.421   0.528 -0.3788 -0.2175 -0.0824
15201W        W31462   4.476  16.842   4.156  0.1852 -0.0629 -0.1124
15202W        W31463  12.836   6.444   2.695 -0.2473 -0.0453 -0.4215
15203W        W31464   2.355   2.774  14.158  0.0826 -0.1104 -0.0220
15204W        W31465  15.790   7.593   2.480 -0.0244 -0.3457  0.1890
15205W        W31466  16.596  17.375   3.566  0.0135  0.0411 -0.0994
15206W        W31467  12.312   6.680   2.890 -0.1162  0.3202  0.2646
15207W        W31468   9.487   9.816  11.387 -0.1579  0.0192 -0.1171
15208W        W31469   7.452   2.359   4.291 -0.0617 -0.0136 -0.0473
15209W        W31470  19.362   5.720  13.739 -0.0716 -0.2305 -0.0928
15210W        W31471   7.684   7.517  10.401 -0.1088 -0.0095  0.1642
15211W        W31472   3.469   1.598   0.555 -0.1015  0.0618 -0.0122
15212W        W31473  15.944   2.851  11.640  0.0883  0.0012  0.0475
15213W        W31474  13.913   9.835   0.018  0.1438 -0.1536  0.0131
15214W        W31475  16.471  10.920  12.954 -0.0275  0.2040 -0.1459
15215W        W31476  11.238  12.925  13.694 -0.0093 -0.1410  0.2664
15216W        W31477  14.545   2.009  10.569  0.0147 -0.2321 -0.1463
15217W        W31478   4.367   6.810   4.521 -0.1773 -0.0628  0.0094
15218W        W31479  18.849   3.583   4.808 -0.0666  0.4281  0.3074
15219W        W31480  17.786   1.458   2.079  0.1629 -0.1712 -0.2217
15220W        W31481   2.621  19.179   5.955 -0.1343  0.2119 -0.1800
15221W        W31482  15.046  10.811  13.238 -0.1763 -0.0112  0.2130
15222W        W31483   6.618  11.927  14.011  0.2362 -0.1343  0.1077
15223W        W31484   4.690  17.566   9.577  0.0032  0.0347  0.1722
15224W        W31485  11.660  10.687   9.947  0.0791  0.2123 -0.1266
15225W        W31486  15.590   9.102   2.325 -0.2075 -0.0182  0.0260
15226W        W31487  17.461   0.400   3.950 -0.2349 -0.0580  0.1934
15227W        W31488   3.961   5.005   0.227 -0.2041  0.2585  0.1769
15228W        W31489  14.727  16.897   2.178 -0.2289 -0.0725  0.0187
15229W        W31490  10.496  10.793  14.315 -0.0789  0.0715 -0.1809
15230W        W31491  18.255  17.529   4.622 -0.0161 -0.2822 -0.3565
15231W        W31492  13.882  12.033   1.947 -0.1135  0.2222 -0.0296
15232W        W31493  13.597  10.249   4.154 -0.3352  0.1310 -0.0859
15233W        W31494  10.242  13.332  13.074  0.1908 -0.2089  0.0282
15234W        W31495   5.073  19.430   2.587 -0.3107 -0.0540 -0.3168
15235W        W31496   8.359  15.150   4.920  0.0332  0.1682  0.2226
15236W        W31497   9.689  11.884  12.046 -0.0274  0.4363 -0.1066
15237W        W31498   7.957  14.922   4.620 -0.1299 -0.1855  0.1533
15238W        W31499   7.115   3.647  10.762 -0.1023  0.1489 -0.0380
15239W        W31500   4.748  15.334  13.066  0.0438  0.0159  0.3451
15240W        W31501  13.433   2.361  11.045 -0.2115 -0.0922 -0.0849
15241W        W31502  12.507  18.986   8.921 -0.2263  0.6574 -0.2190
15242W        W31503   9.013  12.312  11.403  0.2068 -0.0777  0.0586
15243W        W31504   1.858   8.340   4.717 -0.0525  0.1376  0.1017
15244W        W31505  15.600   4.205  12.985 -0.0819  0.2974 -0.2066
15245W        W31506  14.053   8.217  10.652 -0.1006 -0.0141  0.0153
15246W        W31507  12.328  14.320  12.732  0.2055  0.0468  0.0341
15247W        W31508  12.946   8.417   1.338  0.1154  0.2386  0.0161
15248W        W31509   2.393   4.712   1.147 -0.2421  0.4761 -0.1014
15249W        W31510  15.410  17.020   2.724  0.1196 -0.0787 -0.0085
15250W        W31511   0.740  10.242  13.018  0.1354 -0.1519 -0.1685
15251W        W31512  19.085   2.745  12.194  0.0610  0.2859  0.1188
15252W        W31513   2.925   5.366  14.627 -0.0404  0.0724  0.3506
15253W        W31514  16.314  10.042   0.792  0.1131  0.3091  0.1335
15254W        W31515  13.580   2.605   0.175  0.1015  0.1992 -0.0238
15255W        W31516   0.201  10.383   2.525 -0.0999 -0.1341 -0.2796
15256W        W31517   0.371  10.615  13.016  0.0274 -0.2758  0.2481
15257W        W31518  14.307  17.387  13.109  0.0992  0.0124 -0.0845
15258W        W31519   8.549  12.132  11.441  0.0158  0.0924 -0.2300
15259W        W31520   4.161  16.321   3.888 -0.0222 -0.3623 -0.2940
15260W        W31521  14.020  14.621  13.790 -0.0183 -0.1565  0.2112
15261W        W31522   6.213   1.531  12.761  0.2358 -0.0957  0.0512
15262W        W31523  15.792   8.621  13.393  0.2091  0.0047 -0.0522
15263W        W31524   0.024   9.490   2.490 -0.0845 -0.0031  0.4204
15264W        W31525   2.290   6.895  10.774  0.1245  0.3229 -0.0573
15265W        W31526   9.418  15.339  14.476 -0.0820  0.0755  0.1553
15266W        W31527  12.526   9.176   0.737 -0.0883  0.1108  0.0862
15267W        W31528  11.993  18.829   0.415  0.1204  0.0738  0.1081
15268W        W31529   8.436  17.411   3.784  0.2508 -0.1418  0.1155
15269W        W31530   6.242   1.157   1.837  0.0259  0.1543 -0.1353
15270W        W31531  18.070   1.117  13.749  0.0299  0.1516 -0.2390
15271W        W31532   7.617   4.501   4.257  0.2033 -0.1002  0.2788
15272W        W31533  16.822  13.828   0.994  0.0307 -0.1853  0.3394
15273W        W31534   0.698  11.511   0.800  0.0221 -0.0709  0.2662
15274W        W31535   5.037  13.465   2.383 -0.0800  0.4159 -0.0139
15275W        W31536  17.994   2.420  12.401 -0.0722  0.3392  0.1916
15276W        W31537  11.502  12.145  14.004 -0.1584  0.2192  0.1304
15277W        W31538  13.169  17.921   4.036 -0.0562  0.0371  0.3233
15278W        W31539  15.344   4.457   4.527  0.1865 -0.0633 -0.0564
15279W        W31540   6.527  16.886   4.907  0.1874  0.4441  0.0581
15280W        W31541   7.930  12.832   5.190 -0.0555  0.3039  0.0469
15281W        W31542   5.672   7.096   4.853 -0.2042 -0.3148  0.0803
15282W        W31543  13.848   9.642  12.712  0.2316  0.0020 -0.2168
15283W        W31544   7.453   9.390   1.132 -0.1850  0.0297 -0.0131
15284W        W31545   4.028   8.586   2.894 -0.0617  0.0291  0.0736
15285W        W31546   2.711  16.795   3.658 -0.2544 -0.0746  0.1356
15286W        W31547   4.055   9.331   4.296 -0.2375  0.1843 -0.0730
15287W        W31548  14.714  16.034  13.639  0.1821 -0.3002  0.0169
15288W        W31549   4.177  12.253   1.339  0.4759  0.0345  0.2045
15289W        W31550   6.088   3.185  14.318  0.0353 -0.0078  0.2121
15290W        W31551   3.930   6.825  14.426  0.1704 -0.1252  0.1785
15291W        W31552   3.839   0.761  11.883  0.0564 -0.2408  0.2642
15292W        W31553  10.465   6.699  10.837  0.3891 -0.3902  0.4513
15293W        W31554  15.641   5.325  14.352 -0.2558 -0.0731 -0.0499
15294W        W31555  19.330  17.915   0.799  0.2866 -0.3865 -0.1473
15295W        W31556   7.527   3.931   0.011 -0.2830 -0.4040  0.0814
15296W        W31557  17.075   4.820   0.369 -0.2203  0.1400 -0.2764
15297W        W31558  11.486   4.825  12.189  0.0093  0.1827  0.0352
15298W        W31559   8.903  16.714  13.675 -0.0495 -0.1047 -0.3587
15299W        W31560   4.247   3.822  12.813  0.2552  0.0932  0.2706
15300W        W31561  13.096  17.491   2.166  0.3692 -0.1956  0.0383
15301W        W31562  18.329   2.990   4.174  0.2105  0.0625  0.2059
15302W        W31563  11.061  15.973  10.113 -0.3563  0.0729  0.0739
15303W        W31564  13.760  16.519  10.457  0.0406 -0.0583 -0.0418
15304W        W31565  14.416   7.674  11.654 -0.2966  0.1837  0.0223
15305W        W31566  16.120  14.352   2.338  0.0583 -0.3528  0.0920
15306W        W31567  10.398  10.969  11.468 -0.0704 -0.2339  0.0901
15307W        W31568  16.940   0.024  10.877 -0.0271 -0.0662 -0.0521
15308W        W31569  11.411   7.145  13.434 -0.3939  0.1697 -0.0470
15309W        W31570   3.579  14.042   0.834 -0.3578  0.0946 -0.0300
15310W        W31571   1.760   7.995  14.217  0.0435  0.0694 -0.4460
15311W        W31572   1.834  12.267  13.018  0.1587  0.1620  0.2764
15312W        W31573  13.658   3.951  11.888 -0.5149 -0.4434  0.1643
15313W        W31574   6.869  11.955  12.537 -0.0956 -0.0586  0.0449
15314W        W31575   3.282  17.537  13.654  0.0337 -0.0290 -0.0687
15315W        W31576  16.730   0.436   1.678 -0.1336  0.0168  0.0628
15316W        W31577  13.489  19.192  10.056  0.1046 -0.1137  0.0897
15317W        W31578   1.466  10.985  13.262  0.1918 -0.1328 -0.1197
15318W        W31579  16.467  13.929   3.135  0.1113  0.0143  0.0879
15319W        W31580   5.951   9.933   0.674  0.1850  0.0120  0.0024
15320W        W31581   3.292   9.759   0.767  0.0252 -0.1518 -0.1893
15321W        W31582   7.520  17.735  11.162  0.4396  0.3392 -0.1199
15322W        W31583   9.790  10.583  12.523 -0.0910  0.0295  0.0462
15323W        W31584   7.198  10.121  12.086 -0.1296 -0.1811 -0.1242
15324W        W31585  13.052   0.171  11.404 -0.0565 -0.0149 -0.1681
15325W        W31586   1.381  12.114  13.194  0.1123 -0.1862  0.0207
15326W        W31587   3.724  19.284  12.504  0.0102 -0.0449  0.4178
15327W        W31588  11.957  18.803  14.552 -0.2868  0.1001 -0.3497
15328W        W31589  16.961   2.253  11.317 -0.2580  0.2648 -0.0310
15329W        W31590  15.447  10.657   4.977  0.2470  0.1135 -0.2416
15330W        W31591   1.751  11.225   2.655 -0.1153  0.0886  0.0458
15331W        W31592   4.295   8.288   0.272  0.2100  0.0045  0.0190
15332W        W31593  13.622  16.791  13.934 -0.0839 -0.1973  0.3809
15333W        W31594  18.028  13.690   4.024 -0.0317 -0.0447 -0.5162
15334W        W31595   4.511  12.599   5.210 -0.0067 -0.0424 -0.0948
15335W        W31596  12.063   6.829   2.466  0.0507 -0.0052 -0.1404
15336W        W31597   4.987   9.720   3.507 -0.0328 -0.2581  0.1458
15337W        W31598  10.748  17.733   3.739  0.0955 -0.2045  0.0158
15338W        W31599  13.381   6.054  14.256  0.0049 -0.1687  0.2393
15339W        W31600  18.215   9.693  12.566  0.1099 -0.1818 -0.4940
15340W        W31601  15.833   9.750   3.237  0.3105 -0.3170 -0.1407
15341W        W31602   2.252   8.067  14.481  0.1559 -0.0443 -0.4297
15342W        W31603   9.195  11.124  12.831 -0.1659  0.0194  0.2930
15343W        W31604  17.641   0.781  10.852  0.0034 -0.0431  0.0747
15344W        W31605  15.904  10.720  11.338  0.0868 -0.2335 -0.1190
15345W        W31606  15.511  13.867   2.866  0.4311 -0.1961  0.2063
15346W        W31607   7.913   3.375   2.981  0.2940 -0.0768 -0.2856
15347W        W31608   1.565   8.719   4.742 -0.0475 -0.0194 -0.1034
15348W        W31609  11.706  17.405  11.196  0.3007 -0.1540 -0.0387
15349W        W31610   5.412   5.374  14.212  0.2918 -0.2282  0.1200
15350W        W31611   1.757   3.831  14.847 -0.2264  0.1007  0.2059
15351W        W31612   4.310  16.952  14.273  0.0832 -0.2816  0.2070
15352W        W31613   5.019  15.669  13.334  0.2829  0.1718  0.1550
15353W        W31614   6.479  10.943   0.554 -0.0060 -0.0927  0.1118
15354W        W31615  10.230   5.115   5.127 -0.0147 -0.1889 -0.1773
15355W        W31616   1.232   5.823  12.789 -0.0698 -0.0908 -0.4031
15356W        W31617  15.417   6.755  11.002  0.1510 -0.1599  0.2000
15357W        W31618   3.695  14.569  12.228  0.1113 -0.2076  0.0950
15358W        W31619   9.778   3.604  14.666 -0.2028  0.1398  0.1830
15359W        W31620  12.527  16.261   0.182  0.2321 -0.1018 -0.2929
15360W        W31621  13.073  14.237   3.809 -0.0265 -0.2334  0.0133
15361W        W31622  16.146   8.957   2.476 -0.3227  0.3333 -0.1867
15362W        W31623   3.825   5.502  13.404 -0.1787 -0.3071  0.2402
15363W        W31624   8.591   8.366  14.144  0.2688 -0.1298 -0.3867
15364W        W31625   1.854  17.254   3.904 -0.1255  0.0863 -0.0414
15365W        W31626   5.643   9.568   0.526  0.0824  0.0037  0.3745
15366W        W31627   6.566   5.824  13.462  0.0088 -0.0159 -0.1214
15367W        W31628   4.988   4.603  12.277  0.0142  0.2139 -0.1513
15368W        W31629   2.126  12.701   3.593  0.1862 -0.0657  0.1505
15369W        W31630  10.300  14.683   3.993  0.0921 -0.1356  0.2869
15370W        W31631   6.820  18.239   2.315  0.1185  0.4404 -0.1465
15371W        W31632  13.208  14.426  10.006 -0.0829  0.4026 -0.3021
15372W        W31633   2.624   4.046  11.095  0.0714 -0.1478 -0.0755
15373W        W31634   5.748  14.411  12.107 -0.0153 -0.0540 -0.2146
15374W        W31635   2.942  19.093  11.462  0.1076  0.2839  0.0842
15375W        W31636  18.838   0.813   4.291 -0.4492 -0.1653 -0.1712
15376W        W31637   1.970   5.992   0.382  0.1625 -0.1502 -0.1035
15377W        W31638  15.363   3.458  13.338  0.0081 -0.0883 -0.1867
15378W        W31639  13.982   5.834  11.006  0.0195  0.2756 -0.2173
15379W        W31640   0.215  11.977   1.842  0.3912 -0.1591  0.0106
15380W        W31641   2.214   5.807   5.613 -0.0221 -0.1986 -0.0885
15381W        W31642   9.229   5.022  13.130  0.0041 -0.0715 -0.0128
15382W        W31643   3.541   0.153   4.166  0.3092 -0.2940 -0.3444
15383W        W31644  16.473  16.868   1.305  0.2330  0.4229 -0.1287
15384W        W31645  17.727  14.724   2.846  0.2606 -0.0618  0.1385
15385W        W31646   4.057  15.382   4.632  0.0619  0.0591  0.2702
15386W        W31647  10.667   5.821  10.261  0.0763  0.1586 -0.1154
15387W        W31648   8.441   7.057   5.595 -0.1026  0.1111  0.1177
15388W        W31649   6.315   7.806   0.917  0.1991 -0.2294 -0.0819
15389W        W31650  10.691   8.674  11.549 -0.2501 -0.1792 -0.0126
15390W        W31651  13.362   5.251  10.155  0.1476 -0.1125 -0.1820
15391W        W31652  15.017   9.403   3.512 -0.1125  0.0313  0.1277
15392W        W31653  18.440   1.219  13.445 -0.2415 -0.0984 -0.0233
15393W        W31654   5.577   9.297  10.452 -0.3317 -0.0504  0.1108
15394W        W31655   3.370  12.958  11.591 -0.3836 -0.0210 -0.1094
15395W        W31656  17.686  12.786   0.383  0.2298 -0.1472 -0.2260
15396W        W31657  13.764  13.585   0.466  0.0658  0.0054 -0.2238
15397W        W31658  10.878   8.301  11.795 -0.1170 -0.1879 -0.2221
15398W        W31659  12.419   6.066   4.459  0.1251 -0.0181 -0.2468
15399W        W31660   9.583   1.815   4.566  0.3201  0.0013 -0.3640
15400W        W31661   4.539   2.795   0.553  0.0710  0.0706  0.0567
15401W        W31662  11.778   5.484   0.920  0.1011 -0.0619 -0.1435
15402W        W31663  12.243  10.322   1.738 -0.1672 -0.0701 -0.2248
15403W        W31664  15.750   2.889   3.360 -0.1282 -0.0654  0.0889
15404W        W31665   0.373  10.152   5.282 -0.0534 -0.1794  0.0287
15405W        W31666  14.761  13.340  10.652 -0.0912 -0.1884  0.1916
15406W        W31667  13.530   4.593  13.925  0.1430 -0.1420  0.0832
15407W        W31668   7.494   8.626  10.415  0.0063 -0.0214 -0.0639
15408W        W31669   8.612  12.308  14.560  0.0707 -0.0813 -0.2172
15409W        W31670   1.005  14.285   4.409  0.0695  0.1094 -0.0167
15410W        W31671  16.883  10.010  14.025 -0.0189 -0.0336  0.0164
15411W        W31672   8.567  10.808  11.853  0.1101  0.0033  0.3602
15412W        W31673  10.207   9.670   0.011 -0.1022  0.1578 -0.0774
15413W        W31674   8.619  10.737   0.427 -0.1393  0.1328 -0.4346
15414W        W31675   2.630   7.782   2.178  0.0870 -0.2156  0.0590
15415W        W31676   0.409   7.076  12.238  0.1460  0.0885 -0.0759
15416W        W31677  18.084  17.602  11.930  0.0107  0.0541 -0.2280
15417W        W31678  15.492  17.060  14.071 -0.1502 -0.0271 -0.1455
15418W        W31679   8.235   0.470  11.705  0.1202  0.0612  0.1477
15419W        W31680  12.085  15.027   1.225 -0.0399 -0.0029  0.5037
15420W        W31681   3.240  11.275   3.927 -0.2704  0.0330  0.3018
15421W        W31682   5.032   9.395  11.919 -0.1792  0.1585  0.2196
15422W        W31683   9.693  16.070   0.073 -0.1677 -0.1714 -0.0541
15423W        W31684   8.344  14.681  10.728 -0.3185 -0.0125 -0.0006
15424W        W31685   6.425   6.604   0.408  0.2427 -0.0270  0.0189
15425W        W31686   2.341  17.879   3.240  0.3152 -0.3053 -0.1499
15426W        W31687  15.766  14.518  11.195 -0.0662 -0.0304 -0.1871
15427W        W31688  12.898   5.919  13.454  0.3087  0.0357  0.0028
15428W        W31689   6.612   9.388  11.546  0.0261 -0.1681  0.0170
15429W        W31690  13.359   4.393  14.387 -0.2444 -0.0441 -0.1038
15430W        W31691   5.146   6.912  10.715  0.2917  0.1515 -0.0725
15431W        W31692   6.017  12.519   1.515  0.1090  0.2062 -0.1794
15432W        W31693   2.884  12.643   2.010 -0.3523 -0.1322 -0.0579
15433W        W31694   2.126   8.016   0.191  0.0918 -0.1164  0.2819
15434W        W31695   8.161  15.847   5.384 -0.0457 -0.1945 -0.2594
15435W        W31696  13.796   2.733   5.683  0.0980  0.2951  0.1639
15436W        W31697   0.740  18.047  13.678  0.3687  0.1637  0.1528
15437W        W31698  13.861  17.390  11.974 -0.1166  0.0694  0.0913
15438W        W31699  13.454   7.678   3.148 -0.1719  0.4034 -0.2525
15439W        W31700  18.797   0.719  13.101  0.1216 -0.0408  0.1455
15440W        W31701   9.153  11.808   0.381  0.0805  0.2539 -0.0354
15441W        W31702   1.771   3.436   2.031  0.1015  0.0713 -0.0376
15442W        W31703  19.429   3.548   4.002 -0.1133  0.0159 -0.2238
15443W        W31704   2.545   7.073  12.918  0.0203 -0.1006  0.0691
15444W        W31705   0.263  14.658  13.137  0.0618 -0.0047  0.2582
15445W        W31706   0.140   4.433  13.628  0.0518  0.0668  0.2524
15446W        W31707   6.512   7.981   1.393  0.0645 -0.2113  0.4548
15447W        W31708  11.538  16.670   1.537  0.2312  0.1308  0.2826
15448W        W31709  19.089  12.294  12.886 -0.1028  0.1529 -0.0468
15449W        W31710   8.612  12.367   2.559 -0.0753  0.0643  0.0593
15450W        W31711   7.446  13.348   0.258 -0.0854  0.0593  0.0381
15451W        W31712   4.877   6.261  11.418  0.3581  0.1365  0.1824
15452W        W31713  16.416  13.529  13.787 -0.0666  0.1582 -0.0479
15453W        W31714  13.823  11.415   3.055 -0.0111  0.0083 -0.1140
15454W        W31715   4.786   6.420   4.427 -0.1833 -0.2158  0.1419
15455W        W31716  16.761  19.357  14.465  0.0547 -0.1165 -0.3507
15456W        W31717   1.323  11.306   5.304  0.3994 -0.4369  0.4793
15457W        W31718   7.880   8.757   2.799  0.0565 -0.1506 -0.3326
15458W        W31719  11.443  18.976  14.548 -0.3601  0.1361 -0.1295
15459W        W31720  13.374   9.274   4.689  0.1242  0.0900 -0.1841
15460W        W31721   0.102   4.493  11.880  0.0878 -0.2132 -0.1037
15461W        W31722   4.118   6.844   2.767  0.0857  0.3198 -0.3046
15462W        W31723   7.033   7.931   2.244 -0.3061  0.0757  0.0996
15463W        W31724  15.843  17.876  13.573 -0.2649 -0.0509 -0.1910
15464W        W31725  12.654   0.482   0.904  0.3814 -0.0334 -0.1213
15465W        W31726   9.232  13.700   3.994 -0.4398  0.0677 -0.0876
15466W        W31727  16.470   5.195   1.730 -0.2244 -0.2456  0.2242
15467W        W31728   2.593  15.114  13.735 -0.0267  0.1400  0.3824
15468W        W31729   5.912   7.177   5.301  0.0406 -0.1680  0.0489
15469W        W31730   1.736   2.912   4.211 -0.0863 -0.1219  0.1245
15470W        W31731   1.180   5.818  11.055  0.0743  0.1481  0.1352
15471W        W31732  14.863   5.879  11.383 -0.3410 -0.0736  0.2514
15472W        W31733   0.595   4.942   5.181 -0.1565  0.1290  0.1600
15473W        W31734   1.601  11.222   4.681 -0.3640  0.0074  0.1309
15474W        W31735   6.345   7.691   1.802  0.0061 -0.0288  0.2393
15475W        W31736   5.802  15.562   5.889 -0.1140 -0.0648 -0.1709
15476W        W31737   6.891   1.784  12.726 -0.2076  0.1675 -0.0652
15477W        W31738  13.295   3.951  11.055  0.0361  0.4148 -0.1313
15478W        W31739  15.348  17.847   3.851 -0.1238  0.0115 -0.2112
15479W        W31740   5.753   7.930  14.009  0.0875  0.2487  0.1356
15480W        W31741   7.136   4.200  13.254  0.1599  0.1929 -0.0894
15481W        W31742  17.078   9.142   3.566  0.1573  0.2422  0.0263
15482W        W31743  16.208  11.858   4.847 -0.1309 -0.0418  0.0451
15483W        W31744   4.904  11.411   4.861  0.2692  0.1069 -0.0707
15484W        W31745   7.235   4.929   9.919 -0.1503 -0.0239 -0.2620
15485W        W31746   9.676  14.810  12.721 -0.0131  0.0489 -0.0511
15486W        W31747   1.394  18.862  14.234 -0.0047 -0.2050 -0.0471
15487W        W31748   8.766  11.137   1.234 -0.1671  0.2168 -0.1822
15488W        W31749   4.181   4.424  10.737 -0.1213 -0.1450 -0.3892
15489W        W31750  12.144   3.436   5.023  0.0574 -0.0376  0.2299
15490W        W31751  18.357  15.032   0.935  0.0542  0.0793 -0.0703
15491W        W31752  17.054   3.210  11.071  0.4840  0.0655 -0.0645
15492W        W31753  17.921   3.286   1.598 -0.2114 -0.2809 -0.1152
15493W        W31754  16.698  10.357   2.305  0.0122 -0.1750 -0.4739
15494W        W31755  15.694   0.186   4.557  0.2479  0.1382  0.2139
15495W        W31756   7.792   2.473  14.077 -0.0280  0.0710  0.2758
15496W        W31757   4.690  14.161   1.436  0.3057 -0.0671 -0.0356
15497W        W31758   9.953  13.185   1.953  0.1384  0.2540 -0.1204
15498W        W31759  16.862  17.278   0.037 -0.2559 -0.2257  0.1551
15499W        W31760  13.595  15.581  14.738 -0.0876 -0.3577  0.0142
15500W        W31761  13.719  15.266  10.229  0.0842  0.3067 -0.0031
15501W        W31762   6.062  18.778   5.014 -0.0185  0.2001  0.1580
15502W        W31763   0.651  15.437  11.178 -0.3022  0.3596  0.2257
15503W        W31764   7.778   0.315  12.914 -0.0083 -0.3010  0.7329
15504W        W31765  14.126   1.719   2.749  0.0381  0.0305  0.0573
15505W        W31766   5.900  11.814   0.313 -0.1290 -0.1895 -0.2032
15506W        W31767   1.758  19.395  13.587  0.1507 -0.1238 -0.4640
15507W        W31768   5.957   1.763   1.227  0.3388  0.0042  0.0169
15508W        W31769   1.484   2.832   0.979 -0.1215  0.3518  0.3332
15509W        W31770   2.002   5.700   1.278 -0.2911  0.1292  0.1450
15510W        W31771   3.264  14.433  14.851  0.1940  0.1315  0.0718
15511W        W31772  18.439   5.055  14.420  0.1466 -0.0120 -0.1894
15512W        W31773   2.598   2.095   4.971 -0.2309 -0.1023 -0.2823
15513W        W31774  14.526   8.248  13.977 -0.2149  0.0498  0.2705
15514W        W31775   1.769   4.810   4.258 -0.3870 -0.0895  0.3022
15515W        W31776   0.523   0.857  14.739 -0.1987  0.1328  0.1352
15516W        W31777   0.776   3.495   0.490  0.2479 -0.0217 -0.0280
15517W        W31778  12.257  11.224   2.159  0.1314 -0.0494 -0.1755
15518W        W31779   3.254   1.455   1.455  0.0070  0.1102 -0.3384
15519W        W31780   2.155  13.070   2.697  0.0050 -0.2944 -0.0110
15520W        W31781  17.862   5.052   3.422  0.2392  0.1341  0.3372
15521W        W31782   8.651  12.696   0.458 -0.1042 -0.4423  0.1649
15522W        W31783  18.707  17.479   3.423  0.2897  0.0677 -0.3476
15523W        W31784   8.484   7.873  11.494 -0.2944 -0.4043  0.2655
15524W        W31785  15.348   0.378  13.313 -0.3121 -0.2120 -0.3420
15525W        W31786  11.685   7.744  14.269  0.2756 -0.0242 -0.1099
15526W        W31787   8.905   9.400  13.773 -0.1416 -0.2047 -0.2977
15527W        W31788  12.661  18.205  12.950 -0.0922  0.1030 -0.2052
15528W        W31789   5.884  10.959  12.845  0.1752 -0.2405 -0.2884
15529W        W31790  11.158   9.347   0.272  0.3117  0.2186  0.2531
15530W        W31791   7.995  17.776   1.747 -0.2040 -0.2206 -0.1571
15531W        W31792   8.531  18.272  14.264  0.4356  0.0189 -0.0379
15532W        W31793  17.021   5.355   4.771  0.1559  0.2017 -0.0610
15533W        W31794  13.725  15.177   1.622 -0.3436  0.0219  0.4223
15534W        W31795  11.654  18.727   0.090  0.1188 -0.0248 -0.3378
15535W        W31796   3.062  10.014   2.268 -0.2309 -0.2600  0.1340
15536W        W31797  13.946   7.038  13.347 -0.0232  0.0518  0.1215
15537W        W31798  12.892  16.037   0.408 -0.3275 -0.0738 -0.0124
15538W        W31799   4.366   0.460   2.781 -0.0578 -0.1366  0.0840
15539W        W31800   6.103   8.752   2.485  0.1699 -0.1613 -0.0678
15540W        W31801  11.319  12.691   1.203  0.1839 -0.2771  0.2931
15541W        W31802  11.990   1.109  10.756 -0.0562  0.1386  0.2048
15542W        W31803   0.289  15.917   2.368 -0.0606  0.3217  0.1065
15543W        W31804  13.349   5.078   4.788 -0.0480 -0.0787 -0.0109
15544W        W31805   5.124  17.216  12.689 -0.1388  0.0810 -0.3727
15545W        W31806   7.397   6.396   4.475 -0.0735  0.1693 -0.3240
15546W        W31807   5.553   4.321   3.092 -0.0837  0.2076  0.0653
15547W        W31808  13.332  18.643   2.137  0.2373  0.2802 -0.1465
15548W        W31809  12.024   9.780  14.310 -0.0275  0.0198  0.2603
15549W        W31810  15.497   7.156   2.274 -0.2200  0.0630  0.0585
15550W        W31811  19.359   5.481  12.720  0.2383 -0.0567  0.3209
15551W        W31812  16.946   3.322   2.928 -0.0792  0.0920 -0.2760
15552W        W31813   5.584   1.467  12.575  0.1456 -0.3190 -0.2586
15553W        W31814   0.811   3.025   0.277  0.2391  0.2409 -0.1690
15554W        W31815  13.404  12.897   1.756 -0.0261  0.3036  0.0330
15555W        W31816  14.751  12.138  13.527 -0.1516  0.4494 -0.2834
15556W        W31817  17.201  10.886   1.659  0.1495 -0.1360  0.0357
15557W        W31818   8.317  16.824  13.397 -0.1563  0.1621  0.0507
15558W        W31819  18.419   8.234  14.355  0.2009  0.0697  0.1965
15559W        W31820  13.306  15.636   3.183  0.0489  0.3956 -0.1582
15560W        W31821  14.858  16.425   3.381  0.0810 -0.1873 -0.3399
15561W        W31822  12.695  19.163   1.996 -0.1937 -0.2930 -0.2376
15562W        W31823   2.698  19.402   3.126 -0.1276  0.1573  0.0047
15563W        W31824  18.371  15.857   1.186 -0.4726 -0.0341  0.0374
15564W        W31825  17.695  14.701   0.163  0.0658  0.1178  0.0228
15565W        W31826  19.211  12.777  12.767 -0.3567 -0.1180  0.3923
15566W        W31827  18.597   1.348   2.406  0.0397 -0.0600  0.1311
15567W        W31828   1.108   8.091   1.696  0.4401 -0.1287 -0.3850
15568W        W31829   5.139   5.970  11.789  0.2332 -0.0103  0.1915
15569W        W31830   3.842   9.506   3.363  0.2721  0.1730 -0.1358
15570W        W31831   6.360  12.801   1.226  0.0433  0.4169  0.5099
15571W        W31832   5.271   4.541   9.639 -0.2449 -0.1292  0.0248
15572W        W31833   8.182   6.988   1.974  0.3461  0.3058 -0.0092
15573W        W31834  14.529  13.182   4.086 -0.0409  0.3756 -0.1682
15574W        W31835  16.795  17.223  10.722 -0.2126  0.0459 -0.0518
15575W        W31836  10.269   0.400   1.602  0.0858  0.1324 -0.3595
15576W        W31837  14.157  11.469   0.905  0.1324 -0.1172  0.1928
15577W        W31838   7.171  11.005   5.281  0.0713  0.1099 -0.0129
15578W        W31839   4.646   2.167   2.105  0.0234 -0.2735 -0.1000
15579W        W31840  17.663  14.036   4.330 -0.1796 -0.2025 -0.1577
15580W        W31841  12.150   7.901  12.499  0.0004 -0.3032  0.1787
15581W        W31842  11.024   8.827   5.133  0.1196 -0.0490  0.2713
15582W        W31843   6.605   9.035   0.220 -0.1876 -0.2028 -0.0878
15583W        W31844   3.870  18.619   2.895 -0.0569 -0.3624 -0.1020
15584W        W31845   7.566  16.387   1.768  0.0047 -0.1102  0.0155
15585W        W31846   2.175   7.336  13.023 -0.1594 -0.3105 -0.0122
15586W        W31847  16.125   3.310  10.724  0.1399 -0.0656  0.0520
15587W        W31848  19.323   4.447   4.035 -0.2548 -0.1806  0.1810
15588W        W31849  18.633   6.238   4.405  0.0290  0.0951  0.1286
15589W        W31850   4.406  11.213   1.524  0.2414 -0.2339 -0.0948
15590W        W31851   2.525  10.874   2.988  0.1529  0.1896  0.2142
15591W        W31852  11.090   8.378  12.310 -0.1970  0.1115  0.0349
15592W        W31853  12.683  17.712   4.082  0.0094  0.0274  0.2634
15593W        W31854   7.194   6.781  13.183  0.0832 -0.0604 -0.1538
15594W        W31855  12.211   3.107   2.416  0.0196  0.0544  0.3764
15595W        W31856   7.872  17.439  12.546  0.2305 -0.3691  0.2346
15596W        W31857   7.750  16.862  13.390  0.1248  0.0047 -0.1257
15597W        W31858  18.841   4.682   3.542 -0.2030  0.2055  0.1196
15598W        W31859  17.322  14.740  10.142  0.3294  0.0408 -0.2853
15599W        W31860  14.962   0.911   4.082  0.1444  0.3147 -0.1525
15600W        W31861   2.706   9.277   1.486  0.1371 -0.2857 -0.0735
15601W        W31862  12.185   4.241   0.049 -0.1052  0.1233  0.0972
15602W        W31863   3.583   8.854   0.733 -0.2515 -0.1599 -0.0496
15603W        W31864   0.251   9.564   0.509 -0.0691 -0.0714  0.4699
15604W        W31865   1.787  15.458  11.646  0.0082 -0.1095  0.1122
15605W        W31866   5.407   5.235   0.378  0.0816 -0.2820  0.0643
15606W        W31867  16.607   7.607  13.190 -0.0720  0.1713  0.0589
15607W        W31868   4.312   9.470   0.091  0.0643 -0.0560 -0.1869
15608W        W31869  16.751   3.768   3.682 -0.1749  0.2613  0.1235
15609W        W31870   2.505   9.311   1.019 -0.0407 -0.0486  0.0306
15610W        W31871  11.311   2.637  12.239 -0.1617 -0.0476  0.1863
15611W        W31872   7.377  13.950  14.505 -0.1355 -0.0189 -0.0798
15612W        W31873  15.593  18.932  13.763  0.0804 -0.0295  0.0315
15613W        W31874   8.763   3.982  12.187 -0.2856  0.2364  0.0183
15614W        W31875  13.348  15.899   0.767  0.1364 -0.0448 -0.0403
15615W        W31876   9.603   9.214   0.436  0.2079  0.1027  0.1289
15616W        W31877  16.074  11.353   0.431  0.1243 -0.2954  0.1423
15617W        W31878  10.862  19.322  14.278 -0.2160  0.1021  0.0325
15618W        W31879  14.866  16.716  12.679  0.0138 -0.0754 -0.0251
15619W        W31880  10.547  12.277   3.240 -0.3318 -0.1240 -0.0178
15620W        W31881  11.979  14.953  12.898  0.0633 -0.0210  0.0685
15621W        W31882  16.981   9.349   1.954 -0.0002  0.2891 -0.4206
15622W        W31883   8.407   0.604  12.523  0.0107 -0.2129  0.2263
15623W        W31884  15.839  16.111   1.567 -0.0134 -0.0568  0.2699
15624W        W31885  18.485  15.635  12.237  0.1990  0.0275 -0.2210
15625W        W31886  19.157   7.829  10.760 -0.1570  0.1407 -0.0969
15626W        W31887   4.417  14.830  10.550  0.3311 -0.1495 -0.1958
15627W        W31888   5.655  14.430   3.584  0.0926 -0.0347  0.0136
15628W        W31889   3.628   2.805  12.093  0.4692  0.1157  0.1762
15629W        W31890  13.754   1.678  12.165  0.2668  0.1483  0.2820
15630W        W31891  12.980   8.185   3.563 -0.2447  0.1346 -0.2869
15631W        W31892  14.307  11.989   2.702  0.0942  0.2613  0.0823
15632W        W31893  17.375  16.004   1.795 -0.3417  0.0526 -0.0068
15633W        W31894   0.233   3.349   0.513  0.3656  0.1800 -0.0412
15634W        W31895  12.997  10.738   4.175 -0.0553 -0.2162  0.0666
15635W        W31896   8.065  16.836  14.810  0.0717  0.0721 -0.0632
15636W        W31897  13.692   8.511   4.704  0.0745  0.2835  0.0773
15637W        W31898  16.869  11.656   2.821 -0.2553 -0.0143 -0.0341
15638W        W31899  11.100  11.455   4.162 -0.0872  0.1275  0.2625
15639W        W31900   3.714   5.142   3.991 -0.1362 -0.1438 -0.0209
15640W        W31901   5.228  13.717  13.229  0.0059 -0.2904 -0.3692
15641W        W31902   9.611   3.774  12.106 -0.0155 -0.1456 -0.0232
15642W        W31903   1.296  12.450   4.903 -0.0112 -0.0907  0.0142
15643W        W31904  11.107  14.474   3.520 -0.0659  0.1859  0.3457
15644W        W31905   2.256  13.288  13.419 -0.1174 -0.0869  0.0921
15645W        W31906   9.229   7.093   1.560  0.1136  0.2924 -0.1915
15646W        W31907  17.166   2.450  13.800  0.3634 -0.0783  0.0718
15647W        W31908   6.252  15.917   5.466 -0.2161 -0.2785  0.2924
15648W        W31909   4.613   0.817  11.248 -0.3446  0.2232 -0.0104
15649W        W31910  10.628   9.620   3.909  0.1682  0.0758  0.0021
15650W        W31911   5.259  15.250  13.824 -0.1813 -0.0618 -0.0373
15651W        W31912   6.786  18.198   1.822 -0.2722 -0.2386  0.1037
15652W        W31913  12.125   4.941   4.929  0.0502 -0.2520  0.4244
15653W        W31914   6.443   7.528   2.425  0.1069  0.3653 -0.2866
15654W        W31915   7.470  11.675  14.031  0.1369  0.0063 -0.0461
15655W        W31916   3.405  10.323   2.470 -0.1707  0.0127  0.2362
15656W        W31917  14.179  19.173   1.666 -0.2718  0.0958 -0.0557
15657W        W31918   1.473   0.191  12.840  0.1715  0.0888  0.1825
15658W        W31919   2.252  13.758   3.460  0.1658 -0.2694  0.3410
15659W        W31920  15.301   6.245  10.114 -0.0490 -0.0269  0.3137
15660W        W31921   3.801   0.199   5.110  0.1735  0.0703 -0.1178
15661W        W31922   6.645  12.395   3.824 -0.1042  0.0745 -0.0403
15662W        W31923   7.844   9.277   5.024  0.4504  0.1013  0.1365
15663W        W31924   9.606   4.504   5.026 -0.2482  0.1205  0.2653
15664W        W31925   8.207   8.273  13.501 -0.1947 -0.0068  0.1698
15665W        W31926  11.743   2.206   1.763  0.0520  0.0432 -0.1136
15666W        W31927  17.241  12.005  12.267  0.0919 -0.0439 -0.0964
15667W        W31928  17.159  18.283  12.323 -0.0148  0.1201 -0.0125
15668W        W31929   3.626  16.234   0.368 -0.1177 -0.1931 -0.0464
15669W        W31930   6.579   9.502  14.322 -0.0509  0.0229  0.1815
15670W        W31931   6.874  11.112   1.550 -0.2939  0.0833 -0.2832
15671W        W31932   3.473  15.405  14.214 -0.0241  0.3323  0.0165
15672W        W31933  18.151   9.648   2.286  0.1785  0.0078 -0.1350
15673W        W31934   2.684   1.820   3.021  0.0615  0.1963 -0.1033
15674W        W31935  14.212   2.358  12.193  0.0214 -0.3703  0.0308
15675W        W31936  14.497   6.023   1.589 -0.0391  0.0091  0.0393
15676W        W31937  18.441  18.245  12.383  0.0734  0.0186 -0.0396
15677W        W31938  10.757  14.768   2.186 -0.2784  0.2717 -0.1019
15678W        W31939  17.405  13.250  12.081 -0.2283  0.3035  0.1120
15679W        W31940   2.657  10.250  11.842  0.1070  0.1949  0.1975
15680W        W31941  17.472  17.984  12.057  0.2051 -0.1972  0.3267
15681W        W31942  10.803   1.420  13.114  0.0173  0.3252  0.2720
15682W        W31943   9.894  14.385  14.147  0.1258  0.5635  0.0955
15683W        W31944   1.912  17.389  13.517 -0.2912  0.1902  0.0190
15684W        W31945   1.781   0.787   4.284  0.0624 -0.1191  0.3514
15685W        W31946   5.551  15.723  11.632  0.3707 -0.2344  0.1456
15686W        W31947  18.995   8.496  12.478  0.2524 -0.0154  0.1609
15687W        W31948   4.554   4.049   0.756 -0.0396  0.5002  0.2207
15688W        W31949  11.217  14.938  11.816 -0.4485  0.0448 -0.2546
15689W        W31950  13.595  16.542  11.599 -0.0668  0.1712  0.0278
15690W        W31951   5.989  16.381   1.866  0.1125 -0.3228  0.0962
15691W        W31952  16.383   0.613  13.043  0.1551  0.2746 -0.0489
15692W        W31953  11.187   3.937  12.027 -0.1556 -0.3644 -0.1037
15693W        W31954  10.347   9.519   3.443  0.4689  0.1216  0.1637
15694W        W31955  18.619  15.941   3.048 -0.0044 -0.0689 -0.0958
15695W        W31956   8.024   3.580   4.973 -0.1811 -0.0085 -0.0705
15696W        W31957   1.077   5.262  14.609  0.0109  0.3317  0.2489
15697W        W31958  12.462   2.746   2.947  0.1743  0.0387 -0.0308
15698W        W31959  13.046   2.300  13.031  0.1011  0.1130 -0.2487
15699W        W31960  11.299   1.612  10.642  0.1942  0.1662  0.1466
15700W        W31961  13.768   8.546   2.400  0.2503 -0.1918  0.0896
15701W        W31962   3.105   5.630   1.079 -0.0906 -0.0054 -0.0049
15702W        W31963  14.323   2.377   1.825 -0.0089  0.0124 -0.0406
15703W        W31964  15.379   0.947  12.540 -0.0172 -0.3260 -0.4232
15704W        W31965   2.213  15.638   1.573  0.0773 -0.0499  0.0957
15705W        W31966  16.386   5.267   4.150  0.5363 -0.2428 -0.2767
15706W        W31967   9.119   0.646   3.188  0.1569 -0.3853 -0.0625
15707W        W31968  19.200  15.920   9.818 -0.2371 -0.0971 -0.0645
15708W        W31969   6.983  18.394   4.421 -0.1430 -0.2288  0.1594
15709W        W31970   2.028  16.986   4.568 -0.3255 -0.3084  0.2117
15710W        W31971   0.114  14.743   1.786  0.0563  0.1321  0.0996
15711W        W31972  15.245   5.388   4.439 -0.0759 -0.1133  0.0804
15712W        W31973  12.657  18.132   1.108  0.1967  0.2118  0.2611
15713W        W31974  14.204  11.290  11.130  0.0069 -0.1370 -0.2366
15714W        W31975  12.986   1.017   0.105 -0.0770  0.1292  0.0274
15715W        W31976  18.110   1.928   2.945  0.0096  0.1762 -0.3458
15716W        W31977   5.000  12.147  10.276 -0.0313 -0.3932  0.0776
15717W        W31978   8.323  19.339   4.454 -0.3683 -0.1487 -0.0028
15718W        W31979  11.744  16.139   3.637 -0.2531  0.0316 -0.0219
15719W        W31980  17.093  11.248   1.991  0.0319 -0.3562  0.2396
15720W        W31981  13.308  14.635   2.074  0.3113 -0.1428  0.0487
15721W        W31982  19.263  10.105  14.566  0.2185 -0.2705 -0.1646
15722W        W31983   5.006  16.024  12.769 -0.2043 -0.3914 -0.1411
15723W        W31984   7.143   2.503  10.706  0.0588  0.0640  0.0064
15724W        W31985   8.616   3.786   4.281  0.4243  0.0813  0.1805
15725W        W31986   6.068  15.652   2.488  0.0127 -0.3005  0.0073
15726W        W31987   5.507  15.651  10.663  0.0769 -0.1059  0.0387
15727W        W31988   5.105   0.486   0.157 -0.0017  0.0390 -0.2346
15728W        W31989   5.483  16.411   2.099  0.1764  0.0116  0.1561
15729W        W31990   9.643  13.566  10.479 -0.0057  0.1045 -0.4650
15730W        W31991   5.008   5.841   2.412  0.0958  0.0202 -0.1858
15731W        W31992  15.244  13.373   4.457  0.1098  0.0906 -0.0940
15732W        W31993  15.488  19.397  10.852 -0.1189  0.0935 -0.1482
15733W        W31994  16.605  16.378   1.562  0.1795  0.1145 -0.2145
15734W        W31995  16.700   4.956  14.253  0.0188  0.0699  0.1185
15735W        W31996  15.833   7.327   0.796 -0.0424 -0.1781  0.0355
15736W        W31997   1.246   8.503  11.710 -0.3600  0.0244 -0.0658
15737W        W31998   3.041  16.304  14.399 -0.0130 -0.0673  0.1110
15738W        W31999   0.753   9.465  12.478 -0.3200 -0.3866 -0.0054
15739W        W32000  11.490   3.630   2.641  0.0764 -0.1572  0.2750
15740W        W32001   3.910   6.536   3.990  0.2372  0.4412 -0.1043
15741W        W32002  10.896   1.024   1.206  0.2756 -0.0337  0.4341
15742W        W32003  15.849   2.698   3.860 -0.0382  0.2199 -0.0429
15743W        W32004   2.620   9.867  10.581 -0.2349  0.1874  0.0172
15744W        W32005   9.641  13.645   2.364  0.0115  0.0445 -0.3298
15745W        W32006   3.243  16.168   9.633 -0.0887  0.1840 -0.3616
15746W        W32007   4.311   0.934  12.052 -0.0810  0.0296 -0.3342
15747W        W32008  16.789  11.961   0.630  0.1777 -0.1653 -0.4133
15748W        W32009   6.339   9.169  12.467  0.1462  0.0567  0.3069
15749W        W32010   6.106   7.054  10.720  0.1502  0.0708 -0.1016
15750W        W32011   4.189  17.712   4.620  0.1226  0.1760  0.0951
15751W        W32012  10.276   8.962   3.297  0.0453 -0.0855 -0.0615
15752W        W32013  10.653   8.072  14.554 -0.3017  0.0441  0.1911
15753W        W32014   2.921   7.025  13.196  0.2193  0.1788  0.1306
15754W        W32015   6.230   0.477  14.049 -0.3643 -0.2323 -0.1962
15755W        W32016   9.384  16.559  11.739  0.0131  0.1672 -0.1672
15756W        W32017   7.798   3.147  13.187  0.2676  0.0577 -0.0477
15757W        W32018  14.092   3.527   1.350  0.0683 -0.0618 -0.0225
15758W        W32019  17.562  15.790  10.524 -0.0861 -0.1593 -0.0108
15759W        W32020   1.559   7.507   4.178  0.2855  0.1489 -0.1859
15760W        W32021  11.327   7.779  11.169 -0.2010 -0.1122  0.2298
15761W        W32022   2.070   8.488   4.097 -0.2930  0.1023  0.2362
15762W        W32023  12.204  13.291   4.801  0.0162 -0.0980 -0.3578
15763W        W32024  15.802   1.222  12.464  0.1701  0.2471  0.1873
15764W        W32025   3.741   7.643  12.491 -0.1288 -0.0044  0.3855
15765W        W32026  13.108   6.809  13.325  0.1523 -0.0173  0.0962
15766W        W32027   6.811  18.297  14.391  0.1713  0.1709 -0.0815
15767W        W32028  19.236  16.572   3.114  0.1716  0.0942  0.1071
15768W        W32029   4.488  12.190  10.223 -0.0314  0.2603  0.2301
15769W        W32030   5.444  16.861  14.180  0.1311 -0.1306  0.0937
15770W        W32031   8.805  14.778   5.041  0.0829  0.0766  0.1707
15771W        W32032  15.295   6.218  14.720  0.0114 -0.0622 -0.0858
15772W        W32033  19.163  15.186   3.217  0.0453 -0.0401 -0.2694
15773W        W32034   0.534  19.149  12.874  0.1899 -0.2665  0.1287
15774W        W32035  12.341   5.093   2.980 -0.1347  0.1347  0.0633
15775W        W32036   0.110   2.477  14.733 -0.0473 -0.0090 -0.0191
15776W        W32037   7.491   7.349   4.060  0.2345  0.0220 -0.1018
15777W        W32038  10.248  10.470  14.639 -0.0156 -0.2657  0.2084
15778W        W32039   0.546  14.463  13.880 -0.1288  0.3317  0.0828
15779W        W32040  11.827  16.176  14.220 -0.0376 -0.1532  0.0296
15780W        W32041   2.903  11.364  11.747 -0.0068  0.0270 -0.0006
15781W        W32042   1.681   9.680   1.111 -0.1504 -0.0428  0.0220
15782W        W32043  18.195  15.553  13.676  0.0089  0.3591 -0.0546
15783W        W32044   7.875   9.002  12.068 -0.0511  0.0725 -0.0324
15784W        W32045  10.505   2.387   2.518  0.0979 -0.1280 -0.2748
15785W        W32046   2.206  14.563  14.778  0.0507  0.2537  0.3023
15786W        W32047   4.034   6.955  12.051  0.1468  0.1193  0.4032
15787W        W32048   0.266   7.889  12.873  0.0743  0.0466  0.1212
15788W        W32049   9.264   4.091  11.057 -0.3364 -0.1376  0.0339
15789W        W32050  12.281  18.605  14.872 -0.1535  0.1429 -0.0360
15790W        W32051   6.415   2.782   0.493 -0.3723  0.0005 -0.0414
15791W        W32052   1.011   4.980   3.666 -0.3102  0.0238  0.0389
15792W        W32053  17.887   8.320   3.572 -0.0513 -0.1097 -0.0643
15793W        W32054   3.284  11.879   4.989 -0.2074  0.1163 -0.2084
15794W        W32055   2.830  11.440   4.286 -0.0987  0.2267  0.3026
15795W        W32056  11.585   9.409   0.932 -0.3166  0.1294  0.2079
15796W        W32057  16.306  17.292   2.489  0.1446  0.0030  0.1641
15797W        W32058   9.202  16.426  14.111  0.1514 -0.1615 -0.0787
15798W        W32059  11.498  14.471   4.339 -0.1069 -0.0110 -0.1947
15799W        W32060   0.498  15.338   1.675 -0.1860 -0.1169  0.0827
15800W        W32061   1.874   9.578   2.971  0.1807 -0.0326 -0.2592
15801W        W32062  10.829  14.359  13.012  0.2022  0.1068 -0.1949
15802W        W32063   0.255  12.539  14.828  0.3124  0.0926 -0.1070
15803W        W32064   5.061   4.059  13.242  0.0135 -0.2528 -0.1526
15804W        W32065  18.365   0.464   4.386 -0.1790  0.2649  0.0608
15805W        W32066  11.712   0.693  12.454  0.0773  0.1365 -0.0475
15806W        W32067   0.914  18.217   3.932 -0.0968  0.1734 -0.5676
15807W        W32068   1.700  11.694  11.331  0.0620  0.1296  0.1998
15808W        W32069   3.239  18.412  13.046  0.2877 -0.1173 -0.1930
15809W        W32070  12.303  12.427   4.111  0.2232 -0.0632  0.3127
15810W        W32071  10.133  10.457   3.561  0.0465 -0.0308 -0.1984
15811W        W32072   1.206  14.154  10.501  0.0364 -0.4605 -0.0519
15812W        W32073  18.495   2.651  14.142 -0.2040  0.1830 -0.1826
15813W        W32074   7.461  13.766   0.550  0.1721 -0.1125 -0.0293
15814W        W32075   5.113   4.071  14.830 -0.1499 -0.2397  0.0777
15815W        W32076   6.600   1.012  10.336 -0.0263 -0.3537 -0.0608
15816W        W32077  16.083   5.220  10.982  0.0376  0.0959  0.2523
15817W        W32078   5.730  11.392   4.344  0.0518 -0.0611  0.2634
15818W        W32079  19.328  11.993   3.302  0.3851 -0.2123  0.2563
15819W        W32080   7.504  11.555   4.047 -0.2666  0.1797 -0.1445
15820W        W32081   0.537  19.128   0.937 -0.3597 -0.1383  0.1164
15821W        W32082   2.571  17.514   1.863 -0.1099  0.0275 -0.1607
15822W        W32083  18.627  14.151   0.832  0.1571 -0.0872  0.2425
15823W        W32084   4.904   1.046   2.024  0.1822  0.0438  0.2995
15824W        W32085   0.626   6.933   1.037 -0.0917 -0.2311 -0.1542
15825W        W32086   9.986   4.303  13.691 -0.0440  0.1115  0.2902
15826W        W32087   1.038   8.845  11.299 -0.3854  0.0337 -0.0201
15827W        W32088  14.971  12.273  13.069  0.1427  0.1102  0.1817
15828W        W32089  15.427  10.902   0.374 -0.0419  0.2737 -0.2892
15829W        W32090  16.940   3.690  13.037  0.1939  0.2264  0.0962
15830W        W32091   6.589  13.443   0.676  0.2109 -0.1921  0.3212
15831W        W32092   9.498  14.187   3.986 -0.2177  0.5469  0.1744
15832W        W32093  10.116  12.863  13.723 -0.0041 -0.2842 -0.0681
15833W        W32094   3.083  11.576   1.582 -0.1561 -0.2757 -0.0856
15834W        W32095   2.491   7.254  13.399  0.5548 -0.0689 -0.0313
15835W        W32096   3.605   7.612   2.131 -0.0066 -0.4268  0.1594
15836W        W32097  10.864   2.135  13.917 -0.1731 -0.0031  0.3021
15837W        W32098   4.438  14.291   0.982  0.0725 -0.0076  0.0192
15838W        W32099  15.162  17.100   0.328  0.1799  0.3139  0.1844
15839W        W32100  18.551  16.725  13.502  0.5238  0.3724  0.0780
15840W        W32101   1.040   8.220   4.207  0.0595  0.0586  0.4551
15841W        W32102   0.646   3.727   3.892  0.2478  0.0565 -0.1117
15842W        W32103   5.723  11.949  14.379 -0.2131  0.3793 -0.1831
15843W        W32104   3.320  13.362   1.686  0.0575  0.1256  0.3108
15844W        W32105   2.099   7.867   4.743  0.0243 -0.2320 -0.0522
15845W        W32106   7.813  19.030  11.473 -0.0093 -0.3080  0.1396
15846W        W32107  16.061   5.594   4.544 -0.1916 -0.0134  0.0117
15847W        W32108  13.449   1.093  12.469  0.1544 -0.2311 -0.1192
15848W        W32109   3.825   8.111   0.729  0.3197 -0.1724 -0.0144
15849W        W32110   9.476   7.263   2.482  0.2029  0.1414 -0.1657
15850W        W32111   7.798   1.615   1.286  0.2135  0.1063 -0.0884
15851W        W32112   9.808   3.377  12.919 -0.2785  0.1165  0.0568
15852W        W32113  14.618  16.421  10.649 -0.2089  0.0302  0.0315
15853W        W32114  12.241   2.930  13.495  0.1277 -0.0471 -0.0651
15854W        W32115  17.877   8.329   4.931  0.1563  0.0211 -0.2299
15855W        W32116   9.017   6.822   1.949 -0.0847  0.0628 -0.0670
15856W        W32117   3.499   3.371   1.193  0.4787  0.1261 -0.1828
15857W        W32118  16.822  10.265   5.719 -0.0555  0.2725 -0.0953
15858W        W32119   1.607  17.913   4.396  0.2929 -0.2013 -0.0087
15859W        W32120   9.677   7.369  14.125 -0.0421 -0.0430 -0.0629
15860W        W32121   4.632  16.736  11.729  0.1216 -0.0700 -0.0284
15861W        W32122   1.449   6.918  11.390 -0.0940  0.0913 -0.1239
15862W        W32123   1.861   4.271   5.078 -0.1142 -0.1718 -0.1141
15863W        W32124   9.406   9.335  11.440  0.2169 -0.3751 -0.0087
15864W        W32125  11.564   4.811   1.609  0.2761  0.0480 -0.1898
15865W        W32126   1.839  11.983   5.308  0.2748  0.0586 -0.4460
15866W        W32127   2.699   6.063   0.476 -0.0262 -0.2238 -0.4308
15867W        W32128   6.957   0.414  11.889  0.0970 -0.0190  0.0737
15868W        W32129  17.214  15.807   0.680  0.3363 -0.1367  0.0191
15869W        W32130   2.005  15.337   4.206 -0.0379  0.0781  0.0966
15870W        W32131   2.123   3.781  14.416  0.2326  0.1478  0.0278
15871W        W32132  16.587   1.470   5.926  0.1301  0.2320 -0.0072
15872W        W32133   4.834  17.942  14.490  0.1012  0.0241  0.0960
15873W        W32134   6.809  13.596   4.634  0.0325  0.0477  0.1984
15874W        W32135   3.441  19.059   0.544  0.0773  0.3877 -0.0432
15875W        W32136   9.165   5.113  12.211  0.1885  0.1935 -0.2503
15876W        W32137  18.692   0.337  11.409 -0.3973 -0.2928 -0.1209
15877W        W32138   5.415  15.745   0.332 -0.0054 -0.0484  0.1604
15878W        W32139  17.499   3.034  11.304  0.1005 -0.0202 -0.3866
15879W        W32140   5.406   6.354   1.061 -0.0033  0.0268 -0.0085
15880W        W32141   5.204  14.442   3.922  0.2043  0.2625 -0.1447
15881W        W32142   9.549  11.304  11.054 -0.1861  0.1737 -0.4623
15882W        W32143  19.207  18.107  13.951 -0.1028 -0.1010 -0.1167
15883W        W32144  12.615   3.338   6.040 -0.0283  0.2924  0.3275
15884W        W32145  18.856  14.473  14.396  0.0133 -0.0808  0.2741
15885W        W32146  16.284  13.103   9.607 -0.0578  0.1659 -0.1691
15886W        W32147   4.701  11.513  14.060  0.1687 -0.0695  0.0815
15887W        W32148   0.923  18.056  12.111 -0.2274  0.1741 -0.1806
15888W        W32149  12.497  13.193   1.341  0.0763  0.0865 -0.0102
15889W        W32150  15.433  15.652   4.088 -0.0829  0.0965  0.0909
15890W        W32151   6.968   9.926   1.371  0.0722  0.3212  0.0046
15891W        W32152  18.812  15.484   2.926 -0.1718 -0.1998 -0.2059
15892W        W32153   9.526   6.688   3.848 -0.1637  0.0797 -0.0723
15893W        W32154   2.024  16.886  11.237  0.2092 -0.0582  0.0452
15894W        W32155   0.544  10.639   3.773 -0.0097 -0.1263  0.0483
15895W        W32156  17.696  11.482  10.733  0.4863 -0.1419 -0.1179
15896W        W32157   3.171  12.797  10.461  0.0631 -0.0983  0.2517
15897W        W32158   7.927   3.549   3.797 -0.0461  0.2009  0.2138
15898W        W32159  18.795   3.492   2.058  0.0647  0.1189  0.0749
15899W        W32160  11.871   1.574   0.402 -0.1751 -0.1289 -0.0483
15900W        W32161  19.379  11.274  10.047 -0.1329 -0.1933  0.0449
15901W        W32162  15.549   7.573  11.026 -0.2641  0.5278  0.0400
15902W        W32163   3.661  17.728   4.179  0.0835 -0.1414 -0.1363
15903W        W32164   1.006   2.354  13.103 -0.1508  0.0584 -0.0720
15904W        W32165   8.539   1.044   3.791  0.0569 -0.1154 -0.1706
15905W        W32166   2.092   8.247  11.456 -0.1261  0.1352  0.1778
15906W        W32167   1.181   5.437   3.644 -0.0486 -0.2155 -0.3519
15907W        W32168  16.464  11.870   4.357  0.0511 -0.3801 -0.2067
15908W        W32169  15.489   4.315   2.455  0.0881  0.3287  0.2354
15909W        W32170   8.568   2.250  10.845  0.2736  0.3227  0.1879
15910W        W32171   1.459   7.300   1.652 -0.0965 -0.1063  0.1357
15911W        W32172   8.140   8.319   4.117 -0.0586  0.0505 -0.1548
15912W        W32173  11.032   9.310   2.108  0.1937 -0.4133  0.3238
15913W        W32174  15.453   7.410   0.302  0.2430 -0.2572  0.0028
15914W        W32175   1.134  11.180  11.013 -0.0014  0.1905  0.1795
15915W        W32176  13.934  18.330   0.221  0.2999 -0.0583  0.0212
15916W        W32177   0.906   8.459   3.543 -0.1620  0.1688 -0.0389
15917W        W32178   5.073   5.842   2.933  0.0091  0.0631  0.0850
15918W        W32179   5.588  14.635  11.641 -0.0110  0.1172 -0.1578
15919W        W32180  15.472   6.200  13.409 -0.2116  0.1234  0.4531
15920W        W32181   3.317  15.757   1.217  0.2378 -0.0056  0.1625
15921W        W32182   5.477   7.108  11.303  0.0670 -0.2277 -0.3213
15922W        W32183   1.607  15.215   5.070 -0.2840  0.1462 -0.0912
15923W        W32184  19.285  18.000  12.660  0.0488  0.1481  0.1721
15924W        W32185   5.737   4.034   2.689 -0.2113 -0.1269 -0.0481
15925W        W32186  14.652  18.009   3.125  0.2908 -0.0362 -0.2065
15926W        W32187   7.626  15.067   4.002 -0.1638 -0.3244 -0.1164
15927W        W32188   5.186  15.140  13.289 -0.2615 -0.0322 -0.1829
15928W        W32189  18.808  18.010  13.519 -0.0116 -0.1028  0.2814
15929W        W32190  12.998   2.543  10.724 -0.0359 -0.1425 -0.5436
15930W        W32191   3.018  15.652   2.003 -0.5388 -0.1000 -0.1302
15931W        W32192  12.879   8.730   3.413  0.1562 -0.3246 -0.0755
15932W        W32193  16.101  14.093   3.883 -0.1332  0.1437  0.1906
15933W        W32194   5.963   4.245   0.401  0.1789 -0.0752  0.0039
15934W        W32195  18.554  17.666   2.614  0.1262  0.0688 -0.1125
15935W        W32196   2.631   9.765  13.765  0.2810 -0.2153 -0.0711
15936W        W32197   7.288  10.884   4.825 -0.0700  0.3535  0.4000
15937W        W32198  13.640   2.240  12.329  0.2438  0.5614 -0.2460
15938W        W32199  14.348   6.438   2.405 -0.1562 -0.3496  0.0022
15939W        W32200  12.425   1.862   0.938 -0.1456 -0.0235  0.0950
15940W        W32201  16.265  11.359  14.481 -0.0370  0.1561  0.1567
15941W        W32202   5.451  19.178   2.428 -0.1556 -0.4004  0.2690
15942W        W32203   4.767  10.077  13.211 -0.1074 -0.0499 -0.2932
15943W        W32204  16.550   1.807   4.489 -0.3434 -0.2279 -0.0574
15944W        W32205   2.468  15.035   3.708 -0.0652 -0.1509 -0.3620
15945W        W32206   2.137  11.694  12.926  0.0477 -0.1945 -0.0301
15946W        W32207  12.013   8.696   0.507 -0.1380 -0.0114  0.1765
15947W        W32208   0.503  15.068   2.776 -0.2649  0.2591 -0.0260
15948W        W32209  12.427   9.632  12.995 -0.1402  0.1825  0.0860
15949W        W32210  10.152  17.890   2.300 -0.0346  0.1439 -0.0431
15950W        W32211  17.090   2.774  12.814 -0.0164  0.1858 -0.1757
15951W        W32212   2.452   0.516  11.886 -0.0181 -0.0987 -0.0602
15952W        W32213  11.710  14.940   1.940  0.5298  0.2310  0.0799
15953W        W32214   3.629  17.395   2.830  0.3376 -0.1533  0.2253
15954W        W32215   7.539  19.045   2.503 -0.0751 -0.3112 -0.0963
15955W        W32216   8.837   0.539   3.726  0.0159  0.0617 -0.1346
15956W        W32217  11.891  16.228   1.334  0.0455  0.2829 -0.1786
15957W        W32218   0.009  13.954   4.448  0.0315 -0.2258  0.1408
15958W        W32219   8.718   2.708   4.436 -0.1660  0.2446  0.1423
15959W        W32220  17.792   1.800   0.036 -0.2791  0.0464 -0.2550
15960W        W32221   6.677   7.682  11.445 -0.1598 -0.0716  0.0784
15961W        W32222  18.139   9.181  13.419 -0.1214  0.1369 -0.0473
15962W        W32223   1.600   2.375   0.094 -0.3910  0.2937  0.1508
15963W        W32224  11.474  11.182   0.921 -0.2678  0.0930 -0.3283
15964W        W32225   7.815  10.926   3.397  0.1943  0.0342 -0.1245
15965W        W32226  12.018  17.916   3.166  0.1753 -0.1889  0.2546
15966W        W32227  17.594  11.045  13.722  0.1090  0.2709 -0.0269
15967W        W32228   4.930  18.348   0.325  0.0302 -0.2523  0.0253
15968W        W32229  13.957   5.751  13.062  0.2452  0.0662  0.2780
15969W        W32230  15.901   5.697   3.658  0.0787  0.3501  0.2681
15970W        W32231  11.496  16.391  13.864 -0.0502 -0.0434 -0.0301
15971W        W32232   6.865   3.911   4.300  0.0006 -0.1572  0.2311
15972W        W32233  16.540   7.106   0.161  0.0081  0.2836  0.2738
15973W        W32234  17.867   3.143   1.127  0.1269 -0.3109  0.0122
15974W        W32235  18.039   9.745  11.292 -0.1568  0.0273 -0.1106
15975W        W32236   0.574  19.096  10.988 -0.0452  0.2596  0.0203
15976W        W32237   4.844   8.018   2.032  0.0625 -0.0712  0.0155
15977W        W32238   5.283   1.177  13.871 -0.1509 -0.1990  0.0335
15978W        W32239  12.903  10.092   4.899  0.1623  0.1756  0.1512
15979W        W32240  14.444  13.723   0.253 -0.1409 -0.1330 -0.0868
15980W        W32241  11.295   4.510   3.837  0.0558  0.0556 -0.2809
15981W        W32242   0.355  15.597  14.541 -0.3001 -0.1699  0.0827
15982W        W32243  13.224   5.738   4.795 -0.1684 -0.2830  0.0099
15983W        W32244   3.607  18.734   3.315 -0.0878  0.1203 -0.0209
15984W        W32245  15.784  10.003  10.493  0.0396  0.0027  0.0902
15985W        W32246  14.383  11.031  14.791 -0.1772  0.0862 -0.0880
15986W        W32247   8.906   6.323  10.542 -0.2909 -0.1241 -0.0438
15987W        W32248  16.827  13.199  11.070 -0.1886  0.0474  0.1808
15988W        W32249  14.837  16.574  12.075  0.0311  0.5448 -0.0535
15989W        W32250   3.948   7.489  12.066  0.3047 -0.1599 -0.0666
15990W        W32251   8.062  14.219   4.472 -0.1090 -0.0239  0.1178
15991W        W32252   0.098  10.529   2.023  0.0457 -0.0032  0.2171
15992W        W32253   8.027  19.159   2.674  0.2519  0.0713 -0.1875
15993W        W32254   8.984   3.987   0.242 -0.0799  0.0591 -0.1353
15994W        W32255  12.554   3.365  11.004  0.0148  0.0389 -0.1677
15995W        W32256   6.152   1.630  13.952 -0.1007  0.3693 -0.0368
15996W        W32257   1.870  16.641   9.704  0.0501  0.1189 -0.1139
15997W        W32258   6.949   8.353  13.575  0.0286 -0.1444 -0.0176
15998W        W32259   2.011  14.295   2.013  0.1929 -0.3135  0.1879
15999W        W32260   6.508   7.348  12.439  0.2952  0.3404 -0.0921
16000W        W32261  16.352   4.179   4.482 -0.1573  0.3842 -0.3495
16001W        W32262   1.004   0.521  12.734  0.0664  0.1855  0.3040
16002W        W32263  16.061  18.470  14.584  0.0716 -0.0384  0.1475
16003W        W32264  14.778  16.405   2.507 -0.2276  0.0962 -0.0844
16004W        W32265  13.252  13.113   2.172 -0.3710  0.0557 -0.1300
16005W        W32266  14.641   2.115  11.390  0.0432 -0.1082  0.0093
16006W        W32267   6.093   6.227  12.490 -0.0270 -0.0486 -0.1945
16007W        W32268   9.218   4.780  11.857  0.2290  0.2677 -0.0505
16008W        W32269  11.287  11.486   2.263 -0.0212 -0.0189 -0.0113
16009W        W32270   0.864   4.191   4.101 -0.4920  0.1719  0.2086
16010W        W32271  12.661   9.836  10.832  0.0446  0.1753 -0.0064
16011W        W32272   7.066  14.713   3.408 -0.1844 -0.0079  0.0865
16012W        W32273   9.485  12.042  10.292 -0.1495  0.2166 -0.1871
16013W        W32274   1.119   9.024   4.015  0.0781 -0.1510 -0.0036
16014W        W32275   8.551   6.091  10.844  0.1367 -0.1733  0.2522
16015W        W32276   5.461   0.906  12.899  0.0076 -0.1218  0.0134
16016W        W32277   3.701   9.466  11.770  0.2222 -0.2345 -0.1993
16017W        W32278   1.155  12.447   4.023 -0.1674  0.3544  0.1314
16018W        W32279  16.378   1.183  10.926  0.0845 -0.0135  0.0148
16019W        W32280  16.017  10.674   4.815  0.1797  0.0795  0.0583
16020W        W32281  12.496   4.599   4.713 -0.3247  0.0352  0.0779
16021W        W32282  17.635   6.847   3.927 -0.1854 -0.1429 -0.3437
16022W        W32283  14.132  12.116   9.781  0.1289  0.0933 -0.0868
16023W        W32284   9.281   5.644  13.467 -0.2265 -0.0536 -0.0329
16024W        W32285  12.051   5.173   4.451 -0.0736 -0.0945 -0.0638
16025W        W32286   2.730  12.734  12.855  0.3893 -0.0367  0.2996
16026W        W32287  16.723   3.916  14.305  0.2142 -0.3450  0.0119
16027W        W32288  15.198  13.388  14.564  0.0477  0.1194  0.0121
16028W        W32289   4.361   0.395  12.978  0.0365  0.4667  0.4465
16029W        W32290   6.042   5.310   0.810  0.4758  0.2153 -0.2590
16030W        W32291  15.913  14.915   3.897 -0.2807 -0.2269  0.0890
16031W        W32292   6.631   9.765  13.863  0.2589  0.1933  0.2994
16032W        W32293   6.739  18.707  14.103 -0.0932  0.1419  0.0240
16033W        W32294   4.839   1.399  14.661 -0.3050  0.0494  0.2049
16034W        W32295  10.958   2.637  12.719 -0.2452 -0.1409  0.0982
16035W        W32296  15.953  13.973   3.348  0.3635 -0.3239 -0.0186
16036W        W32297   6.729   3.081   1.924 -0.2991  0.0213 -0.0417
16037W        W32298   6.683   6.702  11.637 -0.3751  0.1936 -0.2166
16038W        W32299  11.905   3.940   5.005  0.0549  0.0798  0.0863
16039W        W32300   4.050  16.592  12.406 -0.2397 -0.1654  0.1178
16040W        W32301  13.075   7.282  10.952 -0.0148  0.3994  0.1841
16041W        W32302  11.063  10.752  14.244  0.0872 -0.3639  0.0331
16042W        W32303   1.933  16.531   4.347  0.4043  0.0050  0.0554
16043W        W32304   4.459   4.621  11.481 -0.0764 -0.6668  0.0015
16044W        W32305   6.838  17.874  12.334  0.5384  0.2713 -0.1994
16045W        W32306  16.508  11.828  13.553  0.0785 -0.2652 -0.4279
16046W        W32307   1.145   3.664   2.452  0.0409 -0.3127 -0.0681
16047W        W32308   6.145   0.142  11.443 -0.3446 -0.1291  0.0987
16048W        W32309   1.034  18.308   0.053  0.0143  0.0999  0.0538
16049W        W32310  14.593   8.317  10.407  0.1844  0.1162  0.0910
16050W        W32311  17.845   3.742  12.780 -0.2754 -0.0536 -0.0162
16051W        W32312   2.396   7.357   2.009  0.1074  0.4499 -0.1337
16052W        W32313  16.705   0.836   3.099  0.0284  0.2431 -0.1979
16053W        W32314   5.146   8.629  13.568 -0.0193  0.2635 -0.1244
16054W        W32315   1.468   8.605  13.048  0.0527 -0.0262  0.0495
16055W        W32316  14.004   7.763   4.467  0.1577 -0.0690 -0.0585
16056W        W32317  11.585  17.977   4.014  0.0548 -0.1431  0.0037
16057W        W32318   3.793   6.869   1.042  0.1822  0.1658 -0.1260
16058W        W32319  10.862   7.955   1.649  0.3059  0.0143  0.0222
16059W        W32320  18.443  15.880  14.427  0.2130 -0.2007  0.0447
16060W        W32321   0.965  18.207  10.600 -0.0166  0.0507  0.1328
16061W        W32322   3.037  10.695   9.514 -0.0538  0.0673 -0.0021
16062W        W32323   6.348  13.598  11.335 -0.1401  0.1664  0.3574
16063W        W32324   6.058   8.691  10.113  0.0595 -0.2559 -0.4139
16064W        W32325  11.732  16.051  11.460  0.3122 -0.2376  0.2459
16065W        W32326   3.690  12.945   2.560 -0.1790  0.2522 -0.0815
16066W        W32327   8.420  18.156   1.244  0.0872 -0.2313  0.1602
16067W        W32328   1.983  10.236   3.475 -0.0498  0.1026 -0.1997
16068W        W32329   3.851   0.966  13.604 -0.0855 -0.0251 -0.0895
16069W        W32330   9.621  17.638  10.933 -0.0281 -0.1628 -0.0501
16070W        W32331  14.005  14.870   9.923 -0.1564  0.1098  0.1360
16071W        W32332  14.743  10.356  13.977 -0.1571  0.1815 -0.1887
16072W        W32333   3.394   7.804   0.795 -0.2105 -0.1096  0.0223
16073W        W32334   2.962   4.474  10.380 -0.0314 -0.0144 -0.1583
16074W        W32335  11.626   8.062  11.526  0.1690 -0.2929  0.0037
16075W        W32336  12.994   9.149  13.650  0.1722 -0.0515  0.1234
16076W        W32337   9.654  16.383   2.022 -0.1661  0.1138  0.1699
16077W        W32338  15.776   5.217   3.469  0.3486  0.1924 -0.2014
16078W        W32339  12.415   7.729  12.971 -0.0380 -0.1121 -0.4466
16079W        W32340   6.553  12.679   3.311 -0.3579 -0.1960 -0.0289
16080W        W32341   5.834   9.900   3.988 -0.0200  0.2509 -0.0162
16081W        W32342   2.536   2.606  14.742 -0.1840  0.2966  0.0917
16082W        W32343   5.444   4.545  13.120  0.2386 -0.1419  0.1257
16083W        W32344   2.034  17.165   5.023  0.0571  0.1999  0.0168
16084W        W32345   2.002  10.345   0.349 -0.1444 -0.1119 -0.0661
16085W        W32346   1.756   1.727   2.644 -0.0077 -0.3776 -0.1518
16086W        W32347  10.709   3.164  11.675 -0.1383  0.0349 -0.0187
16087W        W32348  13.168  11.579  12.294 -0.5162  0.1163 -0.0679
16088W        W32349  15.994   9.627   5.635 -0.0677 -0.0015  0.3144
16089W        W32350   0.558   7.173  13.255 -0.3248  0.0376  0.1703
16090W        W32351  11.531   9.762  13.994  0.1723 -0.2540  0.2143
16091W        W32352  17.814  17.572   4.416 -0.0383  0.0217  0.1526
16092W        W32353  14.187   8.475   2.695  0.1888  0.0893  0.1790
16093W        W32354  16.295   9.986   2.993 -0.2187  0.0864  0.4440
16094W        W32355   7.637   7.789  11.812 -0.3440  0.0756  0.2301
16095W        W32356  16.580   6.763   1.003 -0.1164  0.1441 -0.4186
16096W        W32357  18.999  12.788  11.556  0.1956  0.2546 -0.0166
16097W        W32358   2.637  16.801  13.340  0.1845 -0.4084 -0.1279
16098W        W32359   4.494   8.383   3.686 -0.1828  0.2867 -0.0582
16099W        W32360  11.328   3.491   0.301  0.1488 -0.2149 -0.0435
16100W        W32361  17.184  13.211  13.176  0.0961 -0.1024 -0.1696
16101W        W32362  13.105  17.777   1.734  0.1058  0.2564 -0.1684
16102W        W32363  18.801   2.130  14.218 -0.0758 -0.2149  0.0127
16103W        W32364  11.041   4.081  10.628  0.0797 -0.1638  0.0721
16104W        W32365  19.403   5.768   1.670 -0.0025  0.2850  0.2033
16105W        W32366  15.654   4.149  12.510 -0.0476 -0.0936  0.3272
16106W        W32367  14.758   0.566  12.690 -0.0423 -0.1434 -0.2272
16107W        W32368   0.700   9.314   1.769  0.0631 -0.1501  0.2672
16108W        W32369   6.798   1.414   3.974 -0.0151  0.1655  0.0741
16109W        W32370  16.735  16.627  13.810  0.1028  0.0857 -0.2850
16110W        W32371   3.839   7.614  13.823 -0.0608 -0.0545  0.1337
16111W        W32372  16.522  18.619  11.494 -0.0260 -0.1536  0.2424
16112W        W32373  14.162   9.094   1.409  0.1618 -0.0994  0.1288
16113W        W32374  10.822  14.645   4.056  0.1823 -0.3049 -0.0220
16114W        W32375  16.826   2.160  14.266 -0.0587 -0.1872 -0.0104
16115W        W32376   7.725  14.767  14.306 -0.2118 -0.1050  0.3726
16116W        W32377   5.528  13.742   3.303 -0.0995  0.2222  0.1209
16117W        W32378  18.184  11.865  12.095  0.1345  0.3690 -0.0237
16118W        W32379   6.519  17.454  12.463 -0.0639 -0.3538 -0.1562
16119W        W32380  17.185   8.022   3.574  0.1166 -0.0528 -0.2825
16120W        W32381   9.039  18.598   0.720  0.2064 -0.0478 -0.2184
16121W        W32382   0.401  13.359  10.446  0.0462 -0.2444 -0.0428
16122W        W32383   6.520   8.146   1.945 -0.3084 -0.1043 -0.1721
16123W        W32384   7.587  17.435   4.253 -0.1896  0.2502  0.0545
16124W        W32385   5.655   6.808   5.412 -0.1180 -0.1147 -0.0357
16125W        W32386   3.647  14.479   2.975  0.1213 -0.0534  0.2449
16126W        W32387  15.516   2.201  12.613 -0.0635 -0.2922 -0.3026
16127W        W32388  15.923   4.614  11.015 -0.2060 -0.0338 -0.0162
16128W        W32389  14.669  18.400   9.694 -0.0119  0.0222  0.0574
16129W        W32390  11.975   3.293  14.640 -0.1106  0.1065  0.2537
16130W        W32391   1.221  18.111  14.507  0.0372  0.1882 -0.0130
16131W        W32392   8.460   7.300   0.974 -0.1638  0.3941  0.1675
16132W        W32393   7.316   9.140   5.895 -0.0423 -0.0477 -0.0673
16133W        W32394  13.334  18.197   3.641  0.0184 -0.0582 -0.0109
16134W        W32395  11.703  14.315   0.276  0.1303  0.0705  0.1207
16135W        W32396   4.754  11.169  11.098  0.1732 -0.0167  0.1297
16136W        W32397   2.153   1.623   3.041  0.0447  0.0078 -0.0291
16137W        W32398   3.104  18.939   2.438 -0.2171  0.2980 -0.3484
16138W        W32399   3.203   0.022   3.185 -0.2176  0.0974  0.3375
16139W        W32400  10.773   2.491   2.125 -0.1259 -0.0133 -0.1346
16140W        W32401   6.536  10.093   5.714 -0.2616  0.1197 -0.0915
16141W        W32402  16.296  12.622   9.760 -0.2731  0.1515 -0.3634
16142W        W32403   1.123  14.772  11.060 -0.1067 -0.1170 -0.0292
16143W        W32404  12.466  16.591   1.852  0.0843 -0.0296  0.0768
16144W        W32405   2.954  18.694   3.386 -0.0168 -0.2230  0.3479
16145W        W32406   3.034  12.835   4.446 -0.0966 -0.2405 -0.1937
16146W        W32407  15.850  16.040   1.050 -0.2883 -0.0650  0.1066
16147W        W32408  10.353   4.301  14.451  0.0374  0.0007 -0.1493
16148W        W32409   4.689   2.426  13.879 -0.0495  0.0275 -0.2469
16149W        W32410   6.273   1.405  11.179  0.0497 -0.1566 -0.2181
16150W        W32411  13.124   8.606   2.943 -0.0079 -0.0787  0.3523
16151W        W32412  15.472   3.672   1.690 -0.0584 -0.1964  0.0304
16152W        W32413  13.499   8.832  11.052  0.1600 -0.1137 -0.2824
16153W        W32414   5.560   3.557   1.208 -0.1016  0.1586  0.0691
16154W        W32415  11.694   9.351  10.628  0.1413  0.4571 -0.1947
16155W        W32416  15.281   3.125   3.364 -0.1417 -0.1571  0.0359
16156W        W32417   7.429  19.416  13.154 -0.2963 -0.0687  0.1435
16157W        W32418   7.729  10.565   0.721  0.1564  0.1440 -0.0375
16158W        W32419  14.217   8.748  14.486  0.2341  0.2159 -0.0961
16159W        W32420   2.512   0.882  13.623 -0.2640  0.0656 -0.1646
16160W        W32421   3.945  12.878   1.194  0.0562 -0.1186  0.0977
16161W        W32422   3.464   3.665  11.028  0.1441 -0.1499  0.2764
16162W        W32423  13.417   7.321  10.191  0.2021 -0.4210 -0.0783
16163W        W32424   1.946  18.189  10.971 -0.1686  0.0661  0.1454
16164W        W32425  16.925  12.060   5.686 -0.0348 -0.0072 -0.0667
16165W        W32426  16.192  16.328   3.776 -0.0553 -0.2381  0.1740
16166W        W32427  12.080  13.504  12.297  0.0148  0.2890  0.0623
16167W        W32428  13.814  16.662  13.114 -0.1425  0.4159  0.1162
16168W        W32429  15.198  19.233  12.166 -0.1309  0.4652 -0.2699
16169W        W32430   4.863   8.270  11.986 -0.1069 -0.2861 -0.1959
16170W        W32431   1.892  19.317   3.842 -0.2462 -0.2382 -0.1053
16171W        W32432  12.318  14.319   3.128 -0.2086  0.2392  0.1677
16172W        W32433  12.634   7.835  13.904 -0.2058  0.1683  0.0151
16173W        W32434   5.290   7.990   4.769  0.3006 -0.0551  0.0631
16174W        W32435  15.993   5.800  12.000 -0.2571 -0.2563 -0.1086
16175W        W32436   3.320   0.329  12.488  0.0286 -0.1079 -0.1154
16176W        W32437  16.434  10.470   3.330  0.4927  0.1003 -0.1899
16177W        W32438  10.987   7.724   4.387  0.0661  0.1259  0.0775
16178W        W32439   9.345  14.015  11.391 -0.0567 -0.2321 -0.0086
16179W        W32440   3.129  11.810  12.071 -0.2693 -0.0732  0.0447
16180W        W32441  18.987   1.645   2.625  0.1281  0.3484  0.1181
16181W        W32442   4.886  16.055   2.164 -0.1357 -0.3375 -0.0312
16182W        W32443  12.119   0.541   2.029  0.1481  0.2785 -0.1327
16183W        W32444  10.768  16.853  12.751  0.0637 -0.0706  0.0633
16184W        W32445  11.439   8.189  13.990  0.1194 -0.1850 -0.0480
16185W        W32446   4.371   6.342  11.453  0.1092 -0.2178 -0.0594
16186W        W32447   8.057   4.490  10.794 -0.1520 -0.2271  0.0690
16187W        W32448   8.545   3.322  14.782 -0.1289 -0.0840  0.3468
16188W        W32449  11.987  11.740  12.696  0.2373  0.1588 -0.0383
16189W        W32450  13.223  12.622   0.895  0.1706  0.1386  0.0848
16190W        W32451  15.564  10.517   2.848  0.3447  0.1584 -0.1159
16191W        W32452  16.314  12.279   2.461  0.1116  0.2623 -0.1364
16192W        W32453  18.150   8.226   4.491  0.2651 -0.0004 -0.0571
16193W        W32454   3.495  16.697   3.308 -0.0661  0.1089 -0.1904
16194W        W32455   7.189   2.772  11.165 -0.3336 -0.3670 -0.3396
16195W        W32456  10.668   5.338  13.703  0.1457 -0.2203  0.0914
16196W        W32457   3.540   4.841  10.844  0.2260  0.0429  0.1211
16197W        W32458   3.743  10.688  12.629  0.0702  0.2332 -0.0243
16198W        W32459   5.145   8.312   1.243 -0.2018 -0.2059  0.1624
16199W        W32460   7.367  14.428   0.783 -0.1569 -0.0410 -0.0636
16200W        W32461   2.267   4.299  10.319  0.1823  0.0233  0.0112
16201W        W32462  17.741  15.494   3.551 -0.0646 -0.2093  0.0536
16202W        W32463   2.742  18.597  14.682  0.0476  0.3704 -0.0111
16203W        W32464  17.737  16.765  12.370 -0.5132  0.0998  0.1745
16204W        W32465  13.402   8.908   0.111  0.0034 -0.0316  0.3188
16205W        W32466  18.547  13.822   1.299 -0.1658  0.1538  0.0623
16206W        W32467   3.476  13.706   2.032 -0.1766 -0.4635  0.1666
16207W        W32468   0.588  15.714   9.399  0.1957  0.0943 -0.0513
16208W        W32469   8.935  13.527   1.962  0.1782 -0.2721 -0.2481
16209W        W32470  13.569   2.241   0.636 -0.0283 -0.0158  0.3054
16210W        W32471  14.381  18.928   4.923  0.1121 -0.1570 -0.3227
16211W        W32472  11.579   3.897   4.253 -0.0938 -0.0306 -0.0209
16212W        W32473   9.263  10.306  13.561  0.0587 -0.1825 -0.5054
16213W        W32474   4.488   4.689  12.142 -0.1037  0.0569  0.2721
16214W        W32475  18.113   8.612  11.383  0.0967  0.1552  0.2225
16215W        W32476  11.479  14.524   9.829  0.1326 -0.1442  0.0181
16216W        W32477   7.450   2.093  14.042 -0.2630  0.1382 -0.2085
16217W        W32478   9.749   8.591  13.097 -0.0878 -0.1314  0.1734
16218W        W32479   6.308  18.947   2.131  0.0754 -0.0891  0.1449
16219W        W32480  19.243   8.377   1.659 -0.1307  0.1993  0.2084
16220W        W32481   3.928   0.167  12.767  0.0027 -0.3287 -0.0161
16221W        W32482   2.555  19.301  14.124  0.0865 -0.1125  0.1683
16222W        W32483   2.494   8.160  10.483 -0.0601 -0.2293 -0.1046
16223W        W32484   8.933   2.112  12.129 -0.0051 -0.1847  0.1575
16224W        W32485   2.146  11.845   0.552  0.1938 -0.1418 -0.0636
16225W        W32486  12.104   9.282   3.526  0.1415 -0.1729  0.0260
16226W        W32487   5.085  19.258  14.651 -0.1828  0.0749  0.0109
16227W        W32488  15.121  13.239   1.413 -0.0365  0.1563 -0.0723
16228W        W32489   0.486  17.827  12.236 -0.0013  0.0721  0.0404
16229W        W32490  10.863  12.864   1.060  0.0621  0.0859 -0.1992
16230W        W32491   9.165   9.404   2.962  0.1198 -0.2599 -0.0262
16231W        W32492   9.838  10.854  14.638  0.2415 -0.3212 -0.0668
16232W        W32493   9.330  18.069  12.202 -0.1238 -0.1730 -0.0579
16233W        W32494   3.182  16.850  12.196  0.0457  0.1394 -0.1302
16234W        W32495  18.854  10.471   0.506 -0.0126  0.1148 -0.2130
16235W        W32496  18.184   0.477   5.095  0.1157  0.1416 -0.0649
16236W        W32497   9.844   1.008   1.486  0.1841 -0.0563 -0.1373
16237W        W32498  10.381   9.020  13.796  0.1698 -0.2095 -0.0964
16238W        W32499  15.560  13.241   0.427  0.0637  0.1022  0.1890
16239W        W32500   9.457  14.703   2.246  0.1526  0.1317 -0.0454
16240W        W32501  15.905  13.733  13.103 -0.1267  0.0452 -0.1697
16241W        W32502  13.144  18.349  12.230 -0.3738 -0.0782 -0.0115
16242W        W32503   2.263  16.174  12.789  0.1363  0.2600 -0.0575
16243W        W32504  13.306   8.660  14.555 -0.3160  0.2317 -0.0023
16244W        W32505  15.818   6.754   0.916  0.2246  0.0701  0.2791
16245W        W32506   6.763  13.755   2.239  0.0199 -0.2950 -0.2789
16246W        W32507  10.870  10.991  10.577  0.0368  0.1800  0.2947
16247W        W32508  16.931   5.424   3.441  0.0949 -0.2738 -0.0524
16248W        W32509   0.411   4.333   1.785 -0.2346  0.0400 -0.0494
16249W        W32510  15.549   7.613  14.564  0.0021  0.1364 -0.0081
16250W        W32511  15.661   6.981   3.560  0.2325  0.0355  0.3451
16251W        W32512   3.619  12.134   0.408 -0.1555  0.0770 -0.0229
16252W        W32513   1.888   1.605   3.473 -0.0758  0.2125  0.1735
16253W        W32514   8.917   1.781  11.737 -0.1663 -0.1932 -0.0945
16254W        W32515  11.206   4.440  13.395 -0.2357 -0.0351  0.1270
16255W        W32516  10.662   9.377  11.817 -0.2535  0.0213 -0.0284
16256W        W32517  14.995   1.743   2.151 -0.0790  0.2777  0.1409
16257W        W32518   1.036   1.183   4.687 -0.3529  0.3068 -0.4086
16258W        W32519   4.753  13.845   4.457  0.2030  0.1148  0.0195
16259W        W32520   4.481  12.050  11.983  0.1821 -0.1690  0.2400
16260W        W32521   6.514  13.835  12.258  0.2232  0.1188 -0.2388
16261W        W32522  16.327   3.350   0.518 -0.0549  0.1105 -0.0058
16262W        W32523  18.002   2.775   0.664 -0.3831  0.2132  0.1342
16263W        W32524  10.504   4.236  10.454  0.3049  0.2506  0.1260
16264W        W32525  19.235  16.204  13.458  0.0322  0.1270 -0.0198
16265W        W32526  12.792   0.847  11.718 -0.1936 -0.2530  0.0550
16266W        W32527   1.968   8.781  11.531  0.0100  0.0082  0.1099
16267W        W32528   9.124   0.306   1.334  0.1649  0.0504 -0.0081
16268W        W32529   7.910   3.064  10.713 -0.2225  0.1849 -0.0525
16269W        W32530  12.515   0.945  12.446  0.0365  0.0713  0.2472
16270W        W32531  17.057  11.569  13.077  0.1730  0.2843  0.3737
16271W        W32532  19.152  18.963  14.122 -0.1084  0.2218 -0.1167
16272W        W32533   2.339  11.378  11.852  0.0124  0.2496 -0.1757
16273W        W32534   0.278   9.906  12.744 -0.2072 -0.3395  0.1415
16274W        W32535  17.178   8.590  10.616  0.1067 -0.0298  0.0154
16275W        W32536  13.717  18.146   9.076  0.0859  0.0559 -0.3382
16276W        W32537   3.350   1.333  10.261 -0.3115 -0.0200 -0.1979
16277W        W32538   8.611   8.248   3.297  0.3210 -0.0887 -0.1045
16278W        W32539   0.657  11.781  10.783  0.3350  0.0431 -0.0442
16279W        W32540   4.608   5.622  10.947  0.3527  0.1388  0.2787
16280W        W32541  15.853   8.940  10.642 -0.0923 -0.0405  0.0480
16281W        W32542   7.710   8.247   9.574  0.2323  0.1514 -0.1399
16282W        W32543  17.181   9.111   2.710 -0.1331  0.0796  0.1938
16283W        W32544   2.536   7.336   3.098 -0.2600  0.2526  0.3355
16284W        W32545  18.499  10.037   5.049 -0.0030  0.2898 -0.1066
16285W        W32546  18.668   1.198   3.381 -0.0680  0.2017 -0.0043
16286W        W32547   1.002   4.190   1.103 -0.1321  0.1324 -0.0249
16287W        W32548  18.769  19.005  13.553  0.1622  0.2282 -0.0573
16288W        W32549   5.424  14.236   1.907  0.0628  0.0649  0.2326
16289W        W32550  15.572  14.277  13.339  0.2465  0.0619  0.0527
16290W        W32551   9.845   8.611   3.875  0.2483  0.0029  0.1245
16291W        W32552  12.838   1.261  11.452  0.0116 -0.0413 -0.0333
16292W        W32553  10.376  11.603  13.726  0.0888 -0.2257  0.0208
16293W        W32554  12.596   5.759  12.290  0.1169 -0.2855 -0.0715
16294W        W32555   3.307  15.985  11.268  0.1856  0.1440 -0.2089
16295W        W32556  15.793  18.201   2.849 -0.1326 -0.0679  0.0037
16296W        W32557  10.618   9.054  11.234  0.0565 -0.2266 -0.3947
16297W        W32558   4.628   9.278  14.606  0.0432  0.0717 -0.0579
16298W        W32559   1.990  13.121  11.461  0.2482 -0.3837 -0.1287
16299W        W32560  18.201   4.531   2.581 -0.0726 -0.0343 -0.2808
16300W        W32561   2.596   1.868   3.954  0.0445 -0.1808  0.2264
16301W        W32562  11.581   0.891  13.871 -0.0534  0.1907  0.4679
16302W        W32563   0.308  17.684  13.624 -0.1879  0.0575 -0.0379
16303W        W32564  11.569   6.767  11.375 -0.0683 -0.1924 -0.2505
16304W        W32565   6.320   6.406   2.430  0.1682  0.2675  0.0944
16305W        W32566   7.744  13.348  11.679  0.1861  0.4976  0.0107
16306W        W32567   5.159  15.982  11.926  0.1706  0.0210 -0.2965
16307W        W32568   6.872  18.856  12.147 -0.0486  0.4381  0.3120
16308W        W32569  13.472  14.963   2.422 -0.0024  0.0087  0.1641
16309W        W32570  11.379   6.595  11.987 -0.3282 -0.2704  0.4908
16310W        W32571  14.132   4.700   2.614 -0.1697  0.1493  0.1590
16311W        W32572   6.173   4.362   1.851 -0.0523 -0.0917 -0.1606
16312W        W32573   2.108  14.651   5.705  0.1451  0.0402 -0.1088
16313W        W32574   2.421  14.153  14.609 -0.0942  0.1610 -0.1983
16314W        W32575   4.418   6.114   5.324  0.1244  0.2507  0.0232
16315W        W32576   2.012   0.539   6.035  0.3172  0.1118  0.0889
16316W        W32577  11.857   2.705   2.913  0.2579  0.0049 -0.0010
16317W        W32578   8.124  15.868  14.629  0.2685  0.0113 -0.1818
16318W        W32579  13.704   3.740  11.394  0.0591  0.1738 -0.2857
16319W        W32580  12.094   5.903  10.977 -0.0533  0.0577 -0.0419
16320W        W32581   8.699   0.616  10.080  0.1680 -0.1591 -0.0830
16321W        W32582  14.100  18.677  11.832 -0.4357 -0.1838 -0.4032
16322W        W32583   4.733   3.976   5.736 -0.2160  0.0356  0.2327
16323W        W32584   3.523  18.904   2.161 -0.0948 -0.0763 -0.0188
16324W        W32585  13.975  19.356  11.119 -0.0501  0.3011 -0.2030
16325W        W32586   0.829   7.919   0.095 -0.1771 -0.1845  0.0078
16326W        W32587   1.055   2.430  13.862 -0.0274 -0.2624 -0.1160
16327W        W32588  19.308  11.456  11.326 -0.1402  0.1040  0.1717
16328W        W32589  11.827   8.652  11.862 -0.0320  0.0156  0.0583
16329W        W32590   6.195  17.010   5.326 -0.0333 -0.1545  0.0498
16330W        W32591  18.858   4.676  12.227  0.1358  0.2697 -0.0887
16331W        W32592   5.930   2.520  11.688  0.1545  0.1625 -0.1180
16332W        W32593  11.452   0.004   2.890 -0.3747 -0.0056  0.1101
16333W        W32594  13.149  10.003   3.159  0.0501  0.1873  0.0716
16334W        W32595  13.258   6.426  10.641 -0.1898 -0.0773 -0.1601
16335W        W32596  15.206  19.358  11.271 -0.1486 -0.2397  0.2270
16336W        W32597   4.406  10.939   2.331 -0.2568 -0.1534  0.1159
16337W        W32598   8.997  18.678  11.704 -0.2202  0.2601  0.0982
16338W        W32599  13.219   4.144  13.058 -0.1887 -0.4210 -0.0768
16339W        W32600   4.974  14.196  11.602 -0.1501 -0.1130  0.0873
16340W        W32601   2.157  14.559  13.324 -0.3075 -0.0521  0.2347
16341W        W32602   9.727   7.991  12.031 -0.0085 -0.1563 -0.0899
16342W        W32603   0.103   4.407  11.187 -0.2777 -0.1918  0.0408
16343W        W32604   9.453  15.094  12.293  0.3313  0.2466  0.2523
16344W        W32605  10.103  17.847  11.627 -0.0671  0.0799 -0.1507
16345W        W32606   7.263  19.442  13.827  0.0010  0.1398 -0.1650
16346W        W32607  15.431  17.366   3.959  0.2365  0.0789  0.1767
16347W        W32608  14.079   8.052  11.613  0.0780 -0.0470  0.0385
16348W        W32609  15.150  14.274  13.617  0.0776 -0.1561  0.1050
16349W        W32610   8.978   5.554   4.137 -0.6146 -0.0703 -0.1919
16350W        W32611   3.125  16.046   2.372 -0.2453 -0.3033 -0.2867
16351W        W32612   0.743   5.670  12.072  0.0956  0.2489  0.1410
16352W        W32613  17.701   2.515   2.026 -0.1002  0.0910 -0.2130
16353W        W32614  12.413   4.549  14.095  0.1344  0.0510  0.0587
16354W        W32615   4.788   8.397   3.319 -0.0085 -0.3630 -0.3263
16355W        W32616   9.096   7.893  11.096 -0.1647  0.0167 -0.0183
16356W        W32617   2.441   9.567  11.860 -0.0729  0.1051  0.0454
16357W        W32618   1.498   3.682   0.481  0.2803 -0.0437 -0.0525
16358W        W32619  15.274   1.243  10.368 -0.1743  0.0448 -0.2860
16359W        W32620   3.685   4.866  11.798  0.2329 -0.0816 -0.1686
16360W        W32621  18.788  11.644  12.796 -0.2328 -0.2719 -0.0488
16361W        W32622  17.607  16.934  13.688  0.3130  0.0331 -0.1170
16362W        W32623   1.498  16.989   5.246 -0.4159 -0.0842 -0.1044
16363W        W32624   2.099   0.270  11.313 -0.1277  0.2540 -0.2046
16364W        W32625  17.961  19.211   1.412 -0.3788 -0.1938  0.2739
16365W        W32626   6.189   8.147  12.105  0.0907 -0.1361  0.3324
16366W        W32627  10.821  11.818   1.098 -0.0915 -0.0997 -0.0617
16367W        W32628  17.277   0.601   5.169 -0.1896 -0.1188  0.1515
16368W        W32629  11.751   9.115   2.474 -0.1483 -0.3518  0.2210
16369W        W32630   5.135  16.773  10.465  0.3420 -0.1176  0.3778
16370W        W32631  14.770   5.059   4.539 -0.1581 -0.0773 -0.0331
16371W        W32632  18.915  10.168   3.643  0.0100 -0.0309  0.1145
16372W        W32633   6.200  12.767  10.371 -0.0589  0.1092 -0.0293
16373W        W32634  14.007  14.302  14.638  0.0730  0.0232  0.1124
16374W        W32635   0.250  13.319   1.473  0.3148  0.2618  0.0370
16375W        W32636   8.089   5.508   3.549 -0.0143 -0.1408  0.1559
16376W        W32637   4.900  14.492  14.206  0.0980  0.1543 -0.4162
16377W        W32638  10.198   8.235   0.498  0.0480 -0.2081  0.1829
16378W        W32639  15.369   2.065   2.940 -0.2110 -0.2062  0.2097
16379W        W32640  16.156  17.051   4.317  0.0510 -0.2342 -0.1902
16380W        W32641  12.973   8.012  10.302  0.0461 -0.1134  0.3200
16381W        W32642  12.432   3.431   1.114 -0.0437  0.0445 -0.0659
16382W        W32643  15.567   6.787   9.200  0.0893 -0.0671  0.2420
16383W        W32644   4.047  12.295  12.100  0.2675  0.2111 -0.1478
16384W        W32645   7.069   2.066   0.743 -0.2496 -0.0471  0.2915
16385W        W32646  17.195  14.198   0.928 -0.4060  0.1697 -0.3961
16386W        W32647   3.628  13.348   1.253  0.0102 -0.1101  0.1296
16387W        W32648   6.041  15.742   3.963 -0.2007 -0.1107  0.1411
16388W        W32649   1.702   9.194   5.606  0.0132 -0.0962  0.4354
16389W        W32650  10.507   7.038  13.865 -0.1366  0.3787  0.0344
16390W        W32651   1.233  17.430   2.301  0.1222  0.0808  0.2226
16391W        W32652   5.291  15.796  12.478 -0.3056  0.2503 -0.1525
16392W        W32653  16.610   2.368   5.151 -0.0414  0.1940 -0.0366
16393W        W32654  10.986   6.124  11.201  0.1071  0.0312  0.3141
16394W        W32655  10.462   5.637   0.043  0.2599  0.0006  0.1276
16395W        W32656  16.222   4.690   1.157  0.2329  0.2794  0.0904
16396W        W32657  13.348  15.218  14.281 -0.0989  0.1696 -0.2718
16397W        W32658   1.074  18.174   3.489 -0.2351  0.2714  0.4723
16398W        W32659   5.350  13.988   1.086 -0.0764 -0.1617 -0.1651
16399W        W32660   1.301  14.337   3.266 -0.0068 -0.2380 -0.0739
16400W        W32661  10.204   5.984  13.699 -0.1599  0.1012 -0.0005
16401W        W32662  10.876  18.056  10.495 -0.1035  0.0359  0.0614
16402W        W32663  15.734   9.579   2.743 -0.0674 -0.3309  0.0554
16403W        W32664  14.473   2.561  10.643 -0.0690  0.3164 -0.2307
16404W        W32665  15.248   8.398  11.540 -0.1041 -0.0059  0.2664
16405W        W32666  13.412   6.089   4.406 -0.2010 -0.1115  0.0025
16406W        W32667  12.933   5.903  10.851  0.0287 -0.1427  0.0646
16407W        W32668  15.208  16.735   2.320 -0.0262  0.0138  0.2453
16408W        W32669  11.280  14.293   5.226 -0.3264  0.1179 -0.1992
16409W        W32670  12.236  18.998  13.921 -0.0432 -0.0698 -0.2034
16410W        W32671   7.485  12.390   3.628 -0.0544 -0.0447  0.2229
16411W        W32672  12.765   0.327  11.799  0.5097  0.1686  0.2202
16412W        W32673   7.945  10.399  11.096 -0.1841  0.6489  0.0364
16413W        W32674  16.477   1.876  13.885 -0.0978 -0.0296  0.0757
16414W        W32675  13.477  11.003  10.334  0.1046 -0.2155 -0.4127
16415W        W32676  10.586   6.676   1.202  0.0533  0.0573  0.0292
16416W        W32677   8.186   2.400   1.135 -0.2173 -0.2160  0.2174
16417W        W32678  16.867  17.808  11.572  0.0124 -0.1680  0.0720
16418W        W32679   0.146  13.032   1.072 -0.1445 -0.2052 -0.0950
16419W        W32680  16.127   9.184  11.161 -0.0055 -0.2771 -0.4124
16420W        W32681   8.930   1.875   0.816  0.1592  0.1194  0.2052
16421W        W32682  13.093   6.949  14.709 -0.0191  0.0230  0.4512
16422W        W32683  11.916   0.747   0.876  0.1221  0.2717 -0.2544
16423W        W32684   2.178  17.883   5.362  0.1058 -0.2005 -0.2126
16424W        W32685   1.093  17.750  11.299 -0.0537  0.0830  0.3291
16425W        W32686  17.689  15.507   1.584  0.0230 -0.2955 -0.2177
16426W        W32687   0.508   6.650  14.592 -0.2793  0.0762  0.1550
16427W        W32688   6.583   5.692  12.586  0.0285  0.2082 -0.0059
16428W        W32689  18.798   8.146   1.607  0.0074 -0.1533  0.1555
16429W        W32690  15.161  18.092   1.980  0.1727  0.0190  0.1225
16430W        W32691   3.555  15.905   3.690  0.1038  0.1230  0.0394
16431W        W32692   2.582  10.368   3.141  0.0811  0.0260 -0.1137
16432W        W32693  12.862   1.059   4.220 -0.0683  0.0097 -0.4145
16433W        W32694  17.798  12.298  13.504  0.1771 -0.1089  0.1763
16434W        W32695   4.939   7.019  12.931 -0.1694 -0.0528 -0.0802
16435W        W32696   4.676   5.147   4.205  0.1166  0.0762 -0.2713
16436W        W32697   9.150   8.365   3.227 -0.0062 -0.0073  0.2817
16437W        W32698   8.565   7.995  13.761  0.0753 -0.0648  0.0677
16438W        W32699  17.415  10.031   9.647 -0.0570 -0.2150 -0.1024
16439W        W32700  11.592  18.584   1.372 -0.1793  0.3138 -0.4040
16440W        W32701   9.182  15.878  11.754  0.0360  0.0749 -0.0097
16441W        W32702   0.662   8.570   5.121  0.0382  0.0352  0.0615
16442W        W32703  15.116   6.314  10.928  0.1147  0.1323 -0.2658
16443W        W32704  10.589  16.047   1.669  0.1534 -0.1770  0.5977
16444W        W32705   0.300   3.940  11.088  0.2051 -0.2945 -0.1501
16445W        W32706  14.782  11.587   4.438 -0.2513  0.4444 -0.0285
16446W        W32707  13.538   6.997   3.692  0.0419  0.1746  0.0111
16447W        W32708  10.120   8.057  11.587  0.1921  0.2370  0.0256
16448W        W32709  18.179  19.289   1.905  0.0112 -0.1136  0.0249
16449W        W32710  13.074  13.325   1.467 -0.0880  0.0652 -0.1484
16450W        W32711  10.614  16.886   1.784  0.1619 -0.0953 -0.0443
16451W        W32712   1.577   6.145   6.186 -0.1679 -0.1416  0.3556
16452W        W32713   3.605   3.656  12.045 -0.0299 -0.2391  0.4318
16453W        W32714  17.119   4.067  13.851 -0.2651  0.0590  0.1695
16454W        W32715   8.943   3.411   1.960  0.1921 -0.3540  0.0185
16455W        W32716   2.364  16.094  10.616 -0.0098 -0.0322 -0.0713
16456W        W32717   7.984   7.119  11.542  0.0441  0.0468 -0.2062
16457W        W32718   0.048  10.551   3.384 -0.3385  0.2134 -0.0882
16458W        W32719  11.603   0.479   1.173 -0.1452  0.1700  0.2701
16459W        W32720  14.534   1.453  13.784  0.2166  0.1512 -0.1517
16460W        W32721  18.431  10.992  10.870  0.3824 -0.5547 -0.2091
16461W        W32722   7.724   9.974  11.685  0.0480 -0.0059 -0.1221
16462W        W32723  11.691   5.746  13.444 -0.3633 -0.1479  0.0414
16463W        W32724  15.855   1.788  13.362  0.0047 -0.0127 -0.4151
16464W        W32725   6.235   1.108  13.732  0.3020 -0.1858 -0.0243
16465W        W32726   2.940  18.444  11.484  0.4908 -0.0320  0.0941
16466W        W32727  11.971  15.473   2.983 -0.1715  0.2227  0.2372
16467W        W32728   8.622   7.203  13.171  0.0037 -0.0506 -0.2411
16468W        W32729  13.688   8.151   4.348  0.0368  0.3010  0.1904
16469W        W32730   9.072   7.712   1.202 -0.0302 -0.1896 -0.0155
16470W        W32731   3.902   7.875   4.971 -0.0674  0.1582  0.0274
16471W        W32732  12.980   4.844  11.105  0.3014 -0.0756  0.0828
16472W        W32733   6.103   5.111  13.051  0.1585  0.0451 -0.3071
16473W        W32734   4.199  17.849  14.036 -0.0141  0.0647 -0.1140
16474W        W32735  19.090  11.269   2.545 -0.1273  0.1229 -0.1946
16475W        W32736  12.500  14.733  12.939 -0.0071 -0.1143 -0.0542
16476W        W32737  15.410   5.487   5.200 -0.3532  0.0847  0.0958
16477W        W32738  14.647  13.531  12.637  0.1940 -0.1937  0.1646
16478W        W32739   4.003   3.239  10.586 -0.0115  0.0423 -0.0593
16479W        W32740  10.595   8.668  14.660  0.2094 -0.1972 -0.1227
16480W        W32741   4.923   2.222   4.504  0.0405  0.0795  0.3157
16481W        W32742  12.023  14.810  14.639  0.0094 -0.0327 -0.0549
16482W        W32743  15.591   3.172   4.825 -0.0283 -0.0109 -0.1930
16483W        W32744   2.685   0.629   3.918 -0.3103 -0.0809 -0.1616
16484W        W32745  11.206  15.077  10.811 -0.2197  0.0652 -0.1605
16485W        W32746   8.906   2.830  14.585 -0.0561 -0.2278  0.3199
16486W        W32747  16.245   0.897   3.314 -0.2384 -0.0945 -0.5889
16487W        W32748   3.802   1.704   1.826  0.1844 -0.1250  0.1630
16488W        W32749   0.209  12.524  12.086 -0.2934 -0.2136 -0.0919
16489W        W32750  17.313  14.310  12.131 -0.0931 -0.0288 -0.2701
16490W        W32751   2.542  15.940   4.912 -0.1837  0.0187  0.0643
16491W        W32752   1.915   2.056  14.322 -0.0676  0.1479  0.1829
16492W        W32753   1.032  14.727   2.254 -0.0519 -0.0998  0.1339
16493W        W32754  16.763  19.304  13.226  0.2352 -0.1804 -0.2300
16494W        W32755   1.359  11.646   0.217  0.1064  0.3266  0.0934
16495W        W32756  17.101  10.778  14.368 -0.1216 -0.0566  0.0465
16496W        W32757   3.957   4.044   2.573  0.0868 -0.3023  0.1045
16497W        W32758  16.814  11.388  11.829  0.1181 -0.1617  0.1865
16498W        W32759  17.360  17.571   2.307  0.2128 -0.0161  0.1008
16499W        W32760   1.670   5.226  11.054 -0.1877  0.0315  0.3904
16500W        W32761  19.155  17.705  14.388 -0.0716  0.1276  0.1996
16501W        W32762  14.939  13.528   4.049 -0.0126 -0.0769  0.1318
16502W        W32763  18.742   3.958  12.898  0.0998 -0.4625 -0.1639
16503W        W32764   9.484  15.190  10.482 -0.0035 -0.0346 -0.1755
16504W        W32765  10.307   4.507   0.100  0.1486  0.1065  0.0565
16505W        W32766  13.557  13.849   2.003 -0.2121  0.0683 -0.0559
16506W        W32767  19.219   1.865  12.938 -0.0227 -0.0152 -0.1512
16507W        W32768  13.716   3.084  11.813  0.0417 -0.2826  0.2935
16508W        W32769  13.513  11.793  11.735 -0.2902 -0.0235  0.4472
16509W        W32770  17.945   7.943   0.231 -0.0613  0.1207  0.0359
16510W        W32771  17.373   4.888   4.246 -0.1956 -0.5563 -0.1556
16511W        W32772   2.101  18.528   0.519 -0.0275 -0.2566 -0.1343
16512W        W32773   0.290   8.829  12.685  0.2429  0.1405 -0.4226
16513W        W32774   0.668  12.240  13.798 -0.2288 -0.1168  0.0209
16514W        W32775   3.112  12.713   0.627  0.0648 -0.3242  0.2928
16515W        W32776  14.158   8.388   1.957 -0.1918  0.3014 -0.2121
16516W        W32777   6.813  17.351   2.958  0.0811 -0.1153  0.0813
16517W        W32778  16.606  15.494  12.026  0.1060  0.0787  0.0236
16518W        W32779  18.684   5.398  10.940  0.0870  0.0101 -0.0051
16519W        W32780  14.641  11.301   2.134 -0.0314 -0.2487 -0.1184
16520W        W32781  15.382   5.045   0.014  0.0132 -0.0152 -0.0151
16521W        W32782   9.008  19.234  11.405 -0.2594 -0.0935 -0.1676
16522W        W32783  19.326  12.042  10.461 -0.0208 -0.2591 -0.2751
16523W        W32784  13.083   3.415   3.833  0.4882 -0.1160  0.0363
16524W        W32785  16.932   8.654  13.855  0.0042  0.0430 -0.1311
16525W        W32786   3.917  10.584   0.825 -0.0940 -0.2319 -0.2463
16526W        W32787  19.425  17.754  13.082 -0.1325 -0.1220 -0.0769
16527W        W32788   9.938   0.639   1.939  0.1310 -0.0479 -0.0940
16528W        W32789   8.276   4.893  10.602 -0.1937  0.0608 -0.1730
16529W        W32790   5.788  18.683  11.561 -0.0955 -0.0228 -0.3295
16530W        W32791  18.207   3.524  14.104  0.2153 -0.0837 -0.2540
16531W        W32792   7.387  17.479   2.784 -0.0322  0.0486  0.1067
16532W        W32793  18.078   4.094  11.520  0.3059  0.3752  0.0737
16533W        W32794   8.928  12.779   4.734 -0.3303  0.2880 -0.2839
16534W        W32795  11.508   0.368   1.620  0.0107  0.4072  0.1517
16535W        W32796  15.151  10.005   0.893 -0.1917  0.2911  0.1712
16536W        W32797   6.779   7.092   3.274 -0.2109 -0.2192  0.0974
16537W        W32798  12.474   5.162   4.664  0.0538 -0.1879 -0.0594
16538W        W32799  14.400  19.365  11.412 -0.2391 -0.3327  0.1331
16539W        W32800   2.800   8.281   4.640 -0.0529  0.2261 -0.0926
16540W        W32801   9.920   0.794  13.609 -0.1320  0.2079  0.0104
16541W        W32802   5.011  18.546   9.894 -0.1941 -0.2808  0.0133
16542W        W32803   3.003  18.062  10.988 -0.0025  0.0057 -0.0566
16543W        W32804  18.415  12.640   3.495 -0.1094 -0.2018 -0.1510
16544W        W32805  18.933   6.594  11.253 -0.1273  0.1469  0.0914
16545W        W32806  16.500  13.175   1.730  0.0083  0.0333  0.0175
16546W        W32807  10.767   1.960   2.890 -0.0805  0.0803 -0.4361
16547W        W32808  15.198  11.016   4.740  0.3797 -0.0190  0.0521
16548W        W32809  19.404   2.493   3.020 -0.0824 -0.3120  0.0669
16549W        W32810  12.522   2.116  12.896  0.1206  0.1674  0.0360
16550W        W32811  10.852   4.099  14.192 -0.4262 -0.1156  0.2040
16551W        W32812   6.545  14.469  11.197  0.0022 -0.2600  0.3270
16552W        W32813   1.712   2.813   2.788  0.1325 -0.1562  0.3389
16553W        W32814  16.362  18.671   2.144  0.1545 -0.1402 -0.3404
16554W        W32815   6.524  11.552   0.422 -0.0494  0.3768 -0.1762
16555W        W32816  14.881  10.383   4.064  0.4282  0.4630 -0.1256
16556W        W32817   6.932  18.193   3.935  0.0355  0.2911 -0.1229
16557W        W32818  14.098   1.039   3.504  0.0943  0.0110  0.2742
16558W        W32819   6.610  14.556   1.386 -0.3458 -0.0450  0.0893
16559W        W32820  16.342  12.342  12.232  0.3892 -0.3306 -0.0252
16560W        W32821   2.868  18.166  14.354 -0.1285 -0.0702  0.0266
16561W        W32822   6.426  10.981  10.604 -0.0493  0.0552  0.1824
16562W        W32823  10.779  10.566  11.822  0.0087  0.0022  0.1433
16563W        W32824  12.737  16.455   9.447 -0.2514 -0.0904  0.1653
16564W        W32825  13.195   9.208   1.853  0.3377  0.1203  0.1822
16565W        W32826   1.282   8.735   0.907  0.2959 -0.1514  0.1332
16566W        W32827  17.613   8.458   0.731 -0.3559 -0.1984  0.2912
16567W        W32828   8.553   9.087   4.976 -0.0975 -0.0409  0.0926
16568W        W32829  17.808   1.582   3.809 -0.2091  0.0330 -0.1123
16569W        W32830  17.877  10.291  13.273 -0.0688  0.0892 -0.0126
16570W        W32831   7.187   6.343   2.956  0.3867 -0.0854 -0.0746
16571W        W32832   5.006  17.211  13.904  0.3011  0.4226 -0.2263
16572W        W32833  14.089  19.437  10.613 -0.1533  0.1095  0.4009
16573W        W32834   5.150  15.954  13.854  0.0487 -0.1351  0.1002
16574W        W32835  14.852  13.794   2.788 -0.3660 -0.0524 -0.2574
16575W        W32836  10.374  16.885   2.228 -0.2515  0.0414  0.0546
16576W        W32837   5.788  17.192   3.280 -0.0000  0.0385 -0.1034
16577W        W32838   2.195   9.747   1.024 -0.2087  0.2486 -0.1651
16578W        W32839  15.930   5.797  12.534 -0.1089 -0.2999  0.2056
16579W        W32840  19.107   0.716   2.018  0.1417 -0.0211 -0.0578
16580W        W32841   2.143  13.151  14.571  0.1233  0.3956  0.2458
16581W        W32842  10.513   9.575  11.297 -0.1820  0.6070 -0.4107
16582W        W32843   1.820  10.120  13.466  0.0830  0.1228 -0.2077
16583W        W32844  10.909   6.785   2.436  0.2955  0.3603 -0.1132
16584W        W32845  15.460   1.145  11.395  0.2488 -0.1478  0.3011
16585W        W32846  18.469  11.478  11.126  0.1449 -0.0136  0.0674
16586W        W32847  11.361  19.441   3.546 -0.1204 -0.3043 -0.0170
16587W        W32848   1.639  17.984  11.580  0.1812 -0.0170  0.2486
16588W        W32849  17.111   8.949  13.462 -0.3977 -0.1954 -0.2750
16589W        W32850  13.095   7.002   2.607 -0.1652 -0.0889  0.3756
16590W        W32851   7.273  15.746  10.785  0.0194  0.1744  0.0046
16591W        W32852   8.965   2.145  10.585 -0.1416  0.1258 -0.1303
16592W        W32853   6.260   4.466  12.397  0.1956 -0.0447 -0.5186
16593W        W32854   1.628  12.012  13.551 -0.4228 -0.1925  0.0419
16594W        W32855   1.727  13.015  11.863  0.1336 -0.2161 -0.0984
16595W        W32856  14.707  12.676   3.993 -0.2315  0.0786  0.1710
16596W        W32857   7.423  13.280  14.105 -0.2282 -0.2425  0.0281
16597W        W32858  14.056   7.071  10.263 -0.1416 -0.0735 -0.0829
16598W        W32859  17.697  14.297   4.761  0.6187 -0.0156  0.0658
16599W        W32860   3.305  14.948   1.453  0.1807 -0.2392  0.1648
16600W        W32861  18.841  14.014  10.438 -0.0760  0.2689  0.1372
16601W        W32862   9.954  13.718  13.518 -0.1496  0.0585 -0.0188
16602W        W32863  18.649  14.770  12.450  0.1036  0.3606  0.0834
16603W        W32864  17.954   3.403  11.498 -0.2599 -0.1435 -0.2643
16604W        W32865  12.305   1.894   3.195 -0.0591 -0.2612 -0.0885
16605W        W32866   4.131   1.551  10.751 -0.0907 -0.1332  0.2203
16606W        W32867  12.054   7.657   2.783  0.1618  0.3732 -0.0738
16607W        W32868  10.470   3.404   0.509 -0.1312 -0.0430  0.0691
16608W        W32869   1.611   0.807  12.416 -0.0111 -0.1139  0.0700
16609W        W32870   3.308  15.337   2.273 -0.1731 -0.3051  0.1572
16610W        W32871   3.689   7.260  14.345  0.0913 -0.0603  0.0486
16611W        W32872  12.957  14.824  13.258  0.1459  0.2375 -0.2067
16612W        W32873  11.308  11.442   3.611  0.1473 -0.1336 -0.1555
16613W        W32874   0.209   2.036   0.116 -0.0476 -0.2252 -0.3681
16614W        W32875   4.533  11.135  10.517  0.1151  0.0949  0.0270
16615W        W32876  16.056  14.535   4.283 -0.0084 -0.1120  0.1131
16616W        W32877   1.607   6.033  14.252  0.0262  0.1005 -0.1472
16617W        W32878  12.721  15.005  12.066  0.0541 -0.3597  0.3873
16618W        W32879  14.820   9.025   4.167  0.0508  0.1639  0.1693
16619W        W32880  17.663   6.488  12.108 -0.4000  0.1684  0.2569
16620W        W32881   2.367   3.222   3.369 -0.0533  0.0357 -0.3154
16621W        W32882   6.610   8.719   1.960 -0.1287  0.0245 -0.1283
16622W        W32883  13.380   7.853   3.655  0.0445  0.1972 -0.1441
16623W        W32884  14.353   8.633   3.347  0.1158 -0.3092  0.2817
16624W        W32885   8.596  11.455   2.335  0.0529 -0.2406  0.0501
16625W        W32886   6.868   2.405   3.117  0.1500 -0.1014 -0.1544
16626W        W32887  18.349   3.906   4.709 -0.0066 -0.1025 -0.4386
16627W        W32888   6.845  12.157   1.721 -0.3295 -0.0194  0.3619
16628W        W32889   1.038  12.478  14.034 -0.3703 -0.0676 -0.0129
16629W        W32890   6.119  19.352   1.211  0.2791 -0.0671  0.0152
16630W        W32891  13.381  11.232   3.955  0.2213 -0.0244  0.0879
16631W        W32892  14.292   7.233   0.391  0.2371 -0.1215 -0.2561
16632W        W32893   3.213  19.309   3.979 -0.1660  0.1051  0.0394
16633W        W32894   9.346  14.373  12.996 -0.0912  0.0215 -0.0122
16634W        W32895  19.356  12.170   0.906 -0.0163 -0.4174  0.0726
16635W        W32896  18.169  10.822  11.236  0.0872  0.6706 -0.2041
16636W        W32897  17.213  10.469   4.416  0.0506  0.0167 -0.2740
16637W        W32898   7.483   4.416   3.781 -0.3576 -0.0325 -0.0431
16638W        W32899   2.409   0.252   1.650  0.0228  0.0204  0.0305
16639W        W32900   9.169   5.669   1.440  0.0497 -0.0006  0.2885
16640W        W32901   0.687   8.635  14.351 -0.2726 -0.0979 -0.1431
16641W        W32902   4.844  12.770  13.319  0.0297 -0.0258 -0.0038
16642W        W32903   0.259   0.444   2.482 -0.1557  0.0514  0.1057
16643W        W32904  13.554  10.639  14.502 -0.1288  0.2267 -0.1718
16644W        W32905  10.880   2.239  11.423  0.2128 -0.0450  0.0203
16645W        W32906  16.847   2.681   4.129  0.1918  0.2642  0.2838
16646W        W32907  10.342  10.735   5.483  0.2176  0.0736 -0.4032
16647W        W32908  14.361  13.825   1.682  0.0481 -0.0572 -0.0699
16648W        W32909  19.324  16.988   3.407 -0.3432  0.6871 -0.0405
16649W        W32910  15.913   6.316   2.204 -0.0151 -0.1648  0.1078
16650W        W32911   5.949  12.953   0.389  0.3198 -0.2527  0.2303
16651W        W32912  17.049   2.551   5.059  0.1988  0.0504  0.3355
16652W        W32913  15.070   1.658   1.314 -0.1098  0.1485  0.2878
16653W        W32914   9.680   9.553   3.018 -0.0267  0.2445 -0.1479
16654W        W32915  18.805   6.704  12.604  0.2120 -0.2802 -0.2509
16655W        W32916   2.299  16.050  11.274 -0.0577  0.0181 -0.0866
16656W        W32917  12.014  13.334   1.341  0.0656  0.2120  0.0832
16657W        W32918  16.816  18.025  13.267  0.3323 -0.0682  0.2648
16658W        W32919   7.471  17.886  12.404 -0.1292 -0.3893 -0.2976
16659W        W32920   0.601  13.232   0.985 -0.2713  0.3553  0.1295
16660W        W32921  10.831   3.711   4.727 -0.0769  0.2578 -0.0215
16661W        W32922  13.968  12.776  11.949 -0.2993 -0.0923  0.2064
16662W        W32923   4.978   6.997   2.794 -0.1676 -0.1284 -0.0071
16663W        W32924   4.887   7.326  12.330  0.1782 -0.4006 -0.3734
16664W        W32925   4.333   8.218  12.222  0.0161  0.0676  0.0210
16665W        W32926   7.638  12.997   0.553 -0.2039 -0.2199  0.4010
16666W        W32927   9.641   3.169  14.878 -0.1781 -0.3456 -0.0808
16667W        W32928  10.545  14.307   0.736  0.3075  0.3878 -0.2480
16668W        W32929  18.783   9.169   1.247  0.1525 -0.0777 -0.1168
16669W        W32930  15.439  18.759  12.107  0.0156  0.0045 -0.0343
16670W        W32931   3.210   6.768   3.447  0.1823 -0.1472  0.2109
16671W        W32932  18.966  16.749   1.069  0.0657 -0.3116 -0.1461
16672W        W32933   1.178   4.527   0.230  0.2328 -0.1461  0.2061
16673W        W32934  16.281   8.079   0.435 -0.2423 -0.1218  0.4218
16674W        W32935   5.483  12.165   0.018  0.0213  0.1538  0.0414
16675W        W32936   4.911   5.102   0.239  0.2811 -0.0489 -0.1736
16676W        W32937  17.556  14.778   1.498  0.0414  0.1274  0.2378
16677W        W32938   5.514  14.414   4.462  0.1410  0.1603 -0.1092
16678W        W32939   8.081  15.739   2.869 -0.0030 -0.2005 -0.1111
16679W        W32940  15.583   9.967   0.087  0.0281 -0.0583  0.3564
16680W        W32941   0.396  19.236  13.376  0.3543 -0.1293  0.0259
16681W        W32942   4.466   7.743  11.356  0.3199  0.3322 -0.2005
16682W        W32943  14.700   9.170  12.028 -0.0232  0.2537  0.0153
16683W        W32944   1.831  11.239  13.057 -0.0661 -0.3178  0.2564
16684W        W32945   5.866  16.071  11.525 -0.1498  0.2983  0.1724
16685W        W32946   3.953  10.402  13.015 -0.1094  0.0988 -0.1876
16686W        W32947   7.666  16.801  11.410 -0.2720  0.1034 -0.1721
16687W        W32948   8.851  16.753  14.208 -0.1808  0.1949  0.5058
16688W        W32949   6.516  16.444  13.389 -0.0402  0.0251  0.1275
16689W        W32950   7.729  13.124  13.694  0.1883 -0.3879  0.0544
16690W        W32951   9.595  10.458  13.896 -0.0827  0.1537  0.2539
16691W        W32952  19.227   8.952  12.661 -0.0461 -0.1818 -0.0532
16692W        W32953  15.294  14.282   2.942 -0.1368 -0.1555 -0.1896
16693W        W32954  11.638  17.648   2.072  0.3160  0.2019  0.2264
16694W        W32955  14.201  13.847  12.605  0.0169 -0.0894 -0.1027
16695W        W32956  12.722  15.239  14.009 -0.5291 -0.0144 -0.2206
16696W        W32957  15.095  13.947   4.585 -0.0010 -0.2754  0.2210
16697W        W32958  14.299  11.676   3.755  0.1250  0.1449 -0.1875
16698W        W32959   8.456   3.636  11.101  0.0659  0.0057 -0.0839
16699W        W32960   6.735  12.724   4.250  0.0612 -0.0782  0.1292
16700W        W32961  12.112  16.942  11.704 -0.0152  0.0669  0.0498
16701W        W32962  12.215  10.462  12.231  0.2185 -0.0720  0.3605
16702W        W32963   1.594  13.489   4.745 -0.0307  0.0966  0.0524
16703W        W32964  11.689   8.689   2.749 -0.0449 -0.0268  0.1965
16704W        W32965   2.775   3.628   4.910  0.3741 -0.0045  0.1268
16705W        W32966   1.807  14.378   3.999 -0.0323  0.0140  0.1894
16706W        W32967   2.260  16.076  14.036  0.1501 -0.1270 -0.0674
16707W        W32968  10.983  10.987   4.310 -0.1753  0.1614 -0.2176
16708W        W32969   5.474   2.427  10.976  0.2494 -0.2237  0.1878
16709W        W32970   4.604  16.131  11.901  0.0738  0.0519  0.1439
16710W        W32971   1.772   5.867   3.044 -0.0479  0.1560  0.2237
16711W        W32972   9.107   5.931   0.840  0.0743 -0.1023 -0.0093
16712W        W32973   1.700   8.992   0.678  0.0162  0.0987  0.2756
16713W        W32974   0.199  15.108  11.666  0.0437 -0.2236  0.1249
16714W        W32975   6.159  11.051   9.190 -0.3950 -0.1679  0.1416
16715W        W32976   4.441   3.056   3.540  0.1539  0.0227  0.0873
16716W        W32977  18.423   1.647  12.173 -0.4398  0.0423  0.1812
16717W        W32978  13.521   7.724   4.221  0.1329 -0.1984 -0.1750
16718W        W32979   7.636   8.843  12.485  0.1514  0.2588 -0.3446
16719W        W32980   9.360  18.869  10.121 -0.0755 -0.0541 -0.0268
16720W        W32981  10.753  10.312   1.927  0.1142  0.1851 -0.3398
16721W        W32982   1.856   9.419  13.233 -0.2751 -0.0885 -0.3510
16722W        W32983  11.385   9.009  12.428  0.1703 -0.1220 -0.1295
16723W        W32984  17.000  12.193  13.987 -0.1994 -0.0593  0.1810
16724W        W32985   4.889   8.529   5.905  0.1540 -0.1888  0.0106
16725W        W32986  11.239  16.632  10.748  0.2110  0.0352 -0.0446
16726W        W32987   2.276  19.198  13.229 -0.0037  0.1282  0.0014
16727W        W32988   7.811  11.313   1.943  0.0255  0.0133 -0.2155
16728W        W32989   8.310  12.417   1.384 -0.2689  0.0961 -0.0209
16729W        W32990   5.360  18.468   2.317 -0.3223 -0.0860  0.1723
16730W        W32991   3.859  10.497   3.218  0.0034  0.2938  0.1159
16731W        W32992   7.655  16.110  10.943 -0.0197 -0.2367 -0.2776
16732W        W32993   6.606  11.718   1.638  0.1742  0.0074  0.1583
16733W        W32994   0.418  11.699  10.046  0.0221  0.2767  0.2258
16734W        W32995  10.264  19.295  11.794  0.0758 -0.4292  0.2149
16735W        W32996  13.426   3.502   1.279 -0.3529  0.0283  0.0306
16736W        W32997   2.000   4.175   5.551  0.1242  0.1368  0.2710
16737W        W32998  13.108  10.608  14.123 -0.5630  0.0234  0.1190
16738W        W32999  15.163   5.566  13.144  0.0820  0.1175 -0.0103
16739W        W33000  17.062  16.254   0.910  0.1828 -0.0883  0.1180
16740W        W33001  12.238   0.737   9.922 -0.0772 -0.1024 -0.0759
16741W        W33002   1.131   1.541  13.133 -0.0613  0.3320 -0.1938
16742W        W33003   4.959   1.371  10.877  0.1618 -0.3333  0.0083
16743W        W33004  13.936   0.928  14.161 -0.1352  0.2067  0.3645
16744W        W33005  11.046   2.879   1.195 -0.2431  0.4896 -0.0767
16745W        W33006  15.798  14.156  14.201 -0.4534 -0.2206 -0.1935
16746W        W33007  18.406   3.811   3.213  0.1255 -0.1989 -0.0693
16747W        W33008  17.910  15.324  14.067  0.2187 -0.1646 -0.1939
16748W        W33009   7.136  14.202  11.659  0.0810  0.4366 -0.1247
16749W        W33010  10.903   3.346  13.938  0.2890  0.2169  0.1915
16750W        W33011   8.169   2.386  12.725  0.1892 -0.0214 -0.3699
16751W        W33012  14.491   3.685   1.749  0.2125  0.1614  0.2011
16752W        W33013  12.673   8.053  11.195 -0.1433  0.0039 -0.0172
16753W        W33014   2.456  18.912   1.393 -0.0118 -0.0380 -0.0250
16754W        W33015  17.982  10.113   3.210 -0.1925  0.1865 -0.1221
16755W        W33016   6.390   3.106   4.788 -0.0444 -0.0892  0.1337
16756W        W33017  10.252   0.640   2.759 -0.0566  0.0050  0.1101
16757W        W33018   5.335   0.468  14.498 -0.1046  0.0460  0.0798
16758W        W33019   5.010  17.258  11.232  0.2171 -0.1577 -0.1316
16759W        W33020  14.295  13.355  11.179 -0.0530  0.1113  0.1268
16760W        W33021  12.782  18.701   3.995  0.2725  0.0791  0.2519
16761W        W33022  17.087   4.179  12.816  0.0517  0.1304 -0.1699
16762W        W33023   9.397   5.625   3.285  0.1788  0.0674 -0.0121
16763W        W33024  10.452  14.501   0.052  0.3277  0.0013  0.1940
16764W        W33025   0.741  17.852  10.998 -0.0350  0.1259 -0.1187
16765W        W33026   4.047  16.960  13.794  0.0220  0.3410  0.0645
16766W        W33027  16.428  17.006  13.576 -0.0003 -0.0273  0.1198
16767W        W33028  10.215   4.568  10.888 -0.0047  0.0388  0.3053
16768W        W33029  18.021   3.300   5.380 -0.2300  0.0086 -0.1648
16769W        W33030   4.958  16.962   3.905 -0.1357  0.0492  0.0803
16770W        W33031   1.186  19.037   0.260 -0.1294  0.0974  0.1251
16771W        W33032  17.009   4.816   4.662 -0.3053 -0.0524  0.3525
16772W        W33033  13.468   2.881  10.659  0.0044 -0.2935  0.2560
16773W        W33034   5.718   8.128   4.990  0.2328  0.2717  0.1372
16774W        W33035  16.487  12.702   4.304 -0.0934  0.1520  0.2752
16775W        W33036  12.772   3.777   4.419  0.0071  0.2045  0.0483
16776W        W33037   1.831  12.660  14.620  0.0098 -0.1369 -0.0577
16777W        W33038   3.370   1.528   0.103 -0.2792  0.2283  0.3837
16778W        W33039  17.412  12.994   2.557  0.3651 -0.2033  0.3118
16779W        W33040  14.889   4.387  11.818 -0.0846 -0.0718  0.0196
16780W        W33041   2.480  18.200  11.852  0.1205 -0.0407 -0.0899
16781W        W33042   0.093  18.516  13.812  0.2386 -0.0928  0.2116
16782W        W33043   5.376   3.296  11.722 -0.0231  0.2060 -0.1784
16783W        W33044   7.771   5.167   3.584 -0.1177  0.4699  0.1185
16784W        W33045   3.567  11.458  10.466 -0.1789  0.0684 -0.0727
16785W        W33046  18.692  17.874   3.737 -0.2386  0.2421  0.1199
16786W        W33047  12.214   4.536  12.718 -0.0573 -0.2562 -0.0206
16787W        W33048  15.297   3.816   1.228 -0.0406 -0.2451  0.0359
16788W        W33049  10.677  14.887  11.761 -0.1208  0.1982 -0.0933
16789W        W33050   4.964  13.316  11.594  0.3380 -0.2440 -0.4886
16790W        W33051   0.779   9.481   4.113  0.4314  0.1087  0.1035
16791W        W33052   6.715  17.071   1.757  0.0610 -0.1633  0.1048
16792W        W33053  11.192   5.096   4.901  0.0759 -0.3093  0.1918
16793W        W33054  15.093  11.469   2.959  0.2461  0.0067  0.3445
16794W        W33055  12.369  18.827   2.236 -0.4149 -0.0010 -0.1450
16795W        W33056   1.318  17.384   4.155  0.0355 -0.2502 -0.3819
16796W        W33057  14.512  18.766   3.037 -0.0071 -0.0030 -0.0501
16797W        W33058   6.053  15.000  11.357  0.0001  0.0136 -0.2692
16798W        W33059  14.157   9.094  13.633  0.0290  0.0321  0.1214
16799W        W33060  12.744  10.393  11.004  0.3214  0.0570 -0.2212
16800W        W33061   5.919   7.336  11.608 -0.0350 -0.0005  0.0318
16801W        W33062   0.688  14.600   4.136 -0.0192  0.0597 -0.4270
16802W        W33063  10.245  13.767  10.875 -0.0119 -0.0015 -0.3771
16803W        W33064  15.253  19.397   1.549 -0.1170  0.0313  0.3692
16804W        W33065  16.559  19.279   0.069  0.0064  0.0333 -0.0559
16805W        W33066  18.562   8.658  14.724  0.1240 -0.0863 -0.0782
16806W        W33067  17.941   1.381  12.101 -0.3803  0.0087 -0.3646
16807W        W33068   9.444  12.780   2.765 -0.0704 -0.2745 -0.1465
16808W        W33069   8.939  16.838  12.598 -0.0737 -0.0688  0.3097
16809W        W33070   0.610  16.010  11.219 -0.5279  0.4072  0.1050
16810W        W33071  12.948   6.505  14.313  0.0122  0.3367  0.2073
16811W        W33072  12.140  10.836  11.882  0.2288 -0.2322 -0.1773
16812W        W33073   9.675   9.474   3.958  0.2454  0.0568 -0.4376
16813W        W33074   4.381  13.349   3.274 -0.3479 -0.0472  0.1008
16814W        W33075  12.763   1.987   0.273 -0.0181 -0.2214 -0.2328
16815W        W33076  17.735   3.095  13.363 -0.1924  0.0378 -0.1788
16816W        W33077   3.168  14.855   0.937  0.0827  0.2300 -0.1048
16817W        W33078   0.133   5.153  11.652 -0.1070  0.2820 -0.2078
16818W        W33079  12.880  18.525   3.468  0.0907  0.1006 -0.1972
16819W        W33080   5.011   8.867  11.889 -0.2654 -0.0939  0.0347
16820W        W33081  15.322  17.223  10.444  0.0030 -0.0308 -0.0013
16821W        W33082  13.269   3.459  14.246  0.0198 -0.1255  0.3047
16822W        W33083   1.704   4.100   0.833 -0.2423  0.3826 -0.3499
16823W        W33084  15.693   4.680  12.740  0.1824  0.2168 -0.2082
16824W        W33085   8.874   1.897   3.539  0.2147 -0.1017  0.1202
16825W        W33086   9.103   0.326   2.732 -0.1119  0.0111  0.0044
16826W        W33087  17.636   2.303   5.034  0.0488 -0.2269 -0.1562
16827W        W33088   6.226   2.788  12.009 -0.3015  0.0171 -0.1932
16828W        W33089   1.107   6.226   0.280  0.0323 -0.0452  0.2095
16829W        W33090  10.486   3.427   4.935 -0.1081  0.1953  0.2914
16830W        W33091   8.642   8.907   1.618 -0.1659  0.2520  0.1093
16831W        W33092   8.955  14.973  12.349  0.0269 -0.0146  0.3872
16832W        W33093   6.125   8.179  12.708 -0.1810  0.0558 -0.3031
16833W        W33094  14.075   5.838  11.544  0.2307 -0.2182  0.0958
16834W        W33095  10.423   7.452  13.161 -0.2046  0.3524 -0.0160
16835W        W33096  10.381   0.119   2.636 -0.0060 -0.1151  0.0120
16836W        W33097  16.764   8.155   0.675 -0.2088  0.1943  0.0959
16837W        W33098   1.985   2.226  11.568  0.2001  0.0519  0.3274
16838W        W33099   6.167  15.897   2.894  0.0989  0.3329  0.2448
16839W        W33100  15.923  15.699  13.145  0.0273 -0.2505  0.1685
16840W        W33101   2.296   5.187   5.926 -0.2333 -0.1779  0.1914
16841W        W33102   4.621   7.355   5.603  0.1886 -0.3558  0.0665
16842W        W33103   1.456   3.513   4.172 -0.0856 -0.0584  0.1152
16843W        W33104  10.961  17.188  11.632 -0.0301 -0.2842  0.0548
16844W        W33105  13.180  13.965  10.669  0.3582  0.0480  0.0410
16845W        W33106   7.777  11.575  10.468 -0.2549 -0.2903  0.2093
16846W        W33107  10.924  15.751   1.313  0.2689 -0.0421  0.1235
16847W        W33108   2.101  19.150  14.849 -0.0809  0.1919 -0.0946
16848W        W33109  14.209  19.257   0.639  0.0377  0.4463 -0.1703
16849W        W33110   6.871   3.472   3.743  0.2838 -0.3549 -0.2144
16850W        W33111  11.019   6.704  12.348 -0.1158  0.0781  0.0538
16851W        W33112  19.061  16.581   3.636 -0.0613 -0.0278  0.1851
16852W        W33113  13.680   5.471   4.608  0.2659  0.1319  0.2363
16853W        W33114  13.655  15.999   8.769  0.0672  0.1963 -0.2708
16854W        W33115   5.980   8.014   5.898  0.1080 -0.1125 -0.2863
16855W        W33116   1.031  18.311  12.950 -0.1226 -0.1358  0.0508
16856W        W33117   4.784  13.629  13.106  0.1440 -0.1153 -0.0279
16857W        W33118  17.514   1.436   0.449 -0.1294  0.1410 -0.2293
16858W        W33119   0.782   1.556   0.587 -0.0687  0.1392 -0.1850
16859W        W33120  10.501  13.869  13.634  0.6406  0.0814  0.4122
16860W        W33121  14.775  10.769   3.755  0.2363  0.0350  0.1128
16861W        W33122  14.012  17.731  12.868  0.1042  0.2048  0.0878
16862W        W33123   0.924   8.082   3.064  0.0431 -0.2251 -0.1289
16863W        W33124   4.577  17.561   0.997  0.0020 -0.0198 -0.0311
16864W        W33125   8.768  16.572   1.578  0.2365 -0.0233  0.1915
16865W        W33126   7.812  14.167  14.600  0.1357 -0.0410  0.3534
16866W        W33127   7.967  13.189   2.927 -0.0962  0.1073 -0.1216
16867W        W33128  12.664   3.596   4.892 -0.3255  0.2983 -0.1619
16868W        W33129  13.612   7.834  11.335 -0.0762 -0.0031  0.1626
16869W        W33130   5.237   4.203  11.590 -0.1504  0.1851 -0.1513
16870W        W33131  17.995   7.401  14.062 -0.1037 -0.1511 -0.1217
16871W        W33132   8.437  14.182  14.025 -0.0161  0.1851  0.0688
16872W        W33133   5.522   2.699   1.477  0.1459  0.1406  0.2989
16873W        W33134  17.733   4.343   0.285 -0.0146 -0.2304 -0.2941
16874W        W33135  18.163   1.064   3.217  0.0779 -0.1310  0.3609
16875W        W33136  16.387  16.710  11.387  0.1209  0.0616  0.2007
16876W        W33137  15.512  17.586  11.887 -0.1415  0.2263 -0.0805
16877W        W33138  16.779  19.428  12.659 -0.2777  0.3480  0.1104
16878W        W33139   1.286   9.942   1.230 -0.0327 -0.1706 -0.1554
16879W        W33140   2.445   2.666   3.560  0.0672 -0.0481 -0.1787
16880W        W33141  11.079   6.640   0.988 -0.0343 -0.0339 -0.2209
16881W        W33142  18.282   8.198  12.558  0.1698  0.1871 -0.3366
16882W        W33143   5.920   9.782   1.604  0.5157 -0.2075  0.0249
16883W        W33144  13.909   2.249  11.316  0.1914  0.1479  0.1156
16884W        W33145   5.382   1.557  11.424 -0.2519  0.1223 -0.0094
16885W        W33146  12.998  12.675   2.013  0.1087  0.0446 -0.2709
16886W        W33147  11.780  13.520  13.763 -0.2914  0.1326 -0.1428
16887W        W33148   1.256  10.076   0.716 -0.1431 -0.4685 -0.0030
16888W        W33149   2.724   3.044  11.180  0.2959 -0.0331 -0.1153
16889W        W33150   1.865  17.553  10.206 -0.3124 -0.3508  0.0955
16890W        W33151   8.638  16.931   3.562 -0.0791 -0.2122  0.1738
16891W        W33152   0.787   3.474   2.964  0.0863 -0.0533 -0.2385
16892W        W33153  18.300  19.369   2.875 -0.2137  0.0280  0.3367
16893W        W33154  12.147   4.082  14.005 -0.0940  0.2441 -0.0253
16894W        W33155  18.829   4.575   5.839  0.1879 -0.3075  0.4928
16895W        W33156   3.622   4.866   4.803  0.0591 -0.0461  0.0562
16896W        W33157  11.683   5.368   0.460 -0.1760 -0.4412 -0.1985
16897W        W33158  18.238  18.665   4.171 -0.0102 -0.3610 -0.2625
16898W        W33159   7.726  16.898  14.302  0.1090 -0.2123  0.0114
16899W        W33160  13.864  14.580  10.489  0.2396 -0.0879 -0.1299
16900W        W33161   6.695   8.068   3.181 -0.2602  0.1727 -0.0448
16901W        W33162   0.550   5.202   5.880  0.6479 -0.2935  0.1624
16902W        W33163   3.258   5.461  12.405  0.0716  0.3065 -0.1824
16903W        W33164   8.201  16.955   2.549 -0.1081 -0.0537 -0.1615
16904W        W33165  14.917  17.460  10.222  0.1490 -0.2259 -0.0797
16905W        W33166  16.214   9.322   0.231  0.0842  0.1314  0.2909
16906W        W33167  16.603   0.861  14.683  0.2557 -0.0608 -0.1685
16907W        W33168   1.432  11.294   2.172 -0.0061  0.0509  0.0973
16908W        W33169  14.036  19.390   3.821 -0.1345  0.1018  0.0715
16909W        W33170  17.075   9.695   4.835  0.1977 -0.2692 -0.0234
16910W        W33171  13.577   3.365  12.303 -0.0523  0.2503  0.1984
16911W        W33172   0.078   0.920  14.247  0.2987 -0.0030  0.0636
16912W        W33173   0.588  10.373  13.492  0.0629  0.1675  0.2206
16913W        W33174   8.726   4.562   1.721  0.1780 -0.1984 -0.1562
16914W        W33175   8.711  12.488   5.250 -0.4126  0.0207 -0.2761
16915W        W33176  13.970   7.072   3.889  0.0793 -0.2087  0.2960
16916W        W33177   7.871   3.252   4.206  0.1318 -0.1905  0.1739
16917W        W33178  11.005   0.742   9.764  0.0186  0.1463 -0.2193
16918W        W33179   8.453  11.332  14.005  0.0674 -0.2527 -0.2615
16919W        W33180   3.927  13.198  10.643  0.2709 -0.0957  0.2267
16920W        W33181   5.133  19.143  13.304  0.2231 -0.1182  0.3604
16921W        W33182   4.284   8.909  14.458  0.0769  0.0553 -0.3384
16922W        W33183  13.895   9.189   5.539 -0.1357 -0.0632 -0.1840
16923W        W33184   6.154   7.215   4.753  0.0540  0.1849  0.1093
16924W        W33185  15.769  17.588   3.698  0.1368 -0.0065  0.0210
16925W        W33186   0.802   1.239  11.411 -0.4960 -0.1133 -0.2664
16926W        W33187   0.591  17.938   1.751  0.0681  0.0423 -0.0805
16927W        W33188   4.833   7.467   3.137  0.0449 -0.3442 -0.6296
16928W        W33189   8.568   6.610  10.867  0.1166  0.2203  0.0015
16929W        W33190   0.647  13.920   2.617  0.0782  0.1656 -0.3058
16930W        W33191  17.998  11.777  10.522  0.2002  0.1131  0.1607
16931W        W33192   7.427  15.825   4.207 -0.0666 -0.2058 -0.0191
16932W        W33193   6.074  12.097   1.218  0.3637  0.2352  0.3412
16933W        W33194  15.839   1.914   2.791 -0.0482 -0.2886 -0.1031
16934W        W33195  14.262  16.442   0.053 -0.0364 -0.0788  0.0470
16935W        W33196  17.070  17.968   4.218 -0.0010  0.0711 -0.2851
16936W        W33197   8.863  16.245   2.378  0.0761  0.2796  0.1761
16937W        W33198  17.833   9.176   2.318  0.2946  0.3075 -0.0148
16938W        W33199   9.839   7.522  10.456  0.2526  0.3295 -0.3522
16939W        W33200   3.471  15.741   2.113 -0.1433 -0.0019  0.1739
16940W        W33201  16.670  12.868  11.553 -0.2911  0.0916  0.1536
16941W        W33202  14.571  10.720   3.142  0.2118 -0.1064  0.0705
16942W        W33203  10.855   9.745   4.847  0.0697 -0.3670 -0.3617
16943W        W33204   3.043  13.250   2.417  0.0436  0.3109  0.2535
16944W        W33205  18.877   6.132   4.990 -0.1457 -0.1107  0.0663
16945W        W33206  18.711   2.846   3.258 -0.2764  0.0736  0.1493
16946W        W33207  10.546   7.775   0.797  0.1529 -0.0949  0.1322
16947W        W33208  12.543  18.060  11.164 -0.4378  0.4505  0.0045
16948W        W33209  14.619  13.259   0.126  0.3101 -0.0254  0.1323
16949W        W33210   9.727   3.537  14.105  0.0458  0.1332 -0.2385
16950W        W33211   6.434  16.254  14.441  0.1439  0.4205 -0.3080
16951W        W33212  13.696   7.793  14.362  0.2331  0.0897 -0.0385
16952W        W33213  17.401   8.309   2.168  0.0641  0.2778 -0.1863
16953W        W33214  14.773   9.130   0.118  0.0314  0.0382 -0.0265
16954W        W33215   3.914  15.719   2.423 -0.4735  0.1304 -0.3799
16955W        W33216  17.656   0.853   0.802  0.2822 -0.1305  0.1453
16956W        W33217  11.576  11.708   1.790 -0.2331  0.0103 -0.0723
16957W        W33218   6.080   3.753   2.948  0.1511 -0.0377  0.0083
16958W        W33219   0.950   8.117  11.571  0.0884 -0.0357 -0.2691
16959W        W33220  11.799   0.252  14.818 -0.0949 -0.2459 -0.2014
16960W        W33221  16.257   8.548   4.563 -0.0301 -0.2924 -0.0747
16961W        W33222   2.089   6.378  11.986 -0.1513  0.1483 -0.0970
16962W        W33223   3.332   8.840   4.306 -0.1954 -0.2061 -0.0903
16963W        W33224   1.436  19.081  11.297 -0.0519 -0.3026 -0.2927
16964W        W33225   2.994  12.655   2.500 -0.3418 -0.1093 -0.1389
16965W        W33226  18.699   2.985  11.280  0.1605  0.0880  0.1573
16966W        W33227   4.227   2.300   3.462  0.1128 -0.0587 -0.0594
16967W        W33228  12.441   7.460  10.233  0.1875  0.0195  0.2615
16968W        W33229  17.381   9.953  14.678 -0.0594 -0.0578  0.1184
16969W        W33230  18.935  10.181   2.724 -0.2402 -0.1705  0.1315
16970W        W33231  13.653   6.224  13.045  0.2705  0.0468  0.0548
16971W        W33232  14.615  10.790   1.095  0.0224  0.0541 -0.1120
16972W        W33233   4.277   9.349   3.040 -0.3040  0.0327  0.2038
16973W        W33234  12.380  13.904  12.402 -0.2392 -0.1181 -0.0603
16974W        W33235   4.199  17.693   9.744  0.1439  0.1511  0.2318
16975W        W33236   2.456   5.976  11.227  0.1070  0.0160  0.1427
16976W        W33237   1.914  13.494   0.020 -0.0285 -0.1764  0.0154
16977W        W33238   0.041   2.297   4.361  0.1297 -0.0984 -0.0222
16978W        W33239   4.656   5.956   3.251  0.2539  0.1573  0.3126
16979W        W33240  10.993   4.756   1.310 -0.1140  0.2694 -0.0014
16980W        W33241   8.471   7.863  14.250 -0.1183  0.0910  0.1082
16981W        W33242   5.529  10.200  10.782  0.0075 -0.2394  0.2068
16982W        W33243   8.960   2.069   2.230  0.0714  0.1870  0.0176
16983W        W33244   4.431  15.629  13.459  0.1156  0.0238 -0.1670
16984W        W33245   4.043  13.413   0.320 -0.1591 -0.1555 -0.0486
16985W        W33246  18.367   6.919   0.770 -0.1691  0.0412 -0.1174
16986W        W33247   0.758  18.418   1.683  0.2102  0.0206 -0.0921
16987W        W33248  15.666  12.342  10.761 -0.1938  0.1123  0.3998
16988W        W33249  18.316   7.475   3.607 -0.0064  0.3311 -0.2921
16989W        W33250   3.783   0.252   1.438  0.0108 -0.1846  0.0647
16990W        W33251  17.645   3.351  12.030 -0.2199 -0.0661 -0.1848
16991W        W33252  15.802   2.148  12.975  0.0344 -0.1960 -0.0549
16992W        W33253   3.003  14.964  11.104 -0.1460  0.4517 -0.0648
16993W        W33254  15.725   6.345  14.366  0.5661 -0.1156 -0.1955
16994W        W33255   4.390  16.693   0.107  0.4776 -0.0760 -0.2543
16995W        W33256  12.804   2.861  13.693  0.1817  0.0741 -0.1212
16996W        W33257  16.682  17.130   1.653 -0.0406  0.0766 -0.0400
16997W        W33258   9.095  12.511   3.476  0.4779 -0.2240 -0.0294
16998W        W33259   4.805   1.311  13.214 -0.1238  0.0571  0.1359
16999W        W33260  15.937   0.014  12.579  0.2775  0.1234 -0.0993
17000W        W33261  13.679  17.494  10.873 -0.0105  0.1018  0.1986
17001W        W33262  13.727   9.243   4.333  0.1840  0.0921  0.2403
17002W        W33263  12.685  16.654  10.572  0.0156 -0.0536 -0.0802
17003W        W33264   0.278  18.652   3.410 -0.2265 -0.0680  0.3192
17004W        W33265  16.804   8.747   4.658  0.2153 -0.0928 -0.0446
17005W        W33266  12.359   7.224  11.602  0.1641  0.2883 -0.1840
17006W        W33267  18.003   9.527  13.786 -0.1731  0.0429  0.0177
17007W        W33268  11.078  15.080  13.639  0.1524 -0.2826 -0.2253
17008W        W33269  14.372   3.037   4.411 -0.1083 -0.1055 -0.0674
17009W        W33270   5.778   5.881  10.236  0.2576  0.1893 -0.1004
17010W        W33271   0.580  16.784   1.875 -0.0688  0.0358  0.1707
17011W        W33272   5.775  15.995   1.064 -0.4702 -0.0743 -0.1569
17012W        W33273  16.829  18.333   4.915  0.0081  0.0940  0.0990
17013W        W33274  13.656   3.697   4.853 -0.1437  0.1159 -0.0134
17014W        W33275  13.603  18.911   4.457 -0.0574 -0.1078 -0.2351
17015W        W33276  19.042  10.644   0.047 -0.0981 -0.0847  0.0742
17016W        W33277   4.376  10.325  14.625 -0.1081  0.0915  0.0331
17017W        W33278  16.287   8.453   0.002  0.3955  0.3697  0.2368
17018W        W33279   6.531   7.101   1.154 -0.0743 -0.1455  0.0717
17019W        W33280   2.368  17.261  12.165  0.0227  0.3164 -0.1494
17020W        W33281   6.510   8.556  11.987 -0.2275 -0.3282  0.1266
17021W        W33282   1.974   9.701   3.513 -0.0281  0.1786  0.0533
17022W        W33283   3.356   0.998  14.218 -0.1328 -0.0365 -0.1156
17023W        W33284  14.180  18.630   0.541  0.4276 -0.3113 -0.3220
17024W        W33285   3.888  15.011  11.208  0.0483 -0.1938  0.2525
17025W        W33286  10.630   2.496   3.979  0.3137  0.1328  0.2258
17026W        W33287  13.832  13.378   1.038 -0.0800 -0.2209 -0.3364
17027W        W33288   9.018   3.945   3.671  0.4183 -0.1988  0.0665
17028W        W33289  12.380   7.986  13.431 -0.0457  0.1584  0.0945
17029W        W33290  11.331  12.526   1.683 -0.3009  0.1405 -0.1890
17030W        W33291  17.829  11.852   1.640  0.1005  0.1108  0.1883
17031W        W33292   0.504   1.918  13.372 -0.1647  0.0527  0.5194
17032W        W33293   7.118  17.452   4.483  0.0086  0.3032 -0.2282
17033W        W33294  18.117   9.166  12.654 -0.1352  0.1377 -0.0995
17034W        W33295  14.848  11.304   1.085 -0.0914  0.0461 -0.2210
17035W        W33296  13.918  16.998  12.282  0.1570  0.0137  0.0371
17036W        W33297   2.065   2.696   0.217  0.0635  0.0778 -0.4254
17037W        W33298   0.638  17.793   2.313 -0.2922  0.0189 -0.1373
17038W        W33299   2.825   8.396  11.344 -0.2695  0.0848  0.0707
17039W        W33300   1.455  16.324  13.360 -0.0094  0.0853  0.4002
17040W        W33301  14.708   6.415  12.797 -0.2262  0.2931  0.2452
17041W        W33302  17.299  12.712   3.343 -0.0224 -0.0640  0.0060
17042W        W33303  11.944   4.341   0.885  0.2154 -0.0786 -0.0780
17043W        W33304   3.330   3.323  10.636 -0.0491 -0.1646  0.0649
17044W        W33305   7.035  11.132   2.444 -0.4544 -0.0359  0.1890
17045W        W33306   5.196   8.696   3.664  0.4261 -0.2418  0.1444
17046W        W33307  13.394  18.137   2.658 -0.1019 -0.1402  0.0023
17047W        W33308  15.290   7.890  12.705 -0.1804  0.0852 -0.0594
17048W        W33309  16.796   6.493  12.257 -0.1791  0.0311 -0.1196
17049W        W33310  14.760  15.942  10.348  0.0287  0.1125  0.0721
17050W        W33311   5.141  14.112  10.200 -0.1231  0.3377  0.1309
17051W        W33312  13.404  18.257  11.316  0.0940  0.0808  0.1107
17052W        W33313  11.964  14.860  13.647  0.0466  0.0953 -0.2340
17053W        W33314  14.074  10.122  10.250  0.0887  0.2480 -0.4062
17054W        W33315   6.107   1.039  10.944 -0.1696  0.0301  0.0610
17055W        W33316  17.803   3.643   3.911 -0.2152 -0.1615 -0.1364
17056W        W33317   1.759   6.466  14.492  0.0868  0.1677 -0.0158
17057W        W33318  18.318  15.435   3.034  0.5948 -0.0569  0.1179
17058W        W33319   9.344   8.742   0.419 -0.2321  0.1102  0.1000
17059W        W33320  11.053  19.432  10.327  0.1694 -0.0633  0.0052
17060W        W33321   0.287  13.570   2.712  0.0213 -0.1868  0.0688
17061W        W33322  18.357   9.293   3.623 -0.0417 -0.0212 -0.1332
17062W        W33323  18.275  12.829   1.502  0.0228 -0.0229  0.0187
17063W        W33324  15.363   4.845  14.072  0.0957  0.0528  0.1297
17064W        W33325  19.330   4.909  14.369 -0.3302 -0.2209  0.3504
17065W        W33326  12.090  18.249  13.067 -0.1536 -0.1112 -0.1816
17066W        W33327  18.672  10.881   4.252  0.5009  0.0958  0.0370
17067W        W33328   4.937  16.451  12.076 -0.0957 -0.2849 -0.2436
17068W        W33329   5.484   9.934  12.424  0.2497  0.2133 -0.1986
17069W        W33330  16.742   2.706   4.653 -0.2327  0.0167 -0.0742
17070W        W33331   7.631  16.961   3.947  0.0518 -0.2529  0.1647
17071W        W33332   6.587  19.157   2.502 -0.0912  0.0650  0.2263
17072W        W33333  16.499   5.741  12.669 -0.0571  0.4340 -0.4572
17073W        W33334  13.805  15.734   3.491 -0.1476 -0.2393 -0.4440
17074W        W33335   3.739   9.491  14.452 -0.0004  0.1301 -0.2788
17075W        W33336  11.100  15.087   4.060  0.2017  0.1438 -0.0440
17076W        W33337   5.595  13.070   4.574 -0.1587 -0.2385 -0.1723
17077W        W33338  14.285   2.982  12.885 -0.3081 -0.1418  0.2018
17078W        W33339  17.999   2.174   3.604  0.0662  0.2624  0.1488
17079W        W33340  15.999  11.496   2.929  0.0020 -0.2689  0.0209
17080W        W33341   4.112   2.576   0.273 -0.1924 -0.3962  0.0836
17081W        W33342   7.762   6.117  14.270  0.1642  0.1438  0.0011
17082W        W33343   0.599  13.019   9.456  0.1568  0.1120  0.3996
17083W        W33344  17.559  16.285  11.901 -0.3969  0.1896  0.2076
17084W        W33345   3.487  18.072  10.566 -0.1128 -0.5278 -0.2288
17085W        W33346  14.170  15.014   0.373  0.2810 -0.1707 -0.4332
17086W        W33347   5.606  17.298  12.678 -0.1153 -0.1828 -0.0024
17087W        W33348   8.446  13.659   1.979 -0.5788 -0.0755 -0.0538
17088W        W33349   4.662   2.726   4.052 -0.1686  0.1745  0.1271
17089W        W33350  12.378   1.541  11.558 -0.1699  0.2863  0.2799
17090W        W33351   9.000  18.648   1.714 -0.0839 -0.0617 -0.0679
17091W        W33352   2.720  17.861  11.387 -0.0675  0.1055 -0.1514
17092W        W33353   3.561  12.562   4.514  0.2080 -0.1699  0.2805
17093W        W33354  13.811  17.082  14.319  0.1035  0.2689  0.2335
17094W        W33355   6.913   5.873  13.864  0.2331 -0.2282 -0.0693
17095W        W33356  19.418   3.756   0.337  0.0559  0.2438 -0.2978
17096W        W33357   3.804   2.559  13.936  0.2413 -0.2524  0.0437
17097W        W33358  16.699  15.468  14.073 -0.2242 -0.2507 -0.1862
17098W        W33359  13.012   0.675   2.664  0.2335 -0.5682 -0.0305
17099W        W33360  10.402   3.462  10.378 -0.2449 -0.2107 -0.1528
17100W        W33361   1.513   2.103   0.892  0.1017 -0.2760 -0.3473
17101W        W33362  17.670   8.033   2.694 -0.1772  0.1660 -0.1539
17102W        W33363  17.692   1.070   3.744  0.3572  0.0891  0.2518
17103W        W33364   7.348  15.425   1.500  0.1797  0.0276 -0.0911
17104W        W33365   2.837   0.300   3.489  0.0835  0.2657 -0.3185
17105W        W33366   3.668   5.883   2.594 -0.2670 -0.1310  0.1972
17106W        W33367  17.332   0.773   3.643  0.3351  0.1346 -0.0881
17107W        W33368   4.542  10.105   1.353  0.0904 -0.0916  0.0139
17108W        W33369   6.730   4.252   2.925 -0.2090  0.0027  0.0583
17109W        W33370   1.595  13.487   4.161 -0.1505  0.2239  0.3054
17110W        W33371   0.201   8.156  13.415 -0.1989 -0.1681 -0.0274
17111W        W33372  18.518  17.228   2.309  0.0462  0.1969 -0.0492
17112W        W33373  10.198   3.047   4.538 -0.1969  0.0622 -0.1214
17113W        W33374   6.620  15.244  14.286  0.1331  0.1434  0.1831
17114W        W33375   9.137  15.535   9.956  0.0020 -0.1435  0.1886
17115W        W33376   7.822  15.870  14.160 -0.2715  0.1610 -0.1587
17116W        W33377   5.906  12.596  12.321  0.0755 -0.1171  0.2354
17117W        W33378  10.823  17.602   3.129 -0.0720  0.1716 -0.0742
17118W        W33379   0.191   6.536   1.096  0.2534 -0.0084 -0.0310
17119W        W33380  18.097   1.446   1.204  0.1084  0.1919  0.1263
17120W        W33381   7.826   0.732  13.343 -0.1770 -0.1752  0.1776
17121W        W33382  12.678   5.984   3.967 -0.1306 -0.0374  0.2347
17122W        W33383   3.018   0.377   1.916 -0.1948  0.0620  0.0572
17123W        W33384   6.235  14.225   1.872  0.0622 -0.0032 -0.5178
17124W        W33385   3.934  14.121  12.383  0.1683  0.2551 -0.2717
17125W        W33386  16.306   1.436   4.225  0.0145  0.2383 -0.1581
17126W        W33387  14.427   6.283   0.707  0.0762  0.1239  0.3358
17127W        W33388  14.170   8.631  14.016  0.1206 -0.3966 -0.0315
17128W        W33389   6.901   3.917   3.297 -0.1265  0.2736 -0.5198
17129W        W33390   9.900   0.911  14.123 -0.0045  0.0690 -0.2257
17130W        W33391   1.802   2.238   5.424  0.5656  0.0610 -0.0733
17131W        W33392  16.163  17.403  10.883  0.2560 -0.1517 -0.2265
17132W        W33393  14.504   6.817  10.434 -0.1099  0.0307 -0.2407
17133W        W33394   8.617  16.463  10.669  0.2050 -0.2097  0.2418
17134W        W33395   5.304   5.166   5.099 -0.0100 -0.1412 -0.0573
17135W        W33396  12.805   8.848   0.998 -0.0996  0.1949  0.1100
17136W        W33397   7.808   7.294   1.591  0.1056 -0.1600 -0.0738
17137W        W33398   3.594   7.626   0.332 -0.0629  0.1203 -0.2207
17138W        W33399   2.042   6.860  11.295 -0.0310  0.3006 -0.0857
17139W        W33400   1.352   2.008   1.364  0.0002  0.1061 -0.3337
17140W        W33401   7.132   4.194  14.635  0.3259  0.0863 -0.0532
17141W        W33402  11.136  16.787  11.462 -0.0294 -0.0273 -0.1867
17142W        W33403   3.667  16.450   3.743 -0.0888 -0.3049  0.2425
17143W        W33404   5.127   8.082  13.126 -0.0614 -0.0730 -0.0927
17144W        W33405  10.894   6.951   1.918  0.1008 -0.2967 -0.1517
17145W        W33406  16.276  19.443   0.483  0.3829 -0.2329  0.0332
17146W        W33407   5.259   7.543  10.778  0.1700 -0.0384  0.3621
17147W        W33408  19.073   4.502   0.665 -0.3490 -0.2524 -0.1011
17148W        W33409  12.978   3.011   0.328 -0.0280  0.1072 -0.1551
17149W        W33410  16.726   5.012  12.209  0.0010  0.1283 -0.2018
17150W        W33411   8.555   7.467  12.375 -0.0866  0.0669  0.2602
17151W        W33412  10.100   3.503  13.289  0.1242 -0.3380 -0.2743
17152W        W33413   1.893   5.408  13.244  0.3885  0.0389 -0.3846
17153W        W33414   2.881  16.454   9.796 -0.0116 -0.1075 -0.0619
17154W        W33415  14.502   0.800   2.370  0.2673  0.0551  0.2168
17155W        W33416   2.791   5.617   0.642  0.1228  0.0014  0.0510
17156W        W33417   2.802   1.871  11.016  0.0090  0.0683  0.1100
17157W        W33418  10.566   8.920  11.989 -0.1747  0.6046  0.2725
17158W        W33419   5.993   2.228  11.305  0.1639 -0.2116  0.0523
17159W        W33420   4.351  16.669   2.641  0.4486 -0.0952 -0.0776
17160W        W33421  18.328   0.258  14.751  0.1749 -0.3389 -0.1162
17161W        W33422  11.221  16.358  14.362 -0.3570 -0.2415 -0.1530
17162W        W33423  13.703   8.461  14.023  0.0581 -0.0841  0.3688
17163W        W33424  10.182  19.361   1.425  0.3724  0.1064 -0.0674
17164W        W33425   3.466   1.768  11.600 -0.1185 -0.2035  0.1159
17165W        W33426  11.066   2.267  10.429 -0.2247 -0.0294 -0.0065
17166W        W33427   2.256   3.915   5.206  0.2308 -0.0077 -0.1044
17167W        W33428   5.469   3.799   0.316  0.3519  0.0480 -0.0308
17168W        W33429   6.251   8.588  12.467  0.2270 -0.1785 -0.0741
17169W        W33430   6.551   3.911  10.664 -0.1122  0.0464 -0.1620
17170W        W33431  15.916   6.203  10.495  0.0069 -0.1881 -0.1330
17171W        W33432   2.558   4.200  14.700 -0.2391  0.1083 -0.1245
17172W        W33433   8.278   7.386  13.873 -0.1481 -0.1360  0.0671
17173W        W33434   5.292  14.596  14.562 -0.1660 -0.3792 -0.0136
17174W        W33435   4.170  12.709  10.439 -0.0405  0.2103 -0.0355
17175W        W33436   2.792  14.788  10.570  0.0105 -0.0748  0.1273
17176W        W33437   0.998  16.667  12.242  0.0948 -0.0570 -0.0425
17177W        W33438  18.189   2.289   1.298 -0.0788 -0.0548  0.5976
17178W        W33439  14.081  17.471   2.239  0.0644 -0.0424 -0.2696
17179W        W33440  17.090   7.246   1.579  0.0161  0.4855  0.1447
17180W        W33441   5.805  18.691  12.421  0.1718  0.0120 -0.0884
17181W        W33442   7.135   5.368  13.795 -0.0550  0.1492  0.0482
17182W        W33443  11.831   1.784   1.514 -0.1239 -0.3996 -0.2183
17183W        W33444  16.247  17.420   3.973 -0.1304  0.0507 -0.1085
17184W        W33445  16.958   4.775  14.716 -0.0199 -0.2207 -0.2544
17185W        W33446   1.232  17.944  13.880  0.0094  0.0518  0.2527
17186W        W33447   1.577   9.929   0.256 -0.3035  0.1585  0.1439
17187W        W33448   5.848   6.389   5.411 -0.1226  0.0012 -0.0986
17188W        W33449   2.919   2.001   0.890 -0.2135 -0.1739 -0.0151
17189W        W33450   4.254   2.062   0.207 -0.0408 -0.1877  0.0235
17190W        W33451  18.940   3.757  12.291  0.1894 -0.2807  0.0625
17191W        W33452   7.676  16.256  12.898 -0.0680 -0.0552  0.1902
17192W        W33453   1.673   2.256  11.928 -0.1214  0.0066 -0.4018
17193W        W33454   6.619   8.261  10.310 -0.0281  0.0098 -0.1006
17194W        W33455   4.143  12.810  12.830 -0.0780  0.1390 -0.0956
17195W        W33456  13.924  16.490  14.263  0.1189  0.0232 -0.0439
17196W        W33457  13.787   6.732   0.490 -0.1163 -0.1949 -0.1684
17197W        W33458   6.941   0.837   2.696  0.1794  0.0572  0.1426
17198W        W33459   4.842  10.580  12.147  0.0589  0.1887 -0.1011
17199W        W33460  10.166   2.392  10.453 -0.0437 -0.2138 -0.0707
17200W        W33461   8.544   6.144   5.041  0.1629 -0.5661  0.1158
17201W        W33462  18.313   4.490   0.783 -0.0962  0.0422 -0.1138
17202W        W33463  10.318   1.579  14.567  0.0782  0.0301  0.1960
17203W        W33464  14.930  17.838   1.558 -0.0064 -0.0279 -0.0795
17204W        W33465  11.203  15.851   0.921 -0.0310  0.0434  0.0887
17205W        W33466  15.259   2.298   1.524 -0.0887  0.0907  0.1413
17206W        W33467   6.890   1.432   3.131  0.2471 -0.1496  0.1713
17207W        W33468  12.938  13.954   2.574 -0.2617 -0.4221 -0.0668
17208W        W33469  13.957   9.285   0.814  0.0843 -0.1225 -0.1327
17209W        W33470  16.196  18.126   0.743 -0.3279 -0.0149  0.0008
17210W        W33471  15.169   4.545   5.094  0.2968 -0.1857  0.0035
17211W        W33472   0.805  19.402  11.673  0.2785 -0.2196 -0.2615
17212W        W33473  15.015   7.658  13.911 -0.3700 -0.2635 -0.0698
17213W        W33474   7.446  12.099  12.469  0.2583 -0.1388  0.0071
17214W        W33475  14.095   3.321   3.452 -0.0833  0.1194 -0.1311
17215W        W33476  13.782  17.633  14.325 -0.3481 -0.0959  0.0263
17216W        W33477  18.741   8.984   2.000 -0.1671 -0.1224  0.2691
17217W        W33478   7.200   3.498  11.429  0.4977  0.1526 -0.0189
17218W        W33479  12.314   1.645  13.179  0.1287 -0.1802 -0.2880
17219W        W33480  19.355   3.243  11.683 -0.4379  0.1571 -0.0507
17220W        W33481   5.824  15.397  12.992  0.1240  0.1514 -0.1370
17221W        W33482  14.221   9.318   2.793  0.1143 -0.0532  0.2192
17222W        W33483  17.482   0.044   0.291 -0.0149 -0.2776  0.0267
17223W        W33484   8.319  18.755   0.992  0.0146  0.1159  0.1613
17224W        W33485  14.190   4.075   1.995 -0.1419  0.0259  0.0544
17225W        W33486   0.802  11.922  10.244 -0.2473 -0.1837  0.2307
17226W        W33487   8.359  18.101   3.337  0.0183 -0.0353 -0.3979
17227W        W33488   8.059   1.553   3.175  0.1466 -0.1530 -0.0415
17228W        W33489   6.783  10.852   3.243 -0.2684  0.1938 -0.1270
17229W        W33490  14.451   4.549  13.003 -0.1566 -0.2465 -0.0700
17230W        W33491   9.846  17.041  11.526  0.2492 -0.2074 -0.1683
17231W        W33492  10.535  18.233  10.103  0.0278 -0.1731 -0.0170
17232W        W33493  14.354   7.616   0.775  0.0424 -0.2198  0.1617
17233W        W33494  14.513   9.943   4.062 -0.0451  0.2842  0.2336
17234W        W33495   4.665  13.346   1.087  0.1608 -0.1940 -0.0132
17235W        W33496   0.627  17.777  13.164 -0.1750 -0.1126 -0.0826
17236W        W33497  16.015   2.490  13.242 -0.3093 -0.4403 -0.3952
17237W        W33498   7.914   1.941   0.313 -0.0162 -0.1937 -0.2750
17238W        W33499  13.232  13.160  10.656 -0.2419  0.2107 -0.0265
17239W        W33500  14.952   9.878   4.370 -0.2627  0.1319  0.1877
17240W        W33501  11.673  16.156   0.163  0.2085 -0.0448 -0.0950
17241W        W33502  12.745  13.379   0.676  0.0727 -0.0515 -0.2677
17242W        W33503  18.532  11.314   9.303 -0.0989 -0.0196  0.1829
17243W        W33504   3.462  12.890   4.135 -0.1891 -0.3922  0.2193
17244W        W33505   7.750  16.135   2.752  0.0073 -0.4815 -0.3056
17245W        W33506  14.566  14.947   0.701  0.2003  0.2330  0.2108
17246W        W33507   0.634   5.466   4.505  0.2738 -0.1799  0.3727
17247W        W33508   4.714  14.415  11.311 -0.2957 -0.0297 -0.1417
17248W        W33509   2.983   7.698   5.029 -0.4087  0.0266 -0.1263
17249W        W33510   5.078   4.140   6.175 -0.3786  0.5007 -0.2521
17250W        W33511   4.146   9.575  11.980 -0.0815  0.3069 -0.1206
17251W        W33512   4.422   5.179  12.764 -0.1134 -0.2142  0.2293
17252W        W33513  15.325   9.560   0.611 -0.3364 -0.1514  0.1154
17253W        W33514   0.372   4.550  14.294 -0.1755  0.0941  0.0473
17254W        W33515  13.527  17.498   1.859  0.0159  0.2371 -0.0607
17255W        W33516   1.550   1.177   4.745 -0.1451  0.2915  0.2311
17256W        W33517   1.628   1.929   2.145 -0.1756 -0.1286 -0.0726
17257W        W33518   0.300  10.934  14.284 -0.0998 -0.1408  0.3370
17258W        W33519  15.852  14.946   2.850 -0.1265 -0.5901  0.0716
17259W        W33520  12.107  11.730   4.094  0.1183  0.1222 -0.2410
17260W        W33521   6.655  19.302  11.238 -0.0882 -0.0501 -0.0035
17261W        W33522   9.060   4.996   1.973  0.1045 -0.0661 -0.1158
17262W        W33523  11.485  14.357   2.671 -0.1572 -0.1371 -0.1544
17263W        W33524   2.961   5.161  14.124 -0.1462  0.0649 -0.0467
17264W        W33525   7.125   5.964   1.587  0.2728  0.0222  0.0499
17265W        W33526  15.980  13.169  13.776 -0.0108 -0.2067  0.2450
17266W        W33527  18.755  11.006   1.775 -0.1867  0.2800  0.0761
17267W        W33528   9.029  12.988  13.863 -0.1944 -0.1749  0.1337
17268W        W33529   4.703  11.128   1.985  0.0807 -0.1144  0.0845
17269W        W33530  10.021  17.308   3.945 -0.0080 -0.0418 -0.2599
17270W        W33531   6.682   4.475  11.547  0.1442  0.1209 -0.3020
17271W        W33532   2.547   7.271   0.636  0.2110 -0.0209 -0.1883
17272W        W33533  18.786  15.665  12.649 -0.4440  0.0423 -0.0889
17273W        W33534  18.371  18.676   0.154 -0.0055  0.2522  0.4712
17274W        W33535   4.244   6.232  12.924 -0.0957 -0.0691 -0.0194
17275W        W33536  19.426   4.838   4.477  0.1304 -0.1511  0.3452
17276W        W33537   2.218  10.220   0.845 -0.0957 -0.1981 -0.1409
17277W        W33538   0.719  18.624   2.866 -0.1259 -0.0881  0.1381
17278W        W33539   9.988   1.903   2.738  0.0931  0.3032  0.0539
17279W        W33540   4.331  12.691  13.259  0.1323 -0.1915  0.1027
17280W        W33541   0.257  14.995  13.988 -0.0753  0.1204  0.3111
17281W        W33542   9.711  18.077  10.674  0.2952  0.0271 -0.2573
17282W        W33543  10.002  11.065   2.838  0.1119 -0.2396  0.2920
17283W        W33544   7.597   5.446   4.369 -0.2395  0.0861  0.1801
17284W        W33545   8.388  12.750  14.400  0.0726 -0.0925 -0.0582
17285W        W33546   4.438  18.691  11.533 -0.1414 -0.1197  0.5337
17286W        W33547  15.187   3.971  12.603  0.2938  0.3361 -0.2543
17287W        W33548  11.962  17.762  14.424  0.0483  0.1329  0.1013
17288W        W33549  16.067   1.951   0.811  0.2084 -0.0269 -0.3560
17289W        W33550   7.176  12.016   3.480 -0.2660 -0.1142 -0.0626
17290W        W33551  11.179   1.725  12.142 -0.0972  0.2084 -0.2204
17291W        W33552   2.503  18.980  14.519  0.1790 -0.0840  0.0390
17292W        W33553  13.616   7.893  13.892  0.3526  0.1173 -0.1064
17293W        W33554   9.359  10.330   3.487 -0.0327 -0.0065  0.2202
17294W        W33555   4.043   2.754  12.518 -0.3101 -0.1657  0.0671
17295W        W33556   1.494   9.059   2.181 -0.3892 -0.1370 -0.3464
17296W        W33557  16.494  11.227   4.352  0.0172  0.2505 -0.1329
17297W        W33558  14.970  13.156   2.393  0.1317 -0.0831  0.1318
17298W        W33559  14.023  11.797  13.373 -0.0110 -0.1410 -0.0686
17299W        W33560  15.293  13.417  11.031  0.0666  0.4768 -0.0987
17300W        W33561  12.713  14.297  13.989 -0.0034 -0.1189 -0.1784
17301W        W33562   8.968  16.292  12.769  0.2198  0.0515  0.2554
17302W        W33563   5.096   4.615   3.978  0.0156  0.0441 -0.1887
17303W        W33564   7.174   3.405   2.454  0.0944  0.1522 -0.2687
17304W        W33565  17.157   2.057   1.070 -0.4307 -0.3092 -0.3762
17305W        W33566  10.364  15.344   2.518 -0.2701 -0.2392  0.2177
17306W        W33567  10.846  11.578  13.216  0.3551 -0.1999 -0.2276
17307W        W33568   1.425   4.157  13.549  0.0591 -0.2197  0.0801
17308W        W33569   8.270  17.444   3.101  0.0239  0.2937  0.2598
17309W        W33570   4.105  19.412  12.076 -0.3312  0.1159 -0.2001
17310W        W33571  17.769   7.994   1.167 -0.0590  0.2061 -0.1718
17311W        W33572   8.272   7.290  14.880  0.2344  0.0658 -0.2503
17312W        W33573  11.023   0.837  13.754 -0.0689 -0.0330 -0.3268
17313W        W33574   9.225  17.837  14.337  0.1570 -0.0075  0.1973
17314W        W33575  17.540  14.022  13.367 -0.3024 -0.2876 -0.0550
17315W        W33576  15.909  10.770  13.807  0.1471  0.0072  0.0098
17316W        W33577   5.640  19.140   5.750  0.0103  0.1380  0.1810
17317W        W33578   9.675   9.193  10.910 -0.0980 -0.0271 -0.0425
17318W        W33579   2.336  10.153   1.384  0.3539 -0.0328  0.1430
17319W        W33580   0.138   1.218   1.238 -0.2721  0.0303 -0.2084
17320W        W33581  12.672   2.590   4.060  0.1868  0.0796 -0.0864
17321W        W33582  13.235  12.879  12.332 -0.2519 -0.0264 -0.3750
17322W        W33583  18.438   7.297  14.544 -0.1397  0.0361 -0.0830
17323W        W33584   1.615   9.602   0.630 -0.0490 -0.3509  0.1286
17324W        W33585  17.352   6.433  14.245  0.0438 -0.0841  0.0994
17325W        W33586  15.090  14.170  13.098 -0.0405  0.1870  0.0650
17326W        W33587   2.236  19.035   4.502  0.1890  0.2160  0.0917
17327W        W33588   0.201   3.063  11.292  0.0657 -0.5193  0.1489
17328W        W33589   4.903   2.030  11.702 -0.0149 -0.0900 -0.2586
17329W        W33590  18.939  12.323   3.434 -0.0154 -0.1553 -0.0725
17330W        W33591  13.253   3.740   0.830  0.1882 -0.1313  0.2398
17331W        W33592   3.247   7.589   1.192  0.0109  0.1099  0.1112
17332W        W33593   5.915   2.892   0.421 -0.1422 -0.3006  0.1603
17333W        W33594   9.521   1.582   2.674 -0.0651 -0.0266 -0.1430
17334W        W33595  13.427   8.830   4.981  0.1917  0.3293 -0.0486
17335W        W33596  17.228  15.883  13.758 -0.0519 -0.0136 -0.0775
17336W        W33597  11.539  17.860  14.800  0.1613 -0.3640  0.2261
17337W        W33598  10.850   0.377  12.946  0.2852 -0.0840  0.1142
17338W        W33599   2.820   2.752  14.151 -0.0572 -0.0149 -0.1747
17339W        W33600   9.882  18.847  10.548  0.1847 -0.2508 -0.0079
17340W        W33601   0.390   8.267  14.517  0.0199 -0.0852  0.1577
17341W        W33602  10.746   5.671   1.341 -0.1815  0.1903 -0.2243
17342W        W33603  16.048  14.690   0.079  0.0781 -0.0703 -0.0317
17343W        W33604  13.510   7.474   4.730 -0.3553 -0.3110  0.3086
17344W        W33605  13.372  13.446  13.019 -0.0992 -0.1321  0.0072
17345W        W33606  17.783  11.005  12.157 -0.0640  0.1311 -0.1613
17346W        W33607   7.050  17.843   0.109  0.0547 -0.1890 -0.1473
17347W        W33608   3.319   8.449  12.158 -0.0016  0.2471  0.5414
17348W        W33609  17.014  10.210  10.674 -0.0926  0.1465 -0.1308
17349W        W33610  11.731   7.219   4.359  0.1068 -0.2222 -0.0881
17350W        W33611   6.973   4.249   4.774  0.1132  0.0250  0.1589
17351W        W33612   0.824  14.669  13.217 -0.2388 -0.0353 -0.1736
17352W        W33613   0.374  13.365  12.422 -0.0799 -0.2245 -0.0923
17353W        W33614  14.280  13.202  13.702  0.1316  0.1863 -0.1992
17354W        W33615  14.458   5.716  12.715 -0.2137  0.2807  0.2046
17355W        W33616   5.454  10.014   4.824  0.2327  0.2071 -0.0680
17356W        W33617   2.396   1.138  12.920 -0.3132  0.0279 -0.2634
17357W        W33618  15.845   2.759   5.484 -0.0739 -0.1949 -0.2738
17358W        W33619  13.687   2.876  11.214 -0.2916 -0.0315  0.2630
17359W        W33620  17.224  17.338   2.734  0.0588  0.0058  0.0200
17360W        W33621   0.806  11.480  14.789  0.0998 -0.3623 -0.0773
17361W        W33622  13.101  17.934   0.850  0.2197 -0.0116  0.2230
17362W        W33623  17.311   9.368  13.154 -0.3094 -0.1244  0.1742
17363W        W33624  11.720   7.847  12.836 -0.1928 -0.2307  0.0283
17364W        W33625   9.439  15.790   2.208  0.2518 -0.0456  0.0942
17365W        W33626  10.399   6.653   4.780  0.0739 -0.0362  0.3227
17366W        W33627  14.107  12.867  14.836  0.0023  0.5764  0.1380
17367W        W33628   5.019  18.189   2.581  0.2571  0.1624  0.1088
17368W        W33629   9.834  16.566   1.104 -0.2691  0.0418  0.1596
17369W        W33630   4.285  15.258   5.519 -0.1856 -0.2053 -0.3199
17370W        W33631   3.689  11.716   4.724 -0.1417  0.2119  0.1476
17371W        W33632  16.404   4.186   3.759  0.1919 -0.0110  0.2632
17372W        W33633  12.349   1.907  14.796  0.1183  0.2230  0.0808
17373W        W33634  13.982   2.586  12.642  0.0353 -0.2050 -0.1234
17374W        W33635  17.581  14.497  14.621 -0.1876 -0.0932  0.0516
17375W        W33636   2.706   2.288  12.917  0.0249  0.1755  0.0733
17376W        W33637   6.519  18.805  11.092 -0.2575 -0.0939  0.2042
17377W        W33638   8.691  16.572   4.907  0.1505  0.1600  0.1121
17378W        W33639  14.124   9.889  12.404 -0.2345 -0.2122 -0.1574
17379W        W33640   8.220   3.740  10.677 -0.1278 -0.0103  0.0552
17380W        W33641  13.978   4.487   3.223 -0.0599 -0.0698  0.0000
17381W        W33642   4.999  10.566   4.440  0.2034 -0.3684 -0.0307
17382W        W33643   6.375   6.788   3.112 -0.3365  0.0368  0.0259
17383W        W33644   2.350   3.163   4.896 -0.3953  0.1190 -0.0971
17384W        W33645  15.253   1.534   9.428  0.0135 -0.0943 -0.0190
17385W        W33646   6.410  18.555   2.451 -0.0143 -0.1770  0.1080
17386W        W33647  14.181  16.152  13.407 -0.3110 -0.1919 -0.0368
17387W        W33648   5.601   4.380  14.786  0.1029 -0.0600  0.0132
17388W        W33649   2.627  10.782   9.147  0.2027 -0.0698 -0.2959
17389W        W33650  15.677   4.352   5.187 -0.3474  0.0719 -0.4287
17390W        W33651  12.948   7.068   0.740  0.2308  0.0885  0.1678
17391W        W33652   9.477   8.834  12.202 -0.0863 -0.1167  0.3773
17392W        W33653   1.458   4.062   4.275 -0.1938 -0.0072  0.1324
17393W        W33654   9.475   5.367   2.771 -0.0597 -0.3964  0.2679
17394W        W33655  15.466   0.984   4.054 -0.0624 -0.1059  0.0305
17395W        W33656  17.238  14.965   0.358 -0.2522  0.0251 -0.2816
17396W        W33657   1.506  13.017   3.115  0.0191  0.0355 -0.0581
17397W        W33658   7.634  12.451  12.890 -0.1133  0.4370  0.4500
17398W        W33659  19.211  10.013   1.733  0.1047  0.0212  0.0094
17399W        W33660   7.232   0.530   2.348 -0.2506  0.4534  0.2138
17400W        W33661  11.289  10.816   1.453  0.0572 -0.1794  0.5404
17401W        W33662   6.013   5.358   1.688  0.1395  0.3685 -0.0329
17402W        W33663   4.449   9.409  10.795  0.2427 -0.0272  0.3360
17403W        W33664   9.101   9.186   0.338  0.4391 -0.4289  0.1212
17404W        W33665   5.316   5.139  10.441 -0.0264  0.0431 -0.0542
17405W        W33666   5.967   2.670  13.100  0.4589  0.2097  0.0411
17406W        W33667   6.910   8.852  14.256  0.1651 -0.1186 -0.2286
17407W        W33668   4.970  18.903  12.382 -0.2164 -0.2025  0.2343
17408W        W33669  14.475   8.851   5.415  0.2857 -0.1600  0.3536
17409W        W33670   2.606  13.214   1.392  0.2251  0.2185  0.4630
17410W        W33671  13.429   5.354  13.298 -0.2389 -0.1622  0.1568
17411W        W33672  15.397   0.385  11.004  0.0158 -0.2770  0.0178
17412W        W33673  15.381   1.822  13.398 -0.2847 -0.1732 -0.1042
17413W        W33674  18.354  13.280   3.147 -0.2461 -0.0371 -0.2495
17414W        W33675  10.502  12.192   2.759 -0.2424  0.2474  0.0213
17415W        W33676  13.161   0.550  13.433  0.0259  0.2503  0.1403
17416W        W33677   0.984   1.752   3.783  0.1410 -0.1378 -0.0371
17417W        W33678   3.099   6.094   9.994  0.2687  0.1032 -0.2633
17418W        W33679   9.379   1.431  13.074 -0.2322 -0.1961 -0.3956
17419W        W33680   7.179  18.859   3.966 -0.3146 -0.2131  0.1203
17420W        W33681   1.361   0.691   4.640 -0.0022 -0.3017 -0.0035
17421W        W33682  18.351  10.752   2.281 -0.1335  0.1246 -0.0466
17422W        W33683   6.871   3.519  11.906  0.0075  0.0980  0.0339
17423W        W33684   2.352   3.896   4.188  0.0608  0.0518 -0.2833
17424W        W33685  13.400  15.166  14.767  0.2189  0.0313 -0.0357
17425W        W33686  13.618  18.661  13.926 -0.1929 -0.0119  0.0340
17426W        W33687   2.030  11.681   1.812  0.1749  0.0754 -0.0698
17427W        W33688   8.007   2.672   5.750 -0.1040  0.0599 -0.2894
17428W        W33689  11.647   4.017   0.054  0.0490  0.2108  0.1457
17429W        W33690   8.502   0.957  10.360  0.1772  0.3575  0.0110
17430W        W33691  13.112   1.590   3.047 -0.1726 -0.1442  0.1859
17431W        W33692   2.132  10.180   2.982 -0.0498 -0.0737 -0.1160
17432W        W33693  12.146   8.607   2.493 -0.1512  0.4325 -0.0747
17433W        W33694   6.761  18.689  13.221  0.0836  0.0296 -0.1842
17434W        W33695  15.377   8.469  13.018 -0.0129 -0.2975  0.0680
17435W        W33696   5.910   5.586  14.066  0.3337 -0.1112  0.0635
17436W        W33697   5.239  13.187   1.011  0.0300 -0.0023  0.3418
17437W        W33698  13.183  15.124   3.252 -0.0544  0.0883  0.0721
17438W        W33699   7.216   2.016  11.352 -0.0584 -0.2764  0.0197
17439W        W33700   0.373   5.743  13.996 -0.0335  0.0998  0.3006
17440W        W33701  17.188  16.917  14.029 -0.0509 -0.3358 -0.4198
17441W        W33702   6.732  14.642   1.939  0.0684 -0.0020 -0.2358
17442W        W33703   7.750   3.351  13.726  0.1202 -0.1229  0.1371
17443W        W33704   3.517  13.029  13.458  0.0051  0.1781 -0.2599
17444W        W33705  14.712  15.632  11.121 -0.0796  0.4057 -0.1376
17445W        W33706  10.326  12.577  14.610 -0.1431 -0.0420  0.1734
17446W        W33707  15.343   0.155   4.098 -0.1928  0.1193 -0.4820
17447W        W33708   7.717  19.276  13.774 -0.1395  0.1007 -0.3811
17448W        W33709   0.057   5.518   4.490 -0.1456 -0.1093 -0.0883
17449W        W33710  14.429  16.744  12.899  0.0283  0.0142 -0.4760
17450W        W33711  17.801  18.480   4.423 -0.1485 -0.0227  0.0616
17451W        W33712  17.826  15.745   1.123 -0.1571 -0.0298 -0.0270
17452W        W33713  18.613   7.400   0.581  0.1387  0.1609 -0.3205
17453W        W33714   9.395   0.335  13.724 -0.2313 -0.4440 -0.0279
17454W        W33715   0.956   5.037   4.344 -0.1486 -0.1643 -0.2111
17455W        W33716  13.099   8.552   2.408 -0.1876  0.2743  0.0463
17456W        W33717   0.057  10.515   0.222  0.2738  0.1784 -0.1624
17457W        W33718  16.828   4.406  14.217 -0.2173 -0.2256  0.0466
17458W        W33719  18.828   2.603   4.998  0.2426  0.2981  0.0741
17459W        W33720   2.229  11.509  11.246 -0.1344 -0.2473 -0.1032
17460W        W33721  14.331   7.274  13.748  0.1470 -0.0220 -0.4282
17461W        W33722   4.821   5.019   2.971 -0.1932  0.0939  0.2112
17462W        W33723   3.244   1.975   0.256 -0.0911  0.2962  0.0341
17463W        W33724   1.822  17.602   3.516  0.2006 -0.0513 -0.3003
17464W        W33725   8.567   7.199   2.350 -0.0346  0.0326  0.2097
17465W        W33726   7.669   8.063   0.987 -0.0935 -0.1157  0.2691
17466W        W33727   1.219   3.087   4.182  0.1014  0.1807 -0.0935
17467W        W33728  14.581  15.360  10.547  0.4275 -0.2644  0.0290
17468W        W33729   9.107   9.753  11.827  0.2776 -0.0526  0.0404
17469W        W33730   8.216   2.787  14.100  0.2900 -0.2926  0.0905
17470W        W33731  13.354  10.662  13.658  0.1020 -0.1819  0.0119
17471W        W33732  15.506  11.915   0.725 -0.1373 -0.3662  0.2085
17472W        W33733   2.567   0.221  13.742 -0.0879  0.2344  0.1723
17473W        W33734  14.988   8.090   4.016  0.1299  0.0446  0.2074
17474W        W33735  11.544  13.824  13.521  0.4080 -0.1463 -0.0897
17475W        W33736   7.889  17.131   2.158 -0.0287  0.1616  0.0627
17476W        W33737  17.076   9.935  13.593  0.0405  0.2001  0.2744
17477W        W33738  18.136   4.107  12.957  0.0131 -0.0266  0.0431
17478W        W33739  16.759   4.161  13.240  0.2652  0.0494 -0.1010
17479W        W33740   2.279  14.648  12.138 -0.1760  0.1260 -0.1523
17480W        W33741   1.381  17.713  12.400 -0.0664 -0.1742 -0.0107
17481W        W33742   5.383  12.724   4.958  0.0712  0.0821  0.0387
17482W        W33743   5.907   1.487   1.640  0.3029 -0.0501  0.0437
17483W        W33744  17.279  10.336  12.652 -0.4398 -0.0900  0.0674
17484W        W33745   3.327   8.393  11.144 -0.1912 -0.5251  0.2052
17485W        W33746  10.519  16.998  14.456  0.1561 -0.2616  0.0236
17486W        W33747   2.391   5.360   1.624 -0.0773  0.1436  0.2336
17487W        W33748  13.949   4.719  11.776  0.1085 -0.1956 -0.1607
17488W        W33749   6.063   9.700   4.401  0.0170  0.3322  0.0447
17489W        W33750  13.282   3.497   4.356 -0.1177  0.0393  0.1803
17490W        W33751   4.078   0.862  12.926 -0.0077  0.1188  0.4764
17491W        W33752   1.095   5.175   2.087  0.0536 -0.2581 -0.0891
17492W        W33753  14.578  16.224  11.728  0.1471  0.1309  0.0652
17493W        W33754   9.979  16.241   1.568  0.1554 -0.1131  0.0588
17494W        W33755  11.369  17.938  12.913  0.0848 -0.5269 -0.0272
17495W        W33756  16.906   8.291  10.286  0.1261  0.1658 -0.0915
17496W        W33757  15.149   9.381  11.807  0.0734 -0.2670  0.2523
17497W        W33758  16.805   5.489  13.412 -0.1269  0.1247 -0.5103
17498W        W33759   0.441   1.679   1.010  0.3561 -0.2784  0.2679
17499W        W33760   3.471   0.144   1.930 -0.0942 -0.2841 -0.0794
17500W        W33761   2.013  14.203   4.560  0.1299 -0.3367 -0.1908
17501W        W33762   9.865  16.930   0.196  0.0861 -0.1311  0.0357
17502W        W33763   6.770   3.951   2.449 -0.0201  0.1477 -0.0650
17503W        W33764   0.548  15.292   4.378  0.2100 -0.2859  0.2030
17504W        W33765   5.168  17.267   1.552  0.4441 -0.0770 -0.1380
17505W        W33766  13.508  15.008   1.189  0.4120  0.0634  0.1477
17506W        W33767   0.632   5.383   9.967  0.1607 -0.0138 -0.1669
17507W        W33768  11.558   0.477   2.153 -0.0237  0.1064  0.2744
17508W        W33769   1.224  16.932   6.021  0.0596  0.1584  0.2269
17509W        W33770  18.517   9.155   3.128  0.1590  0.1285 -0.0536
17510W        W33771   1.751   0.306   4.069 -0.1351  0.3225  0.0416
17511W        W33772  17.880  17.416   3.265  0.0369  0.1033  0.1654
17512W        W33773  13.744  16.592  11.004 -0.2510  0.2628 -0.0286
17513W        W33774  18.327   0.777   1.829  0.2510  0.0233  0.0839
17514W        W33775  19.364  14.303  14.541 -0.2080  0.1225 -0.3287
17515W        W33776   0.091   2.083   3.801  0.1974 -0.0855 -0.0721
17516W        W33777  13.134  16.904  14.793  0.0739  0.2506 -0.2586
17517W        W33778  10.183  13.053   0.578  0.3607  0.1009 -0.1522
17518W        W33779  13.286  19.281  12.211 -0.1825  0.0735  0.2169
17519W        W33780   6.352  10.547  14.281 -0.2090 -0.2340  0.0938
17520W        W33781  10.504  10.649   0.146 -0.0363 -0.0204  0.3025
17521W        W33782   1.046   5.117   2.635 -0.0267 -0.0861  0.3914
17522W        W33783  16.186   6.596   4.219 -0.0528 -0.2713 -0.0402
17523W        W33784   1.868   7.004   4.578  0.0286  0.2189  0.2847
17524W        W33785   8.826  14.053  10.383 -0.0779  0.2350 -0.4087
17525W        W33786   6.868   3.258   1.433 -0.1178  0.1006 -0.3693
17526W        W33787  17.716   1.775  10.813  0.3957 -0.0316 -0.2506
17527W        W33788  12.296   8.246   0.646 -0.0005  0.0348  0.2068
17528W        W33789  19.266  15.901  12.646  0.0531  0.1032  0.1373
17529W        W33790  10.055   1.395   2.959 -0.2387 -0.0851  0.1451
17530W        W33791   6.977   8.246   4.848 -0.0872  0.2134 -0.2514
17531W        W33792  16.092   1.674  12.171 -0.2065  0.0897 -0.1306
17532W        W33793   0.204  13.385  13.215 -0.1067  0.0132 -0.0794
17533W        W33794  16.411  14.932   1.728 -0.0107 -0.0920  0.1864
17534W        W33795   6.511   3.282  12.479 -0.1069  0.3264 -0.0860
17535W        W33796   8.861  14.594  12.989  0.3298  0.0881  0.0307
17536W        W33797   2.184   8.566  10.548 -0.0913 -0.5788  0.0236
17537W        W33798  18.787  16.927   3.255  0.1743  0.1598 -0.1197
17538W        W33799   4.537   1.387   0.996  0.0278  0.0958  0.1650
17539W        W33800   6.559   7.734   4.144 -0.1558 -0.3133  0.0519
17540W        W33801   0.380   4.234   3.965 -0.0964 -0.0377 -0.3697
17541W        W33802   9.172  16.229  11.362 -0.2549 -0.1228 -0.1559
17542W        W33803  12.606   7.191  14.445  0.2213 -0.1388  0.0734
17543W        W33804   9.755   8.586   2.551  0.2355 -0.1492  0.0396
17544W        W33805  14.418   3.289  12.153 -0.2847  0.2166 -0.2607
17545W        W33806   1.976  14.472   1.512 -0.1512  0.3813  0.0775
17546W        W33807  10.977   9.998  13.824  0.1412 -0.1323 -0.0521
17547W        W33808  17.049   0.912  12.459  0.0147  0.1711 -0.3112
17548W        W33809  19.251   8.874   3.354  0.1695  0.1507 -0.3458
17549W        W33810   9.388  17.625   3.646 -0.1374  0.0050  0.0940
17550W        W33811  10.651  19.312  13.723 -0.2371 -0.3067 -0.1970
17551W        W33812   6.467  12.578  11.188  0.1502  0.1519  0.1895
17552W        W33813   9.076  11.013   2.680  0.0193  0.1251 -0.1743
17553W        W33814  15.775  11.235  13.464 -0.2344 -0.2343 -0.3448
17554W        W33815   4.937   4.518  13.271 -0.2773  0.1446 -0.0271
17555W        W33816   9.956  11.404  13.951  0.0452  0.0566  0.0188
17556W        W33817  19.037   9.095   0.757  0.1576  0.2137  0.1593
17557W        W33818  12.082  18.784   5.343  0.3372  0.0789  0.0449
17558W        W33819   6.752   3.245  14.741  0.1501 -0.1795  0.2016
17559W        W33820   8.971   9.091  11.526  0.2136  0.1746  0.2728
17560W        W33821  19.239  15.493   4.482 -0.1259 -0.3702 -0.0574
17561W        W33822  11.937   1.574   3.322 -0.1024 -0.1769 -0.1650
17562W        W33823  19.094   0.671   3.855  0.0109 -0.5390  0.0860
17563W        W33824  17.617  19.071  13.902 -0.1581 -0.3162 -0.0179
17564W        W33825   3.749   0.665   4.903  0.0590  0.1007 -0.0728
17565W        W33826  15.891  15.194  10.743 -0.0238 -0.1981 -0.1094
17566W        W33827   2.555   4.399   4.167 -0.0162  0.3190 -0.1271
17567W        W33828  15.056  16.759  10.635 -0.1122 -0.0692  0.0665
17568W        W33829   6.266  12.999  12.197  0.0703  0.0268  0.0857
17569W        W33830  19.064   1.131   1.563  0.1277 -0.1669 -0.1678
17570W        W33831  15.226   1.027  10.887  0.0157 -0.0201  0.5145
17571W        W33832  16.698  13.803   4.624  0.1194 -0.0119  0.0892
17572W        W33833  18.700  13.663   0.737 -0.1908  0.3821  0.0982
17573W        W33834   3.597  15.565   4.136  0.3034 -0.1500  0.3524
17574W        W33835  16.745   9.915  11.457 -0.1352 -0.2365 -0.1219
17575W        W33836   1.498  11.473  13.425  0.0861 -0.0350  0.2172
17576W        W33837   7.880   4.646   3.411 -0.0747 -0.2906 -0.1009
17577W        W33838   4.382  11.133  14.010  0.2796  0.1271  0.0612
17578W        W33839  13.653   9.722   4.287  0.0343 -0.0027  0.4503
17579W        W33840   9.209   9.844   3.426  0.0171 -0.2502  0.0759
17580W        W33841   8.382  13.205   3.674  0.3001  0.3008  0.4040
17581W        W33842  16.245   1.667   0.451  0.1921  0.0130  0.3040
17582W        W33843   9.204   7.396  10.933 -0.0322 -0.0791 -0.1846
17583W        W33844  12.656  13.167  10.497 -0.1445  0.3667 -0.0855
17584W        W33845   5.692  13.573  12.621  0.0226 -0.1922  0.0102
17585W        W33846  10.257  18.896   2.467  0.3954  0.2207 -0.0079
17586W        W33847  18.159   1.393   0.138 -0.0729 -0.3033 -0.2303
17587W        W33848   3.673  10.854   5.494 -0.2601 -0.2082  0.4068
17588W        W33849  16.799   3.941   2.360  0.1064 -0.3808 -0.4438
17589W        W33850   9.406  13.782  10.899  0.1386  0.2160  0.0775
17590W        W33851   8.747   4.125  11.310  0.1153 -0.2690  0.2694
17591W        W33852  18.545   9.684   2.741  0.2074 -0.0041 -0.0880
17592W        W33853  17.232   2.026  11.726 -0.0543  0.3288  0.1716
17593W        W33854  18.703  12.437  11.661  0.1537  0.0208 -0.1440
17594W        W33855  11.306  17.578   3.826 -0.1962  0.4650  0.1691
17595W        W33856   9.312   7.206  14.446 -0.2323 -0.0310 -0.3288
17596W        W33857   5.371   3.908   0.928 -0.0905 -0.1761 -0.0497
17597W        W33858   6.260   2.005  12.606 -0.2541  0.1694  0.3566
17598W        W33859   9.085   0.763   2.516 -0.2510 -0.3532  0.2772
17599W        W33860   1.493   8.550  10.777  0.1929  0.0090  0.0727
17600W        W33861   3.870   7.314   2.869 -0.2536 -0.0240  0.1601
17601W        W33862   7.525  13.977   1.660  0.0118  0.0185 -0.0495
17602W        W33863   5.472  13.732  14.002  0.0161  0.1827  0.0814
17603W        W33864  11.172  10.190  14.796 -0.0944  0.1195 -0.0857
17604W        W33865   4.560   9.191  14.089  0.0918 -0.0799 -0.2220
17605W        W33866  11.594   8.522  12.258  0.0727 -0.2201  0.0661
17606W        W33867   4.093   0.086  11.553 -0.1576  0.1437 -0.1570
17607W        W33868  18.737   3.271   9.821  0.3275 -0.1616 -0.1260
17608W        W33869  17.630   4.398  12.130  0.0964  0.3603  0.0604
17609W        W33870   5.816   7.881   1.077  0.0246 -0.0118 -0.0134
17610W        W33871   8.357   5.221  10.966 -0.1581  0.3000 -0.2510
17611W        W33872  12.257  11.235  10.129  0.2943  0.2016 -0.2512
17612W        W33873  10.091   6.578   3.561 -0.0013  0.0025 -0.0729
17613W        W33874  15.381  14.852   1.187 -0.1806  0.0685  0.1980
17614W        W33875   4.819  14.248  10.631  0.1969  0.0171 -0.2135
17615W        W33876   9.795  13.471  12.836 -0.0121 -0.0623  0.1194
17616W        W33877   7.152  15.916  10.300 -0.0048  0.2460 -0.1900
17617W        W33878   5.480   7.726  14.460  0.0846 -0.2061 -0.0657
17618W        W33879   8.985  12.731   0.836  0.0034  0.0771  0.0067
17619W        W33880   4.416   5.819   1.895  0.2678  0.1415 -0.4347
17620W        W33881   7.111   4.632   4.512  0.1337 -0.3203  0.2079
17621W        W33882  18.370   9.972  10.180 -0.2990 -0.1699  0.1166
17622W        W33883  12.031  11.256   1.292  0.1723 -0.1542 -0.4520
17623W        W33884   3.913   2.293  11.666 -0.1004  0.4954  0.1880
17624W        W33885   9.806  10.522  12.041  0.1474 -0.3588  0.0251
17625W        W33886  14.676  11.391   9.767 -0.1514 -0.0756 -0.3297
17626W        W33887   3.631  15.379  11.606 -0.0661 -0.1168  0.1299
17627W        W33888   7.403   4.465   5.789  0.4453  0.1100 -0.3046
17628W        W33889   3.140   1.687   3.161  0.1732  0.2335 -0.0460
17629W        W33890   8.395   8.397  10.644  0.1539 -0.0659 -0.2212
17630W        W33891  16.194  12.818  12.640  0.2505  0.0229 -0.0860
17631W        W33892  12.680   7.208   2.038  0.0924  0.0295  0.0282
17632W        W33893   1.292  14.351  13.266 -0.2204 -0.0379  0.0310
17633W        W33894   1.669  14.905  13.247  0.2695 -0.0360 -0.2012
17634W        W33895   7.565   7.480  11.076 -0.0313  0.1905 -0.1069
17635W        W33896  18.406  11.186  12.481 -0.0786  0.1411 -0.4702
17636W        W33897  14.035   6.531   0.928  0.0036  0.0872  0.4217
17637W        W33898  18.886   7.433   3.188  0.0565 -0.2750  0.1579
17638W        W33899   0.337  16.036   0.281 -0.0783  0.1264  0.3150
17639W        W33900   4.072  11.659  12.717 -0.2694  0.1677 -0.1487
17640W        W33901   7.587  11.181  10.318 -0.0240  0.0705 -0.1398
17641W        W33902  18.795   6.616   4.657  0.0943 -0.0810  0.4910
17642W        W33903   1.157  13.918   9.472  0.0624 -0.0907 -0.2014
17643W        W33904  19.147   8.731   3.844 -0.0754 -0.3352 -0.0630
17644W        W33905   0.204  15.222  13.500 -0.1706  0.1555 -0.0141
17645W        W33906  13.844   5.085   0.957  0.0351  0.2100  0.1559
17646W        W33907   7.284   7.377   4.684 -0.0637  0.1800  0.0433
17647W        W33908   7.058  18.947   1.491 -0.0923  0.2649  0.2493
17648W        W33909  10.858  10.661   3.023 -0.0960  0.1013  0.0333
17649W        W33910  16.264   9.433   2.644 -0.1717  0.0248  0.2145
17650W        W33911  11.696   2.611   4.709 -0.0257  0.1926 -0.3110
17651W        W33912   7.275  12.879   0.112  0.0529 -0.0675 -0.1257
17652W        W33913  18.242   6.968  13.877  0.1426  0.0996 -0.0551
17653W        W33914   1.620  14.990  14.538  0.2561 -0.2820 -0.0721
17654W        W33915  14.407   9.431  11.448 -0.1110  0.1408 -0.1806
17655W        W33916   4.143   6.982   3.238  0.0016 -0.1282 -0.1811
17656W        W33917  16.851  14.726  14.579  0.2815  0.1388 -0.1092
17657W        W33918   8.080   0.173  14.597  0.2990  0.1415  0.0129
17658W        W33919  13.217  10.239  13.004  0.1130  0.1021  0.2958
17659W        W33920  13.243   4.313   2.333  0.0193 -0.1068  0.1446
17660W        W33921   9.620  11.191  13.186 -0.0105  0.1934 -0.3106
17661W        W33922   7.462   1.187  12.525 -0.2565 -0.1229 -0.1448
17662W        W33923   6.375  12.431  10.712  0.0706 -0.0185  0.0639
17663W        W33924  14.429   0.671  10.722  0.0715  0.1762 -0.4011
17664W        W33925   3.867  10.076   3.517  0.1513  0.1379  0.3532
17665W        W33926   5.110   8.787   0.062  0.1442 -0.0659 -0.1189
17666W        W33927  13.740   8.453  12.334 -0.0999 -0.0575 -0.0061
17667W        W33928  11.768  13.655   3.742  0.1860 -0.2106  0.0043
17668W        W33929  19.013   8.234  11.447 -0.0922  0.2639  0.0356
17669W        W33930  17.451  11.674   4.247 -0.0803 -0.1026 -0.0794
17670W        W33931   4.110   6.493  12.499 -0.2759  0.0908 -0.0599
17671W        W33932   5.007   0.721   1.494 -0.2143  0.2926 -0.1542
17672W        W33933  14.691  18.272   3.759  0.0380 -0.1908  0.1015
17673W        W33934  14.222   9.028  11.798 -0.1208 -0.0421  0.0967
17674W        W33935  13.376   2.603   1.656 -0.0050  0.4266  0.0661
17675W        W33936   4.476  10.294   0.833 -0.1044  0.1206 -0.1320
17676W        W33937   3.157   7.731   2.399  0.1573 -0.0984  0.4062
17677W        W33938  11.642   8.860  14.494 -0.2631  0.0273  0.2956
17678W        W33939   2.631  14.768   3.283  0.3127 -0.1503 -0.0892
17679W        W33940  11.305   3.140  11.416  0.2742  0.2787  0.0866
17680W        W33941  12.559   6.491   3.324 -0.1454  0.0564  0.0346
17681W        W33942  17.974   7.667  13.116 -0.0318 -0.1126  0.1278
17682W        W33943  17.913   2.680  11.226 -0.0270 -0.0429 -0.0618
17683W        W33944  13.682  14.225   9.843 -0.2139  0.0902  0.1101
17684W        W33945  15.015   3.393  14.493  0.0991 -0.1836 -0.0954
17685W        W33946   5.216  10.652   5.867 -0.1352 -0.2921 -0.2434
17686W        W33947  16.837   2.961   5.809 -0.0464 -0.0272  0.0291
17687W        W33948   2.259   0.774  10.265 -0.3301  0.2612 -0.2346
17688W        W33949  14.687   9.582   0.360 -0.0591 -0.3511  0.1055
17689W        W33950  15.153  18.868  13.505 -0.2476  0.0116 -0.2184
17690W        W33951   0.177  10.448   4.323 -0.0064 -0.4044  0.0653
17691W        W33952  12.687   1.088   0.954  0.0778 -0.1521  0.0417
17692W        W33953  15.287  15.597   3.553  0.1434  0.3094  0.1988
17693W        W33954  12.626  16.997   3.857  0.0216  0.0754  0.0018
17694W        W33955  10.141   3.875  12.145  0.1254 -0.0573 -0.0884
17695W        W33956   4.593   5.108   5.759 -0.2646  0.1344 -0.3262
17696W        W33957   9.583   5.925   1.205  0.2907  0.3718 -0.0213
17697W        W33958  18.658  13.569   3.756 -0.2712 -0.0982 -0.0927
17698W        W33959  13.534   3.607   2.101 -0.1123  0.3492  0.3993
17699W        W33960  11.195   1.204   3.789 -0.2900  0.0924  0.3721
17700W        W33961   5.298   0.936  10.976  0.0112 -0.1439 -0.1100
17701W        W33962   0.078   9.136   2.991  0.0091  0.0084 -0.0762
17702W        W33963   4.600   8.384  12.796  0.1696  0.2744  0.2412
17703W        W33964  11.502  13.820   3.064 -0.0021 -0.0214  0.0049
17704W        W33965  16.959   4.404  10.611  0.2685  0.1945  0.0000
17705W        W33966  15.332   3.299  11.044 -0.0120 -0.1929 -0.4053
17706W        W33967  15.567   6.100  12.762 -0.1372  0.0996  0.2949
17707W        W33968  16.896   3.719  13.547 -0.2149 -0.0189  0.1809
17708W        W33969  17.715  16.292  11.353 -0.0631  0.1482  0.2201
17709W        W33970  18.682  19.375  14.702  0.2544 -0.2043 -0.0362
17710W        W33971  15.741   7.026   0.404  0.1507  0.2925  0.0083
17711W        W33972  16.340  17.309  12.281 -0.1995  0.3135 -0.0647
17712W        W33973  14.230   1.232   1.949  0.0447 -0.0543  0.0977
17713W        W33974  17.058  17.892   3.665  0.0312  0.0199  0.3871
17714W        W33975   7.502   0.341   3.988  0.2697 -0.0938  0.0111
17715W        W33976  17.064   5.066  13.728  0.1794 -0.0917 -0.1042
17716W        W33977   6.468  17.812   4.872 -0.1386  0.3806  0.3009
17717W        W33978   7.740   4.392  11.242 -0.2444  0.2216  0.1543
17718W        W33979   1.194  14.774  13.556  0.0255  0.1658 -0.2441
17719W        W33980   6.105   5.942  11.692 -0.1869 -0.2765  0.0810
17720W        W33981  17.723   9.140   4.571  0.0470  0.3259 -0.1600
17721W        W33982   5.986   1.656   4.720  0.3714 -0.1263 -0.1840
17722W        W33983   8.040   3.233   0.778  0.2529  0.2798  0.0682
17723W        W33984   1.858   1.853  11.075 -0.1827  0.1681 -0.1400
17724W        W33985   4.193   2.450  11.074 -0.1676 -0.0663  0.0327
17725W        W33986   7.858  14.275  12.493  0.1390 -0.3715  0.1845
17726W        W33987   0.923   0.330   1.404 -0.0982 -0.2757  0.1800
17727W        W33988   2.007  16.051  10.875  0.1722  0.0363  0.1506
17728W        W33989   8.628   2.191  13.961  0.0885 -0.1964  0.0346
17729W        W33990  11.947  13.929  10.924  0.0878  0.0745  0.0923
17730W        W33991  12.440  11.165  11.000 -0.0191  0.1149 -0.0898
17731W        W33992   8.660   0.635   0.118 -0.0256  0.0567 -0.4232
17732W        W33993  10.027   9.295  13.588  0.1361 -0.1112 -0.1063
17733W        W33994   5.677  15.342  11.143 -0.0754  0.1681 -0.2921
17734W        W33995   0.522   6.834   4.611  0.0026 -0.4451  0.1534
17735W        W33996  17.557  10.720  14.603  0.0526 -0.0895 -0.4116
17736W        W33997   6.941   1.979   2.739 -0.1772  0.0469  0.1255
17737W        W33998  13.574  14.110  13.773  0.0193  0.4705 -0.2671
17738W        W33999  15.593   7.392   3.265 -0.1810  0.0452 -0.1113
17739W        W34000  10.686   5.864  13.660 -0.0994 -0.2009  0.1564
17740W        W34001  19.214   6.331   1.216  0.1071  0.0454 -0.2148
17741W        W34002  11.190  17.316   2.349 -0.0638  0.0003 -0.0855
17742W        W34003   8.833  12.192  13.918  0.3221 -0.1103 -0.2798
17743W        W34004  11.119   6.197  12.435  0.0184  0.1644 -0.1544
17744W        W34005   2.776  16.044   3.962  0.2553 -0.1688  0.3708
17745W        W34006   9.442  10.876   1.569 -0.0841 -0.0717  0.1416
17746W        W34007  11.641  15.056  14.297 -0.0060  0.0519 -0.1596
17747W        W34008  17.651   6.013  12.000 -0.0436 -0.0197 -0.2469
17748W        W34009  14.984   2.718  14.576  0.0706  0.1992  0.0118
17749W        W34010  11.742  10.223  12.964 -0.0585  0.0215  0.1583
17750W        W34011  16.962   0.801  11.822 -0.0235 -0.0302 -0.2202
17751W        W34012   1.756   1.273   0.879 -0.0803  0.2874  0.2731
17752W        W34013   0.537  16.983   5.085 -0.0645 -0.3475  0.1625
17753W        W34014   0.947  16.935   5.558  0.1834 -0.1022 -0.0487
17754W        W34015  18.428   0.697  13.879  0.0369  0.0671  0.1256
17755W        W34016   8.517  18.804   1.994  0.2653  0.0706 -0.2696
17756W        W34017  14.046   9.727  14.427 -0.0214  0.1561  0.0534
17757W        W34018  18.215  11.667   2.102  0.1300 -0.0832  0.1406
17758W        W34019  12.571   2.743   3.534  0.5190 -0.0647  0.0714
17759W        W34020   3.467   1.374   4.013  0.2462  0.0863  0.0310
17760W        W34021  11.881  14.192   2.971  0.0027 -0.0370  0.0953
17761W        W34022  13.956   4.300  12.343  0.3374 -0.0402  0.2037
17762W        W34023  18.716  13.300   1.358  0.2467  0.0707  0.1242
17763W        W34024   9.045   5.168  14.870  0.1868  0.3028 -0.1436
17764W        W34025   8.664   7.955   1.967 -0.1092 -0.3532  0.0841
17765W        W34026  17.993  11.398   1.580 -0.1792  0.1314  0.2586
17766W        W34027  16.340  12.069   3.559 -0.5188 -0.0567  0.0428
17767W        W34028  12.652   3.882   2.410 -0.1892  0.1715 -0.0772
17768W        W34029  13.313  17.614   2.640 -0.0922  0.0489 -0.1026
17769W        W34030   9.855  16.556  11.561 -0.2894 -0.2622  0.0254
17770W        W34031  11.938  11.053   9.792 -0.1246  0.0473  0.0897
17771W        W34032   4.546   7.276   4.556 -0.0243  0.1812  0.2993
17772W        W34033  16.510   0.969  12.735 -0.5373 -0.0046 -0.0173
17773W        W34034   7.318   0.474   9.896 -0.0603 -0.1111  0.0857
17774W        W34035   3.296   1.312  12.326 -0.4400  0.2115  0.0337
17775W        W34036  12.849  12.533   9.966  0.1151  0.0011  0.1149
17776W        W34037   4.936   6.471   2.343  0.0514  0.1063  0.0938
17777W        W34038   2.179  16.322   5.759  0.1084 -0.0163 -0.1183
17778W        W34039  18.408   3.611   2.656 -0.0638  0.3903 -0.0739
17779W        W34040  10.392   6.039   0.459  0.0833 -0.0791  0.0370
17780W        W34041   7.909   6.376   0.438  0.0269  0.0682  0.0507
17781W        W34042   6.516   0.342   1.295 -0.1768 -0.1191  0.1293
17782W        W34043  13.354  17.522   1.251  0.0010 -0.4945 -0.1079
17783W        W34044   8.513  14.261  13.509  0.1232  0.1470  0.3054
17784W        W34045  10.192  17.121   2.661 -0.0365  0.3556 -0.0790
17785W        W34046  11.905   3.975  14.463  0.0278  0.1697 -0.1973
17786W        W34047   5.621   9.660  10.835  0.1922 -0.0275 -0.1449
17787W        W34048  13.449  13.412   1.811 -0.1765 -0.4526 -0.1264
17788W        W34049   6.345  15.724   5.005 -0.1006  0.1734 -0.2178
17789W        W34050   6.573  16.992  10.761  0.1256 -0.0436 -0.1478
17790W        W34051  11.867   4.240   1.363 -0.5076  0.0426 -0.3020
17791W        W34052   2.591  19.353   1.218  0.0286  0.1166  0.1233
17792W        W34053   8.998  18.323  10.257  0.1873 -0.1552 -0.2421
17793W        W34054   8.072  17.739   3.535 -0.1008  0.0801 -0.3533
17794W        W34055   8.651  11.636   0.356 -0.1150  0.0448 -0.0308
17795W        W34056  10.233  18.465   8.956  0.0036  0.2854  0.2684
17796W        W34057  13.451   2.674  12.609  0.1272 -0.2075 -0.0930
17797W        W34058   4.591   2.563   0.096 -0.0020 -0.0847 -0.0057
17798W        W34059   7.321   0.865   1.061  0.3157 -0.2906 -0.3709
17799W        W34060   7.592   3.509   0.383 -0.1534  0.0499 -0.1349
17800W        W34061   4.285   7.824   3.720 -0.1151  0.3803  0.0652
17801W        W34062  19.145   4.097  14.264  0.1292 -0.0385  0.0255
17802W        W34063  17.884   4.247  10.559 -0.0677 -0.0600 -0.1816
17803W        W34064   5.370  14.455  13.039  0.2664 -0.1115  0.1717
17804W        W34065   1.399   7.046   2.987  0.0592 -0.1204  0.0220
17805W        W34066   5.107   1.253   4.208  0.1597  0.1993 -0.1662
17806W        W34067  13.121   9.938   1.638  0.0857 -0.1239  0.1847
17807W        W34068   7.997   7.895  13.932 -0.3039 -0.3614 -0.0275
17808W        W34069  15.330   6.303  13.905 -0.1964  0.1541  0.1988
17809W        W34070  11.498   4.021  13.985  0.0141 -0.0710 -0.0681
17810W        W34071   7.172  14.846  13.033  0.1499 -0.0179  0.0672
17811W        W34072   3.057  15.437   2.679 -0.1433 -0.5175 -0.0026
17812W        W34073  13.536  18.306  13.094  0.0016 -0.1221  0.0844
17813W        W34074  16.243  10.165  10.615 -0.1989 -0.2275  0.2601
17814W        W34075   3.898   3.010   3.366  0.1481  0.1824  0.1677
17815W        W34076   5.370   2.719   2.431  0.2769 -0.0692  0.4015
17816W        W34077  18.667   2.528   1.332  0.4267  0.0221  0.1226
17817W        W34078  14.977  18.376  11.520  0.0449 -0.2482  0.2060
17818W        W34079   0.686   8.063  12.625 -0.0860  0.0609 -0.0600
17819W        W34080   5.611   5.791   0.218  0.0690  0.2028  0.0911
17820W        W34081  14.261  15.894  11.408  0.1419 -0.0819 -0.0266
17821W        W34082  18.937   0.375   4.651  0.0998 -0.0343 -0.1332
17822W        W34083   2.884   1.711  13.591 -0.0072 -0.3778 -0.0914
17823W        W34084   5.081   1.730   0.652 -0.2994  0.0649 -0.0990
17824W        W34085   4.411  10.017  14.233 -0.1740  0.0832  0.3250
17825W        W34086  16.359  17.679  10.289 -0.2529 -0.2212  0.0121
17826W        W34087   0.654   1.670  14.775 -0.2349  0.1385  0.0831
17827W        W34088  19.274  11.793  10.073 -0.2504  0.1519  0.2953
17828W        W34089  17.174   1.896   4.391 -0.2096 -0.3093 -0.1701
17829W        W34090  12.851   0.301   1.283 -0.0127  0.3567 -0.0320
17830W        W34091   3.685  17.834   1.097  0.1028  0.0107 -0.1494
17831W        W34092   0.520  17.662   4.117  0.3401  0.1282 -0.3899
17832W        W34093  12.819   4.012   5.348 -0.1770  0.0168  0.0724
17833W        W34094  16.324   3.299  13.257  0.0312 -0.2101  0.0541
17834W        W34095  16.161   3.837   0.902 -0.2740 -0.0164 -0.5145
17835W        W34096  15.212   5.575  10.738  0.0746  0.0854 -0.1011
17836W        W34097   9.627  10.873  10.661  0.0451  0.0886  0.0791
17837W        W34098   9.598   4.564  13.855  0.3567  0.0095  0.0961
17838W        W34099   8.681  17.211  13.474 -0.2431  0.0907 -0.1670
17839W        W34100   1.717   8.857  14.793 -0.0232  0.2518  0.2264
17840W        W34101  16.328   0.550   0.373 -0.0023 -0.0011 -0.0914
17841W        W34102   6.489   0.230   4.886 -0.1582  0.1318  0.2544
17842W        W34103  15.998  17.686  11.414  0.0327 -0.1508  0.2670
17843W        W34104  12.100  14.241   0.016 -0.3258 -0.1342  0.0394
17844W        W34105  18.703   1.238  12.998  0.0537  0.0014  0.1836
17845W        W34106   9.039   6.309   2.307  0.3726 -0.2382 -0.0685
17846W        W34107  13.695  13.885   4.907  0.0318 -0.0924  0.0159
17847W        W34108   5.981   0.351   2.196 -0.0218 -0.2578  0.5256
17848W        W34109  12.228   6.098  11.988 -0.2229  0.2509  0.3851
17849W        W34110   1.624  15.731   2.080  0.0036  0.2138  0.0520
17850W        W34111   3.889  16.148   2.253 -0.3847 -0.3230 -0.0025
17851W        W34112   1.906  11.383   0.227  0.1939  0.0749  0.2696
17852W        W34113  10.786  14.375  13.617 -0.1435 -0.0126 -0.1193
17853W        W34114  17.674   2.318  10.555  0.0896 -0.1258 -0.2956
17854W        W34115  12.558   6.863   2.453 -0.2568 -0.2001 -0.2373
17855W        W34116  11.427  11.622  12.987  0.1647  0.4132 -0.2656
17856W        W34117  10.703   1.655  12.177 -0.1700  0.0536  0.3203
17857W        W34118  12.464  15.712   1.986  0.2830 -0.2607  0.0171
17858W        W34119   4.986   6.573  11.006 -0.0618 -0.3166 -0.1803
17859W        W34120   2.367  10.195   4.384 -0.2792 -0.0486  0.1563
17860W        W34121  18.997  17.176   1.903  0.0811 -0.3119  0.0355
17861W        W34122   5.748  15.360  12.107  0.2236 -0.0804  0.1451
17862W        W34123   1.859  12.000   4.822 -0.2427  0.2205  0.2372
17863W        W34124  10.907   3.340   0.817 -0.0541 -0.0078  0.1394
17864W        W34125  12.411   0.302  10.115  0.4186  0.1800  0.0474
17865W        W34126   6.235  19.021  10.197 -0.0172  0.2493  0.0283
17866W        W34127  15.439   9.692   4.132 -0.1797  0.0914 -0.1774
17867W        W34128   8.629   7.755   0.926  0.0678  0.2266 -0.2130
17868W        W34129   0.760   5.925   0.996  0.0102 -0.0992  0.0049
17869W        W34130  13.913   5.401   3.334 -0.1289 -0.3594  0.1300
17870W        W34131  16.521   9.337  14.714 -0.0148  0.0426 -0.2974
17871W        W34132   0.986   8.925  12.640  0.0270 -0.1552 -0.0525
17872W        W34133  17.662  13.484   1.223 -0.3468 -0.0812  0.1381
17873W        W34134  12.336   8.594   1.000 -0.1175  0.1270  0.0122
17874W        W34135  17.582  14.100   1.877  0.0041  0.0026 -0.3765
17875W        W34136   1.514   3.346   0.863 -0.0477  0.3482 -0.3026
17876W        W34137  12.406   3.366   9.234 -0.0145  0.1738 -0.0010
17877W        W34138   6.633   8.915  10.567  0.1427  0.1956  0.0116
17878W        W34139   9.046   4.264  11.827  0.2568 -0.2011  0.1595
17879W        W34140   1.953  15.672   3.329 -0.1735 -0.2197  0.1278
17880W        W34141   3.791  16.571   2.884  0.2339  0.0709  0.4711
17881W        W34142   2.790   6.985   4.618 -0.2554 -0.0317  0.0031
17882W        W34143   9.523  11.477  11.542 -0.2655 -0.2144 -0.3232
17883W        W34144   9.402   9.104  13.880 -0.1831  0.1731 -0.0653
17884W        W34145  18.559  11.094   1.271 -0.1154 -0.0924 -0.2137
17885W        W34146   4.235   4.666  12.583  0.0645 -0.0498 -0.0667
17886W        W34147   8.639  18.703  13.912  0.0301 -0.1073 -0.0900
17887W        W34148  12.724  17.983  12.451 -0.0631 -0.4446 -0.0939
17888W        W34149  16.298  14.110   1.576 -0.3040  0.1703 -0.1400
17889W        W34150   9.499  15.922   0.505 -0.1968 -0.0250 -0.0328
17890W        W34151   9.168  16.419   0.375  0.3303 -0.0347 -0.2111
17891W        W34152  18.760   0.717  14.227  0.2138  0.0059 -0.0995
17892W        W34153   5.109   4.482  12.773  0.1452  0.1875  0.0372
17893W        W34154   6.521  12.525   0.805 -0.0579  0.0274  0.0077
17894W        W34155  12.797  15.221  13.548  0.0713  0.2126  0.2930
17895W        W34156  13.397  10.279   0.596 -0.2219  0.0838  0.1496
17896W        W34157   0.458  17.487   1.606 -0.2309  0.1935  0.0606
17897W        W34158   4.127  17.764  11.329  0.1181  0.0046  0.3138
17898W        W34159   5.240  17.335   5.794 -0.0124  0.0590  0.1340
17899W        W34160  15.047  14.416   1.148  0.0121 -0.3734  0.0309
17900W        W34161   8.861   3.969  13.716  0.2551 -0.0573 -0.0640
17901W        W34162   8.373   0.530   1.462  0.1827 -0.1597 -0.3963
17902W        W34163  15.180  16.162  13.873 -0.2153  0.0382  0.3201
17903W        W34164  18.876   8.695   1.050  0.0040  0.0798 -0.1918
17904W        W34165   7.591   5.222  13.954  0.1450  0.0954  0.3593
17905W        W34166  16.975  14.439  13.518 -0.1241  0.1206  0.3604
17906W        W34167   1.995  10.953   2.130 -0.1515  0.3517  0.0132
17907W        W34168  10.187   0.703   4.066 -0.0669 -0.1388 -0.2623
17908W        W34169   3.121   8.194   5.012 -0.0529  0.1453 -0.2059
17909W        W34170   4.822   3.176  10.478 -0.1270  0.1187 -0.1415
17910W        W34171   5.181   9.368   0.317 -0.2584 -0.0615 -0.0859
17911W        W34172  14.966  10.982   3.328  0.0298 -0.1465  0.0681
17912W        W34173   8.998  12.339  10.492 -0.3733 -0.0211 -0.1915
17913W        W34174   4.583   7.624  14.598  0.2319  0.0768  0.2695
17914W        W34175   2.432   0.038  14.622  0.0019  0.0524  0.0592
17915W        W34176   2.033   2.323   4.906  0.0866 -0.1726 -0.1953
17916W        W34177   7.303  11.502  10.569  0.2262  0.0863 -0.2730
17917W        W34178  12.568   4.788   2.718 -0.0089  0.1834 -0.0882
17918W        W34179   3.369   8.532   2.464  0.1630  0.0408 -0.0553
17919W        W34180   5.951  15.168   1.419  0.1752  0.2506 -0.2557
17920W        W34181   4.257   7.330  13.661 -0.1096 -0.0650 -0.0743
17921W        W34182  15.007   0.949  11.354  0.3757 -0.0589 -0.1253
17922W        W34183  19.294   7.139   3.405 -0.3222  0.0786  0.2464
17923W        W34184  17.176  16.381  13.914 -0.1328 -0.0810 -0.0228
17924W        W34185   6.658   5.748   4.611 -0.3714 -0.0912  0.1386
17925W        W34186  15.539   7.902   0.105  0.0248 -0.0927  0.1605
17926W        W34187   0.573  11.116   4.307 -0.2459 -0.1241 -0.1549
17927W        W34188   7.483   2.942   4.372 -0.2201 -0.0651 -0.0377
17928W        W34189   0.925  17.519  12.239 -0.1124  0.1174  0.0361
17929W        W34190  17.021   9.216  14.606  0.0182  0.3067  0.2117
17930W        W34191   0.301   3.445   3.031 -0.0508  0.0742  0.0469
17931W        W34192  11.192  12.446   0.774 -0.1812  0.2632  0.1595
17932W        W34193   6.318   6.315   1.160  0.0433 -0.0107 -0.3686
17933W        W34194  13.503   3.187  13.352 -0.0973  0.0914  0.4030
17934W        W34195  15.940   0.977   3.792 -0.0529 -0.1000  0.2837
17935W        W34196  13.414   0.723  12.769 -0.1700  0.1639 -0.4168
17936W        W34197  19.114   4.599  13.376 -0.1294 -0.0420  0.0366
17937W        W34198   1.640   8.836  14.086  0.0448 -0.2100  0.0098
17938W        W34199  14.517   7.602   3.102 -0.4853  0.1982 -0.1003
17939W        W34200  13.770  11.372   0.409  0.1911 -0.1883  0.0093
17940W        W34201   3.563   6.782   2.632 -0.0482 -0.1251  0.3038
17941W        W34202  12.664  16.159  10.406  0.2402 -0.1362  0.0574
17942W        W34203   8.960   2.765  13.449 -0.4082  0.0801  0.0698
17943W        W34204  16.099  13.234   0.798  0.2205  0.4296  0.3246
17944W        W34205   7.463  14.441   1.870  0.3256  0.1152  0.4667
17945W        W34206   2.468   2.433  11.103 -0.1762  0.1615 -0.0901
17946W        W34207  10.833   4.860  13.702  0.0904  0.1872  0.4393
17947W        W34208  12.524   0.868   3.297 -0.0199 -0.0129  0.0531
17948W        W34209   8.221   8.168   1.577 -0.1779  0.1144  0.0459
17949W        W34210  14.468   4.024  12.734  0.2259 -0.0007  0.0379
17950W        W34211   6.781  13.724   3.592 -0.1519 -0.1603  0.0002
17951W        W34212   0.345  16.890   2.347 -0.1100  0.1255  0.1351
17952W        W34213   8.741  18.757  11.205  0.0999  0.1994  0.0005
17953W        W34214  12.720   8.064  12.744  0.3174 -0.1385  0.1920
17954W        W34215  17.764   5.507   1.207 -0.2847  0.1079 -0.1005
17955W        W34216  14.863   9.079   5.096  0.0193  0.1168 -0.2552
17956W        W34217  14.058   3.624  11.881  0.3580  0.0405 -0.2834
17957W        W34218   9.347  18.803  13.666 -0.0986  0.0964  0.1512
17958W        W34219   1.098   1.939   2.104  0.2204 -0.0278 -0.0446
17959W        W34220   8.681  18.316   1.928  0.1401 -0.0529  0.4155
17960W        W34221   5.077  19.378   1.222  0.0811  0.0438  0.1353
17961W        W34222   6.711   1.646  14.639 -0.0580  0.1015 -0.1574
17962W        W34223  17.980  15.100  12.857  0.3808  0.0277  0.0761
17963W        W34224  11.133  18.403   2.266 -0.0504  0.2770 -0.1361
17964W        W34225   7.402  13.887   3.866 -0.0410 -0.2271 -0.3088
17965W        W34226  13.078  14.602   3.421  0.0032  0.0018 -0.3052
17966W        W34227  16.042   9.014   3.648  0.0053 -0.0058  0.0634
17967W        W34228   3.571  15.477   5.075  0.1687 -0.0529 -0.4952
17968W        W34229   9.588   0.862  11.181 -0.0822  0.2267 -0.1628
17969W        W34230  15.702  10.248   4.881  0.1091  0.3082 -0.1671
17970W        W34231   1.361   5.128   4.049  0.3352  0.4749 -0.2641
17971W        W34232   6.786   2.915   3.105  0.1165 -0.2538  0.0992
17972W        W34233   7.779   9.510   0.555  0.0279  0.0210  0.1026
17973W        W34234  13.683  15.284   2.078 -0.0960 -0.0056 -0.1277
17974W        W34235  18.171  17.286   3.784  0.0474  0.0228  0.0259
17975W        W34236  16.938   0.182  11.852  0.0609  0.3452 -0.2977
17976W        W34237   2.941   9.315   0.722 -0.2814  0.0816 -0.0312
17977W        W34238   8.971  15.523   1.019 -0.0894  0.0933 -0.0835
17978W        W34239  12.625  14.733   2.283 -0.1144 -0.1863 -0.2194
17979W        W34240   5.613   3.732  11.482  0.4855  0.0907  0.0274
17980W        W34241   3.896  14.402   1.998 -0.2262 -0.1650 -0.1402
17981W        W34242   9.125  13.634   2.417  0.1812 -0.0165  0.1884
17982W        W34243  14.029   7.427   2.527 -0.3360  0.0056 -0.3153
17983W        W34244   3.279  15.456   3.677 -0.0861  0.1757  0.1841
17984W        W34245   1.034  19.367  14.030  0.3107  0.2849 -0.1791
17985W        W34246   7.349  19.285   1.232  0.3608 -0.1726 -0.2118
17986W        W34247  13.562   4.643  13.383  0.0053 -0.0699  0.1297
17987W        W34248   2.412   7.106   1.211  0.2132  0.1356 -0.0890
17988W        W34249   5.998  10.903  11.006 -0.1186 -0.1815  0.0116
17989W        W34250  15.937  11.965   2.571 -0.3774  0.1633  0.2426
17990W        W34251   4.567   1.066  12.530  0.1092  0.0187 -0.1589
17991W        W34252   9.638   8.593  11.167  0.0523 -0.0332 -0.4070
17992W        W34253  10.046  17.774  14.010 -0.0200  0.1636  0.0599
17993W        W34254  14.727  19.172  12.221 -0.2480  0.1011  0.1267
17994W        W34255  16.667   3.831   2.826 -0.0228 -0.0060  0.1917
17995W        W34256  17.666  16.514   3.047  0.2165  0.1858 -0.1077
17996W        W34257   2.509  12.123   2.625  0.2864  0.0254  0.4596
17997W        W34258   0.333  15.434  13.079  0.3025 -0.0463  0.0932
17998W        W34259   7.872   2.515   3.490 -0.0361  0.0818  0.1459
17999W        W34260  11.000   0.940  13.041 -0.1651  0.0987  0.2080
18000W        W34261  15.416   7.142   1.685  0.0353 -0.3531  0.1618
18001W        W34262  18.221   4.875   3.160 -0.1086 -0.0390 -0.2218
18002W        W34263  12.685  17.800  13.317 -0.0818  0.2226 -0.0624
18003W        W34264  13.671   9.514  11.615  0.0566  0.2260  0.1557
18004W        W34265  14.491   6.263  10.380 -0.2333 -0.1172 -0.0937
18005W        W34266   4.455   0.132   4.844  0.1493  0.0213  0.2684
18006W        W34267   4.646   0.783   0.548 -0.1062  0.0787 -0.0474
18007W        W34268  15.796  11.486   1.828  0.0629 -0.1395 -0.0269
18008W        W34269   1.724  12.106   3.050  0.2045 -0.0356  0.1568
18009W        W34270  11.844   5.973   0.888  0.0413 -0.1249  0.0498
18010W        W34271   8.421  12.935   0.039 -0.1154 -0.2459  0.0074
18011W        W34272   5.527   9.070   0.115  0.1715  0.1451  0.0513
18012W        W34273   8.043  16.643  12.890 -0.1232  0.2159  0.3053
18013W        W34274  15.834   1.738  12.647  0.1247 -0.2097 -0.0745
18014W        W34275  13.684   9.132   1.700  0.0082  0.1531  0.0437
18015W        W34276   7.680   2.912  12.369  0.0493  0.2200  0.4235
18016W        W34277  11.896   2.113   2.926 -0.0987  0.1772  0.4330
18017W        W34278   6.277   1.700   3.610 -0.2083  0.2100 -0.3356
18018W        W34279   6.174  10.653  12.641  0.0031 -0.1885  0.0084
18019W        W34280  15.866   1.193  13.967  0.0299  0.0788  0.0031
18020W        W34281  18.874  10.817   2.790 -0.1209 -0.0516 -0.2376
18021W        W34282   9.876   7.856  12.580 -0.0483  0.1996 -0.2163
18022W        W34283  16.028  14.939  12.353 -0.2049 -0.0993 -0.0368
18023W        W34284  13.269   7.601  13.657 -0.0112 -0.0987 -0.1824
18024W        W34285  11.351   0.462  14.728  0.2347  0.1396 -0.0748
18025W        W34286   5.327  19.064  10.666 -0.2805  0.0712 -0.2579
18026W        W34287  18.051   9.007  13.875 -0.2980  0.0324 -0.0111
18027W        W34288  17.906  13.478   4.465  0.3385 -0.1863 -0.0103
18028W        W34289  14.147   7.261  14.398 -0.1047  0.0653 -0.2289
18029W        W34290  15.225  16.961   5.177 -0.3188 -0.4634  0.4818
18030W        W34291   9.656  17.632  14.406  0.0884  0.0881 -0.0318
18031W        W34292   6.939  17.399  14.104 -0.1575  0.2126 -0.0117
18032W        W34293  18.932   2.666   2.373 -0.0174 -0.2110  0.1081
18033W        W34294  10.209  13.590   0.471 -0.0913 -0.2912 -0.2322
18034W        W34295   0.888   3.202   2.212 -0.3498  0.0804  0.1437
18035W        W34296  14.228  13.036  13.146 -0.0136  0.1414  0.2099
18036W        W34297   5.603   5.919  12.603 -0.2260  0.1198  0.0422
18037W        W34298   9.268   7.874  12.295  0.2229  0.0794  0.2602
18038W        W34299  13.367   1.436  10.967 -0.1753  0.0281 -0.3715
18039W        W34300   7.779  16.656   4.548  0.1579 -0.0747  0.0708
18040W        W34301  15.883   3.011  13.276 -0.0032 -0.1234 -0.2728
18041W        W34302   2.704  14.489   0.567  0.1550  0.0694  0.0514
18042W        W34303   5.472  10.622  13.173  0.1601  0.2883  0.2047
18043W        W34304  14.930   4.555   3.299 -0.0858 -0.3047 -0.1368
18044W        W34305   2.472   9.944   1.831  0.1237 -0.4948 -0.0923
18045W        W34306   4.641   8.655  10.890  0.0676 -0.1507 -0.0201
18046W        W34307  14.297   5.727  13.693 -0.0445 -0.0069 -0.0267
18047W        W34308   9.899   1.773  13.781  0.0345 -0.0759 -0.2380
18048W        W34309  10.104   3.253   3.428  0.0526  0.1663  0.0814
18049W        W34310  16.797   4.727   3.698 -0.0600 -0.0261  0.2574
18050W        W34311   6.207   2.957   3.913  0.3994  0.0523 -0.0301
18051W        W34312  13.971   6.570  10.389  0.0235 -0.1604 -0.0134
18052W        W34313   0.430   5.752   1.336  0.1823 -0.4135  0.0150
18053W        W34314   5.978  18.474   4.474 -0.1606 -0.1774 -0.1602
18054W        W34315  17.162   9.722   3.930  0.1010  0.2435  0.2017
18055W        W34316   8.016  16.424  13.330 -0.0693  0.1545 -0.1173
18056W        W34317   8.710   1.826  12.503 -0.2002 -0.1509  0.0333
18057W        W34318   2.333   4.205   0.860 -0.0368 -0.1610  0.4355
18058W        W34319  17.655  10.349   0.026 -0.2104  0.1681  0.0039
18059W        W34320  11.602   4.541  14.104 -0.1920 -0.0162 -0.0336
18060W        W34321   4.906   3.698   0.640  0.0841 -0.0809 -0.0235
18061W        W34322  19.387  17.497   5.646  0.2084 -0.1018  0.3428
18062W        W34323  10.833   2.894  14.622  0.2409 -0.3301  0.1674
18063W        W34324   1.965  17.832   1.235 -0.2623 -0.2197 -0.1574
18064W        W34325   3.382   3.442  12.784  0.0626 -0.1043  0.0251
18065W        W34326  17.297  15.640   4.397  0.1417  0.2036 -0.3813
18066W        W34327  10.754   0.790  14.231  0.2171  0.0348 -0.1701
18067W        W34328   7.404  12.196  13.882 -0.0708  0.0927 -0.0036
18068W        W34329   7.768   1.170   0.985 -0.2557  0.0526 -0.0336
18069W        W34330  17.880   2.318   3.163 -0.0588  0.1560  0.1514
18070W        W34331  12.131  10.881  12.503 -0.0476 -0.0454 -0.0663
18071W        W34332   8.053  14.276  11.783  0.1269  0.3099  0.4077
18072W        W34333  15.926  18.554   3.787 -0.0424  0.0913  0.2063
18073W        W34334   3.283  12.895  11.064 -0.3251  0.2727  0.3639
18074W        W34335   7.336  16.942   4.544  0.0769 -0.0084 -0.3354
18075W        W34336  17.638   6.303   0.742 -0.0636  0.2675 -0.1160
18076W        W34337  15.359   4.713   2.131 -0.0588  0.1723 -0.4648
18077W        W34338   7.863  16.356  10.478 -0.3196 -0.2759 -0.0646
18078W        W34339   9.935   8.943  10.551 -0.0597 -0.0572  0.0960
18079W        W34340  10.383  14.395   2.401 -0.1192  0.1296  0.2766
18080W        W34341   2.958   9.720  11.837 -0.1018  0.1684 -0.2362
18081W        W34342  16.491   5.482   3.099  0.2268  0.2334  0.3259
18082W        W34343  15.815   9.505  10.522  0.1157  0.0081  0.1959
18083W        W34344  13.769  11.507  12.537  0.1466  0.3667 -0.0097
18084W        W34345  13.236  14.661  11.750  0.0884 -0.0147 -0.1616
18085W        W34346   6.116   9.874  13.141  0.2217 -0.0197  0.1849
18086W        W34347  12.530   5.532   3.228 -0.2066 -0.2986 -0.1424
18087W        W34348   9.287   5.006   3.444  0.1703  0.4088 -0.2936
18088W        W34349   6.757  13.015   0.917  0.1019 -0.2075 -0.3316
18089W        W34350   6.555  12.407  10.198 -0.0328  0.0935 -0.1061
18090W        W34351   3.044   9.115   0.269 -0.1988 -0.3438 -0.0661
18091W        W34352  16.408   7.040   4.094  0.4999  0.1278 -0.3586
18092W        W34353  12.071  16.022  13.459  0.2420  0.0894  0.0298
18093W        W34354   8.663  15.388   2.082 -0.1516  0.1950  0.2579
18094W        W34355   9.063   8.725  12.978  0.1711 -0.1109  0.1545
18095W        W34356  18.822  16.600   4.176  0.1725  0.0273  0.4138
18096W        W34357   3.037   4.327   3.893 -0.0322  0.0912 -0.4678
18097W        W34358   7.465   5.804  12.358 -0.3659  0.1865  0.0829
18098W        W34359   8.354   2.236   2.318 -0.1588  0.0779 -0.0969
18099W        W34360   8.057  14.070   2.796  0.3396  0.3413  0.1229
18100W        W34361   4.828   5.282  14.648  0.3718  0.1715  0.0003
18101W        W34362  18.997   2.440   4.107  0.0984  0.4002 -0.0841
18102W        W34363  13.933   0.574   1.438 -0.0142 -0.4516  0.0281
18103W        W34364   1.385   5.001   1.007 -0.0999 -0.1410  0.1168
18104W        W34365   2.164  13.759   0.907  0.0426  0.1156  0.1090
18105W        W34366   6.177   8.246   1.149 -0.2925  0.2352 -0.0457
18106W        W34367  18.329   4.767   4.418 -0.0464 -0.2116 -0.1204
18107W        W34368   6.797   0.290   2.653  0.1543 -0.3146  0.1277
18108W        W34369  10.520  12.931   1.802 -0.2007 -0.2375  0.2411
18109W        W34370   6.335   2.589   2.178  0.1254 -0.1047  0.0964
18110W        W34371  16.830  12.328   3.998 -0.0055  0.4029  0.2843
18111W        W34372   1.578  13.890   1.188  0.0631 -0.0581 -0.0632
18112W        W34373  18.752  14.604  11.047 -0.0211  0.2324  0.0563
18113W        W34374  13.800  10.605   0.527 -0.0508 -0.1011 -0.1423
18114W        W34375  11.560  14.120  13.069 -0.2922 -0.1728  0.1754
18115W        W34376  13.587  13.424   2.761 -0.1226  0.0375  0.3313
18116W        W34377  13.463  10.712   0.935  0.0170  0.1702 -0.2130
18117W        W34378   3.289  14.706   4.394 -0.0204 -0.4894  0.3235
18118W        W34379  19.133   1.387   3.642 -0.1252 -0.0879  0.2222
18119W        W34380  15.304  13.584   9.380  0.1827 -0.0636 -0.0423
18120W        W34381   4.549  16.172   3.118  0.1700 -0.2399 -0.1127
18121W        W34382  15.470  14.733  11.568 -0.1781 -0.2806  0.3002
18122W        W34383   3.601   5.631   3.936  0.1272  0.0616  0.0506
18123W        W34384  10.204   5.267  13.728  0.1180  0.0316 -0.0613
18124W        W34385  17.055  14.460   4.058 -0.2349  0.3222  0.0268
18125W        W34386  10.856   5.972   0.754  0.0313  0.1220 -0.1672
18126W        W34387  10.490   2.521   9.111 -0.0701 -0.4542  0.0809
18127W        W34388  10.277   4.634  11.910  0.1184  0.1630 -0.3305
18128W        W34389   1.316  19.200   5.674 -0.0155 -0.2638  0.0786
18129W        W34390  15.234  18.994   0.200 -0.2797  0.0598 -0.1021
18130W        W34391  18.012   3.133   4.948  0.0114  0.4932  0.1170
18131W        W34392   6.123  14.691  12.301  0.0410 -0.0478  0.0334
18132W        W34393  17.441  14.498  11.216 -0.0483  0.0149  0.2117
18133W        W34394  15.948   8.284   3.052  0.2609 -0.1707 -0.0434
18134W        W34395   6.305   9.841  14.587 -0.5280 -0.1434  0.4565
18135W        W34396   4.006   2.804   2.849 -0.2821 -0.1646  0.3871
18136W        W34397   6.958  12.018  14.816 -0.1190 -0.0641  0.2082
18137W        W34398   6.632   0.028   3.874 -0.1763 -0.1813  0.0182
18138W        W34399   8.066   4.569   3.893  0.2721  0.0789 -0.2321
18139W        W34400  17.813  16.289   1.981 -0.2987 -0.0183  0.2589
18140W        W34401   1.956  19.096   3.427 -0.1740 -0.1404 -0.0446
18141W        W34402  16.005   6.408  12.657  0.0023  0.3840  0.0736
18142W        W34403   9.185   2.688  12.398  0.2436  0.0092 -0.1022
18143W        W34404  14.137  17.425  14.046 -0.0089 -0.2989  0.0296
18144W        W34405  17.935   3.101   2.640  0.2715  0.3021 -0.1489
18145W        W34406  17.895  12.031   9.043 -0.1043 -0.1960  0.1665
18146W        W34407  11.149   2.586   4.133 -0.2115  0.0961  0.0119
18147W        W34408   2.201   8.988  14.178 -0.0127 -0.2936 -0.1177
18148W        W34409  11.614  10.752   2.266 -0.3068 -0.3409  0.5320
18149W        W34410  18.433  18.806  14.079  0.2825  0.0329 -0.5218
18150W        W34411   1.431  11.132   3.916 -0.2837 -0.1008 -0.2380
18151W        W34412  18.476  10.990   3.387 -0.1544  0.2989  0.0495
18152W        W34413   9.617   8.202   2.184 -0.2378  0.1274  0.2253
18153W        W34414  19.318   4.099   2.390 -0.2307 -0.0451  0.2337
18154W        W34415  15.871  10.944   2.810  0.1831 -0.0527  0.2633
18155W        W34416  16.547  11.468  13.188  0.0837  0.2505  0.1889
18156W        W34417  15.914  13.602  14.049 -0.3454 -0.0072 -0.3981
18157W        W34418   7.367   5.781  14.145 -0.5896  0.0422  0.0344
18158W        W34419   6.454  16.522  10.527  0.4051  0.0453  0.0489
18159W        W34420   9.190  19.110   3.888 -0.1010 -0.4187  0.2382
18160W        W34421   6.887  18.162   0.495  0.0042  0.1872 -0.3169
18161W        W34422   5.802  18.354  11.099  0.2395 -0.1607 -0.1378
18162W        W34423   6.879  13.154  14.711  0.1048  0.6014 -0.0210
18163W        W34424   6.085  14.097   2.417  0.1534 -0.0426 -0.0592
18164W        W34425  15.278  15.687   4.963 -0.0273 -0.0249 -0.0600
18165W        W34426  10.699  17.601   0.392  0.0308  0.1154  0.1977
18166W        W34427  17.741  14.079  10.422  0.1805 -0.4456  0.1239
18167W        W34428  10.004   5.776   3.930  0.2764 -0.0600 -0.1057
18168W        W34429   8.613  13.411   3.264 -0.0383 -0.1699 -0.0939
18169W        W34430   1.558  19.063  12.185  0.0923  0.0077 -0.2911
18170W        W34431   4.490   1.717  13.222 -0.1842 -0.1471 -0.0974
18171W        W34432   6.441   1.199  14.325  0.2996  0.1242 -0.1965
18172W        W34433   1.313   1.952  12.920 -0.0108  0.1594 -0.0722
18173W        W34434  10.945   6.229   1.806 -0.0660 -0.1320  0.2461
18174W        W34435   0.118   6.333  11.652 -0.5126  0.0738 -0.0060
18175W        W34436  16.983  12.704  13.877 -0.3969  0.0635 -0.1797
18176W        W34437  11.173   8.036   9.528  0.0612  0.1186  0.0675
18177W        W34438   4.964  18.602   2.864  0.0607 -0.2488 -0.1481
18178W        W34439   5.593  11.125   2.163 -0.0223  0.1322 -0.1711
18179W        W34440   1.861   0.858   5.699 -0.0011 -0.0722 -0.1523
18180W        W34441   2.689  17.363   0.304  0.1924  0.2763 -0.0528
18181W        W34442  16.441  12.496   3.779  0.1222 -0.1636  0.2932
18182W        W34443   5.987   9.240   0.365 -0.2916  0.0876  0.1585
18183W        W34444  11.701  17.867  11.574  0.2414 -0.2500 -0.0296
18184W        W34445  17.585  14.781   4.796  0.2128 -0.2456 -0.0729
18185W        W34446  12.264  13.438   0.948 -0.2675 -0.2590 -0.0019
18186W        W34447  18.427   6.458  11.425 -0.0632  0.2294  0.2358
18187W        W34448   4.483   1.146  11.562 -0.3809 -0.0730 -0.1762
18188W        W34449   0.367   8.421  13.014 -0.1054  0.1686  0.1613
18189W        W34450  14.262   3.952  12.202 -0.1239  0.1693  0.0424
18190W        W34451   7.313  12.932  14.481 -0.2393  0.2319 -0.4067
18191W        W34452   9.471   6.955  11.050 -0.1904  0.3282  0.2049
18192W        W34453  16.030   2.106  13.717  0.2155 -0.0026  0.5506
18193W        W34454  10.941  18.379   9.743 -0.0516  0.2151 -0.1521
18194W        W34455   4.784   2.138   0.442  0.1547  0.0385  0.2066
18195W        W34456   0.430   9.966   0.838  0.0963  0.3430  0.0241
18196W        W34457  18.861  11.887   5.291  0.3193  0.0882 -0.1968
18197W        W34458   9.276   3.440   4.703 -0.0441 -0.2723  0.1116
18198W        W34459  18.092  17.767   5.386  0.2415  0.3960  0.2168
18199W        W34460   2.849  14.218  14.339 -0.4237 -0.2632  0.1247
18200W        W34461   9.458   3.058  12.874  0.1072 -0.0891  0.1206
18201W        W34462   4.547   5.863   0.234 -0.0758  0.0072 -0.0227
18202W        W34463   3.706  16.983   0.636 -0.0135 -0.0929 -0.3880
18203W        W34464   8.166  12.617  12.089  0.2258  0.1826 -0.3260
18204W        W34465   3.904  11.772  10.192  0.0214  0.0996  0.1879
18205W        W34466   1.358  15.030   3.843  0.1914 -0.0667 -0.0664
18206W        W34467   8.016   4.578  10.257  0.2316  0.2259  0.3322
18207W        W34468   4.430  14.091  14.791  0.0642  0.1257  0.0425
18208W        W34469  19.069  14.188   2.450 -0.0692 -0.0155  0.0324
18209W        W34470  13.403   8.708   3.365 -0.0797 -0.0556 -0.5334
18210W        W34471   9.984   7.766   2.114 -0.2546  0.1097 -0.3615
18211W        W34472  19.203   2.327  11.864 -0.0692 -0.2862  0.1515
18212W        W34473   2.050   6.461  13.388 -0.4438 -0.1562  0.2197
18213W        W34474  10.140  15.458   3.150 -0.0624  0.1397  0.3009
18214W        W34475  11.435   1.189   2.016 -0.3445  0.1048  0.2879
18215W        W34476  14.615   3.628   3.167  0.1852 -0.2754 -0.0432
18216W        W34477   8.939  17.729   0.312 -0.1096 -0.2922  0.2686
18217W        W34478   4.695   4.828   3.765  0.1410 -0.1462  0.3745
18218W        W34479   9.313   3.041  13.607  0.0790  0.0781  0.1887
18219W        W34480  16.250   5.757  11.132 -0.1176 -0.0633  0.0965
18220W        W34481  11.870   0.072   1.947 -0.1059 -0.0199  0.3132
18221W        W34482  10.247  16.930  12.368 -0.1408 -0.0651 -0.1505
18222W        W34483   9.073  16.924   1.710  0.4434 -0.0532 -0.0005
18223W        W34484   2.269   1.068  12.420  0.3677 -0.1666 -0.1161
18224W        W34485   0.495   7.400  14.238  0.0053 -0.0004 -0.2761
18225W        W34486  10.926  13.362  12.176 -0.3056 -0.1991  0.1025
18226W        W34487   1.507   5.619  11.344 -0.2506  0.4231  0.0660
18227W        W34488  13.858  11.204   5.264 -0.0401  0.2382 -0.4536
18228W        W34489   6.620   1.077   2.964 -0.0565 -0.2208 -0.0484
18229W        W34490  16.418  12.179   0.952 -0.4571 -0.1692 -0.2757
18230W        W34491   3.146  14.995  13.061  0.1090  0.2521  0.1192
18231W        W34492   7.508   0.863  14.247  0.0556  0.1862  0.1647
18232W        W34493  15.049  16.805  14.249  0.0598 -0.1177  0.0892
18233W        W34494  16.033  19.051  12.217 -0.2879 -0.0551 -0.0245
18234W        W34495   4.705  11.142   1.158  0.1974  0.0735 -0.1841
18235W        W34496  13.720  19.023   9.404  0.1634  0.1039  0.0116
18236W        W34497   7.631   5.686  10.202 -0.0758 -0.0380 -0.0097
18237W        W34498   5.931  11.267  11.451 -0.0629  0.1835  0.0163
18238W        W34499  17.014  10.760   1.223 -0.0486 -0.1329 -0.2958
18239W        W34500  10.416   1.999  10.105  0.2104  0.0903 -0.0469
18240W        W34501   8.218   0.543  10.033 -0.1330 -0.3281 -0.1483
18241W        W34502   2.826   4.233  11.905 -0.0519  0.2040  0.0615
18242W        W34503   2.012   0.510   1.023 -0.0225  0.3262 -0.2220
18243W        W34504  10.728   1.683  13.634 -0.3508  0.0598 -0.0829
18244W        W34505   0.935  17.238   0.167  0.2135 -0.2719  0.1548
18245W        W34506  16.155  14.601  14.173  0.1305 -0.0925  0.1728
18246W        W34507   2.838  10.049   0.080  0.2020 -0.0325  0.0424
18247W        W34508  11.448   6.142  13.325  0.0027  0.0485 -0.2296
18248W        W34509   5.328  18.405   4.262 -0.2928  0.1214 -0.2738
18249W        W34510  14.436   6.070  13.113 -0.0043  0.1924  0.1123
18250W        W34511   2.833  12.665  11.007 -0.2321  0.2296 -0.2181
18251W        W34512  16.163  15.680   3.279 -0.2674  0.1743  0.1769
18252W        W34513   7.075   2.060   2.291  0.1577 -0.0251 -0.1127
18253W        W34514   1.033  19.136   0.833  0.0237  0.0149  0.0311
18254W        W34515  14.512   1.708  12.548  0.1426 -0.1641 -0.0233
18255W        W34516   0.509  12.669  13.531 -0.1927 -0.0957  0.0801
18256W        W34517   1.618  17.880  14.312 -0.1089  0.0560  0.0738
18257W        W34518  15.410   5.537   3.556 -0.1938 -0.3686  0.1391
18258W        W34519  10.876   3.667   2.718 -0.1878 -0.1157  0.1649
18259W        W34520  11.840  12.196  14.421  0.1374  0.2582  0.2302
18260W        W34521  11.961   9.766  11.438  0.0544 -0.2499 -0.1168
18261W        W34522   5.901  12.667  14.850 -0.2795 -0.0139 -0.0032
18262W        W34523  15.127  17.651  10.791 -0.2863  0.5250  0.1606
18263W        W34524   8.496   9.637  11.189 -0.1217 -0.1748 -0.2009
18264W        W34525  10.573   4.773   0.483  0.1161  0.2334 -0.0958
18265W        W34526  18.480   7.363  13.279  0.2299 -0.1377 -0.0853
18266W        W34527  15.886  16.335  14.077  0.2063  0.0364 -0.2083
18267W        W34528   3.629   1.404  14.123  0.0973  0.4359  0.1280
18268W        W34529   6.713  15.409   1.224  0.0524 -0.2934  0.1113
18269W        W34530  18.773   5.544   2.789 -0.0790  0.2369 -0.0430
18270W        W34531  19.278  12.977  14.045  0.2760  0.1190 -0.1579
18271W        W34532  13.204  16.214  14.504  0.4991 -0.0204  0.0665
18272W        W34533  11.385   2.153  11.936 -0.2030  0.0253 -0.2529
18273W        W34534   5.540  15.238   0.938 -0.4099 -0.1907 -0.0718
18274W        W34535  11.210   1.372  11.341 -0.1174 -0.1056  0.2058
18275W        W34536  13.534  16.049   5.088  0.0322 -0.0530  0.3228
18276W        W34537   4.846   8.785   4.075  0.2544  0.1710  0.2623
18277W        W34538  11.780   2.578  13.111  0.2759  0.0805  0.2444
18278W        W34539   5.777   2.681   4.886  0.0482 -0.0986 -0.0197
18279W        W34540   0.245  19.281   1.277 -0.3851 -0.0097  0.0187
18280W        W34541  11.888   6.734   1.590 -0.0527 -0.0797  0.1107
18281W        W34542   8.295  16.610   4.615 -0.2341 -0.0742  0.3849
18282W        W34543  13.861   5.644   2.321 -0.0093  0.0735  0.2241
18283W        W34544  13.017   7.630   3.947  0.1480 -0.1339 -0.1877
18284W        W34545  10.691   3.003  10.134  0.1025  0.0599  0.4689
18285W        W34546  12.246  18.690   2.866  0.0391 -0.1689  0.1054
18286W        W34547   7.636  10.405   1.772  0.0593 -0.1119 -0.0470
18287W        W34548  17.025  15.458   0.373  0.2670  0.3320 -0.1230
18288W        W34549   7.909  12.511   3.167 -0.0078  0.3815  0.2543
18289W        W34550  11.909  15.390  14.668  0.1473  0.1499 -0.1059
18290W        W34551   0.221  12.953   1.814 -0.1816 -0.0604 -0.0445
18291W        W34552   1.874  13.691  13.511 -0.4251  0.2602 -0.1468
18292W        W34553   2.159  18.976   2.955 -0.0236 -0.0396  0.2774
18293W        W34554  10.884  10.625  14.674  0.1493 -0.1796 -0.1872
18294W        W34555  12.821   5.240   0.532 -0.2550  0.0981  0.6139
18295W        W34556  13.581   7.475  12.013  0.1389  0.0877  0.1738
18296W        W34557  14.247   3.521  12.647  0.0884 -0.1672  0.0766
18297W        W34558  12.190  14.330  13.838  0.0266  0.0504  0.1865
18298W        W34559   1.101   6.113   4.246  0.2450 -0.1133  0.0244
18299W        W34560  15.411   7.993   5.320  0.2535 -0.1868 -0.0917
18300W        W34561  10.908  11.319   4.676  0.4653  0.0089 -0.1917
18301W        W34562  14.955  17.907   1.063 -0.2127  0.0021  0.1350
18302W        W34563   4.685   4.951   1.443  0.1699  0.3019  0.1699
18303W        W34564   4.708   8.754   4.933  0.1857  0.0349 -0.0950
18304W        W34565   9.709   5.849   3.530  0.0805 -0.1571  0.1368
18305W        W34566  11.339  17.959  11.179 -0.0043  0.0435 -0.1679
18306W        W34567   5.247   0.627   3.795 -0.3557  0.0206  0.1567
18307W        W34568  11.999   5.876  14.487  0.0803  0.0365 -0.0312
18308W        W34569   8.344  13.387   0.468 -0.2974 -0.0580 -0.0330
18309W        W34570  18.497  12.823  13.483  0.1268 -0.0022 -0.2643
18310W        W34571   8.488   8.691   5.530 -0.0373  0.2455  0.0194
18311W        W34572  14.903  17.221  14.713 -0.2689 -0.0391 -0.0492
18312W        W34573   4.967  10.161   1.163  0.0356 -0.1561  0.0388
18313W        W34574  12.149   8.535   2.981 -0.3877 -0.1279  0.2745
18314W        W34575  15.530  16.562  13.314 -0.1592  0.1073 -0.2292
18315W        W34576   4.746   8.024  14.362  0.1319 -0.0954  0.1256
18316W        W34577  12.231   4.269  13.196  0.0223 -0.0609 -0.1040
18317W        W34578   7.744  11.508  13.251 -0.5394 -0.2132  0.0701
18318W        W34579  15.485  17.724  11.424  0.1947  0.1728  0.1360
18319W        W34580   6.600   0.525   3.049  0.0329 -0.0623 -0.0499
18320W        W34581   8.958  15.626   4.061 -0.1104 -0.1007 -0.1661
18321W        W34582   3.517   0.170   4.664  0.2442  0.2169 -0.1549
18322W        W34583   2.929  18.239   0.649 -0.0133  0.2360  0.3367
18323W        W34584  14.198  15.408   1.332  0.2095  0.1031  0.0612
18324W        W34585  15.541   3.712  12.955 -0.3655  0.0490 -0.1451
18325W        W34586  12.213   7.526   1.946 -0.5745  0.0329  0.1513
18326W        W34587  16.224  14.056   4.424 -0.0249  0.0546  0.1172
18327W        W34588   3.538  16.111  13.398  0.1204 -0.2292 -0.0761
18328W        W34589  10.413   1.608   1.738 -0.1608 -0.0340 -0.1613
18329W        W34590  12.445   3.621  13.045  0.2094  0.0713 -0.0851
18330W        W34591   0.894  14.835  13.951 -0.1982  0.0769 -0.2236
18331W        W34592   1.124   2.707   5.142 -0.2067 -0.2865  0.0631
18332W        W34593  10.608  10.456  11.348 -0.1426 -0.2288  0.2081
18333W        W34594  17.358   5.009  13.310 -0.4396  0.1383 -0.0127
18334W        W34595  11.897   3.943   0.507 -0.1473  0.5424 -0.1051
18335W        W34596   1.389   0.443  14.656  0.0788  0.0014 -0.0962
18336W        W34597   2.479  18.996   4.933 -0.0659  0.1484 -0.0829
18337W        W34598  13.776  12.763  14.210  0.0813  0.0462  0.1897
18338W        W34599   6.115  18.028  13.579  0.0028 -0.4132  0.0733
18339W        W34600  16.330  16.724   5.292  0.1164 -0.0497  0.0925
18340W        W34601   8.044   8.528  11.928 -0.3527  0.0141 -0.3972
18341W        W34602  12.679   1.324   0.415  0.1850  0.1466  0.0655
18342W        W34603  12.832   5.365  11.010 -0.4913 -0.3250 -0.0667
18343W        W34604   7.926   7.498   4.507  0.1310  0.3095  0.2185
18344W        W34605   6.318  12.858   3.763 -0.0888 -0.3167 -0.3098
18345W        W34606  17.914  18.399   2.273 -0.2683  0.0603 -0.2105
18346W        W34607  15.294   3.996   3.360  0.0153  0.1998 -0.1097
18347W        W34608   3.823  17.847  14.399 -0.0759  0.4717 -0.0904
18348W        W34609   3.293  12.116  14.366  0.2453 -0.1707 -0.1272
18349W        W34610   6.200   4.008   3.842  0.0500  0.1628  0.3111
18350W        W34611   8.272  17.300  10.924 -0.0395  0.1800 -0.2121
18351W        W34612  13.663   8.662  12.791 -0.1570  0.0252 -0.0444
18352W        W34613  11.468   0.427  11.314  0.0433  0.0312 -0.5108
18353W        W34614   4.113  18.037  11.873 -0.0201  0.0139 -0.0229
18354W        W34615   1.455  14.009  12.831  0.0896 -0.0007 -0.0185
18355W        W34616  10.308   6.363   1.518  0.0629  0.1595  0.1380
18356W        W34617  17.258  11.934   1.463 -0.0277 -0.3053 -0.3333
18357W        W34618   8.174  17.299   1.636 -0.0836 -0.0049 -0.1348
18358W        W34619   7.445  17.456   2.282  0.0369 -0.1611 -0.1224
18359W        W34620  13.201   3.174   3.159 -0.1169  0.1597  0.1931
18360W        W34621  13.922   5.941   3.293 -0.1200  0.1095 -0.0325
18361W        W34622   1.136   6.730   0.954 -0.0744 -0.2930  0.4892
18362W        W34623  15.158  14.607   9.711 -0.0421 -0.0944  0.0639
18363W        W34624   2.538   6.776  13.403 -0.2727  0.1398  0.0234
18364W        W34625   9.870   2.270  13.726  0.0758  0.2347  0.0323
18365W        W34626   6.519  12.997  10.712  0.0273  0.1506  0.0721
18366W        W34627   7.868  13.754  14.788 -0.1002 -0.1113  0.3425
18367W        W34628  12.923   6.585  10.252  0.2716  0.4381 -0.3616
18368W        W34629   8.617   3.812   9.481 -0.0546  0.1131  0.0710
18369W        W34630   5.768  11.862  13.065 -0.1739 -0.0181 -0.1801
18370W        W34631   1.128  10.547   2.576  0.0353  0.0724 -0.3081
18371W        W34632   9.644   1.179   2.970 -0.1469  0.0283 -0.2745
18372W        W34633   7.917  17.530  14.368 -0.0004  0.0869  0.1993
18373W        W34634   3.165  15.615  11.694  0.0960  0.1195  0.1035
18374W        W34635   8.998  15.905  12.470 -0.0686 -0.2756 -0.2228
18375W        W34636   9.081  18.035   2.043 -0.2529  0.1889 -0.3886
18376W        W34637  11.230   2.596  14.582 -0.1220  0.0962  0.1601
18377W        W34638  11.536   2.807  12.681  0.1884 -0.0034 -0.0420
18378W        W34639  15.166   7.083  12.166 -0.1085  0.0603  0.0633
18379W        W34640  10.564   5.422   2.533  0.1914 -0.0976 -0.0951
18380W        W34641   7.789   3.890  14.411  0.0217  0.1376  0.1247
18381W        W34642   9.886   6.272  12.304  0.3201  0.0048  0.3561
18382W        W34643   2.181   0.305  14.208  0.3861 -0.0259 -0.0289
18383W        W34644   7.551  16.160  14.573  0.3005 -0.0343 -0.1032
18384W        W34645  10.556  10.838   1.065  0.2502 -0.2902  0.0111
18385W        W34646  14.828  17.998  10.249 -0.0184  0.1917  0.0780
18386W        W34647   4.046  13.812   2.373 -0.0881 -0.1369  0.1368
18387W        W34648  16.862  13.503   1.459 -0.0676  0.0077 -0.1010
18388W        W34649  13.771   1.816  11.095  0.0269  0.1615  0.2038
18389W        W34650  11.392  15.925  14.125  0.2845 -0.1574  0.1225
18390W        W34651   8.847   4.436   1.227 -0.2149  0.0930 -0.0023
18391W        W34652   0.765  11.313   9.967 -0.0302  0.0464 -0.0485
18392W        W34653  12.367   4.737   3.361 -0.1588 -0.2757  0.0828
18393W        W34654   6.650   2.085   1.022 -0.0351  0.0471 -0.0316
18394W        W34655   7.097   1.892   4.944  0.1891 -0.3812 -0.2670
18395W        W34656  11.130  19.120   3.078 -0.2102  0.1780  0.1883
18396W        W34657  16.091   5.792   3.191  0.3339 -0.1128 -0.0331
18397W        W34658   6.426  18.266   4.650 -0.0501  0.2543  0.0021
18398W        W34659   4.418   4.642   2.389 -0.0145 -0.3806 -0.1813
18399W        W34660   6.828   2.274  13.989 -0.1725  0.1557 -0.1336
18400W        W34661   9.668   6.467  11.170 -0.1395  0.1664  0.0790
18401W        W34662  17.669  13.329  10.240 -0.0490  0.2796  0.0331
18402W        W34663  15.049   7.292   4.647 -0.1867 -0.1544 -0.1400
18403W        W34664   5.881   7.223   3.792 -0.2828 -0.3476  0.1669
18404W        W34665   2.199   1.777   0.321 -0.2723  0.0450 -0.0404
18405W        W34666  12.482   2.925   4.380 -0.0428 -0.2184 -0.4118
18406W        W34667  13.901   9.810  13.474 -0.2819  0.2007  0.0042
18407W        W34668  12.670  16.689   1.174  0.0405  0.1245 -0.2748
18408W        W34669   0.209  17.106   2.799  0.1123  0.0567  0.2649
18409W        W34670   4.875  16.786  14.182  0.0677 -0.1225 -0.3014
18410W        W34671  11.388   4.752  11.230 -0.0783  0.2347  0.2622
18411W        W34672   3.401  18.811   4.555 -0.0449  0.2924  0.0066
18412W        W34673   6.520   2.617   1.725 -0.3463  0.0667 -0.0184
18413W        W34674   9.851   0.985   2.513  0.0195  0.0422 -0.1055
18414W        W34675   7.437  11.590  10.105 -0.1359  0.0788  0.0165
18415W        W34676   2.610   8.344   5.533 -0.2415  0.1539  0.0221
18416W        W34677   3.256   6.018  11.403 -0.1005 -0.0105 -0.3532
18417W        W34678  18.725   0.717   5.489 -0.1313  0.1973 -0.2257
18418W        W34679  13.358   5.710   2.047  0.1771  0.0885 -0.4515
18419W        W34680   5.205   7.363   3.474 -0.1482  0.0812 -0.0811
18420W        W34681   1.533  12.434   2.037  0.0781  0.0904  0.2176
18421W        W34682  11.650   8.845   5.121  0.0710 -0.2494 -0.2749
18422W        W34683   5.439  13.266  11.707 -0.0983 -0.3854 -0.1556
18423W        W34684  11.133   1.363  13.769  0.1284  0.0761  0.2614
18424W        W34685   6.659   3.079  12.009  0.0154  0.3524  0.0956
18425W        W34686  10.485   1.743  11.614  0.2536 -0.1771 -0.1276
18426W        W34687   9.955   1.439   0.163  0.2246 -0.0834  0.0993
18427W        W34688  10.752  16.106  14.268 -0.1269 -0.2376  0.1635
18428W        W34689  10.813   3.335   1.299 -0.3211  0.0256  0.3188
18429W        W34690   1.872  14.939   2.168 -0.2157 -0.1914 -0.0045
18430W        W34691  19.353   0.119  12.241  0.0262  0.2634  0.3002
18431W        W34692  19.083  13.762  11.315  0.0120  0.1247  0.2557
18432W        W34693  13.569   6.371   0.771 -0.4793 -0.2775 -0.1842
18433W        W34694  13.376  10.036   4.546  0.0875  0.0728 -0.0318
18434W        W34695   8.000   0.838  10.393 -0.3481 -0.2275 -0.1998
18435W        W34696   7.199  11.724  11.740 -0.2694  0.2763  0.1215
18436W        W34697  14.036   5.387  11.841 -0.2045  0.1249  0.1936
18437W        W34698  15.502  18.134   0.146 -0.2696  0.1390  0.1038
18438W        W34699   9.262   2.724   4.934 -0.3082 -0.1595  0.6430
18439W        W34700  18.954   3.668  13.606  0.0831  0.0538  0.4950
18440W        W34701  18.969   1.841  11.050 -0.3138 -0.0000  0.0429
18441W        W34702   5.458  11.929   0.509  0.2460 -0.2319  0.2783
18442W        W34703  10.632   1.152  12.360  0.0874 -0.0011 -0.0149
18443W        W34704   0.313   5.760  13.454 -0.0739 -0.1959 -0.0153
18444W        W34705   5.853   1.473   3.824 -0.0779 -0.1660 -0.1186
18445W        W34706   0.214   7.979  12.367 -0.1425  0.3596 -0.0725
18446W        W34707  13.541  15.862   2.804  0.2144  0.1114 -0.1094
18447W        W34708  17.221  15.317   2.454 -0.3730  0.0556  0.0229
18448W        W34709   3.995  13.144  12.421 -0.1491 -0.0045  0.0518
18449W        W34710  16.312   5.594  11.675 -0.1853 -0.4669 -0.1926
18450W        W34711  11.385  13.246  14.659 -0.0151  0.1534 -0.3145
18451W        W34712  16.913   9.240   3.136  0.2519  0.0188 -0.1818
18452W        W34713  13.601   0.390  13.306  0.0176 -0.0414 -0.2368
18453W        W34714   2.292  18.841   1.884  0.1453 -0.0322  0.1068
18454W        W34715  10.992   5.612  11.179 -0.1914  0.2271  0.0856
18455W        W34716  15.838  14.099  10.792  0.1282 -0.0517  0.3085
18456W        W34717  15.090  18.052   2.879  0.2307 -0.2177  0.3094
18457W        W34718   8.276  15.642  14.144  0.0889 -0.3679 -0.2442
18458W        W34719   7.368   4.090   4.416  0.0700  0.0083 -0.0456
18459W        W34720   1.563   2.741   3.512  0.1124 -0.4072  0.1894
18460W        W34721  19.082   7.537   4.125  0.1550 -0.0120 -0.0459
18461W        W34722  18.780  14.603  12.922 -0.2726  0.2028  0.2493
18462W        W34723   2.092  14.200  10.055  0.3247  0.1432  0.0580
18463W        W34724  10.443   3.737   1.881 -0.0723  0.0977  0.0592
18464W        W34725   2.695  12.777  14.058 -0.0217  0.3690 -0.1119
18465W        W34726  18.949   3.409  11.916 -0.1864  0.0130  0.1652
18466W        W34727   6.298  18.489  11.395  0.0045 -0.1412 -0.0386
18467W        W34728  14.364   0.944  13.713 -0.1705 -0.1201 -0.3388
18468W        W34729   5.206  12.488   2.690 -0.1514 -0.2766 -0.3018
18469W        W34730  19.221  14.203   0.914  0.1184 -0.2930 -0.2735
18470W        W34731   6.529  15.493  13.471  0.2989 -0.2362 -0.3591
18471W        W34732   5.950   9.608  10.372  0.3974 -0.2906 -0.0872
18472W        W34733   7.593   1.794   1.718  0.2056 -0.0488 -0.0231
18473W        W34734  14.532   3.094   4.958  0.0129 -0.0603  0.0551
18474W        W34735   1.202   4.244   3.387  0.0291 -0.2578  0.0341
18475W        W34736   8.194  14.466  14.877  0.1973  0.3069  0.1330
18476W        W34737  17.232   5.143  11.380  0.1555 -0.1651  0.1768
18477W        W34738   3.970   1.240  11.560 -0.0518 -0.0378 -0.1385
18478W        W34739  11.004   1.706   3.892  0.0086 -0.4300  0.1220
18479W        W34740  15.047   8.651   0.724 -0.3456  0.1135 -0.1153
18480W        W34741  15.364   5.267   3.983  0.2536 -0.1087  0.0107
18481W        W34742   5.530   5.753   3.175 -0.0881  0.0545  0.1027
18482W        W34743   6.734  14.245   3.469 -0.2665 -0.0834 -0.0897
18483W        W34744  14.678  18.757   3.964 -0.1083 -0.2987 -0.1085
18484W        W34745   3.160   5.684   2.712  0.2664  0.1975 -0.1389
18485W        W34746   6.938   1.396   4.837 -0.1134  0.1478 -0.1995
18486W        W34747  17.156  10.028  11.195 -0.2675 -0.1165 -0.1639
18487W        W34748  16.135  10.676  10.413  0.1270  0.1045  0.0502
18488W        W34749  11.160  14.674  12.321 -0.2087 -0.0039 -0.0384
18489W        W34750   8.701  17.113  10.751 -0.0183 -0.0269 -0.1280
18490W        W34751  17.889   1.861   1.095  0.0901 -0.2445  0.0759
18491W        W34752   4.969  19.247  11.958 -0.1752  0.1593 -0.1028
18492W        W34753   8.764  16.631   2.049  0.0857  0.3686  0.0966
18493W        W34754  16.746   4.977   4.253  0.2192  0.0648 -0.0779
18494W        W34755  17.076  18.322   3.320 -0.0216 -0.0284  0.1613
18495W        W34756  12.968  10.740   2.125 -0.0505  0.1642 -0.3168
18496W        W34757  16.251  12.180  13.252 -0.1922 -0.0216  0.0163
18497W        W34758   9.741   2.980  10.618 -0.1605  0.0740  0.2387
18498W        W34759   6.209  12.144   4.767 -0.4555  0.0246 -0.2179
18499W        W34760  10.152   0.151   4.121  0.1372 -0.1532  0.0162
18500W        W34761  15.361   5.691  13.604  0.1285 -0.2265  0.1618
18501W        W34762   3.218   5.318   4.086 -0.3148  0.1181  0.0313
18502W        W34763   0.803   3.963  13.057  0.1945 -0.0197  0.0297
18503W        W34764  17.333   2.198   2.854 -0.1002  0.1672  0.1377
18504W        W34765  15.220  18.394  13.195  0.0268 -0.0612  0.1086
18505W        W34766   1.657   4.553   5.488 -0.1867 -0.2613 -0.1537
18506W        W34767  10.640  19.001  12.968  0.2248 -0.3094 -0.2292
18507W        W34768   5.117   8.446  10.445 -0.0233 -0.2268 -0.0253
18508W        W34769  18.801  11.301   3.034 -0.2435  0.1428  0.2197
18509W        W34770  16.381   9.706   2.130  0.1120 -0.0875 -0.2783
18510W        W34771   4.123  11.802   5.403  0.0152 -0.1878 -0.3005
18511W        W34772  11.708  11.341   4.023  0.1343 -0.1171  0.2991
18512W        W34773  13.602   2.470   5.265  0.3278  0.2980 -0.0837
18513W        W34774   8.006  16.422   0.955 -0.2462  0.3190  0.1884
18514W        W34775  15.775   4.167  10.648 -0.2273 -0.1708  0.1396
18515W        W34776  15.475  17.319   0.929 -0.0147 -0.0016  0.1233
18516W        W34777   1.649   9.217  12.206  0.0547 -0.3047 -0.0768
18517W        W34778   5.298   7.352   2.918 -0.0298 -0.1442  0.0126
18518W        W34779  13.715   5.770  14.494 -0.1674  0.1765 -0.3012
18519W        W34780  10.157   8.723   0.125  0.0452  0.4707 -0.0170
18520W        W34781   0.058  19.092  10.810 -0.2646 -0.1078 -0.1065
18521W        W34782   2.617   0.782  12.681  0.0343 -0.1911 -0.0814
18522W        W34783   3.924   1.605   4.039  0.2409 -0.0935  0.0657
18523W        W34784   2.789  17.680   5.222  0.1768 -0.1712  0.1887
18524W        W34785   4.799   5.870  12.220 -0.2882  0.5404  0.0289
18525W        W34786   8.196   4.266  14.468 -0.2674 -0.0940 -0.1252
18526W        W34787  11.158   7.212   0.340 -0.1606  0.1497  0.2859
18527W        W34788  18.036  11.869   1.176 -0.3302 -0.1284 -0.0192
18528W        W34789  15.010   7.940  12.246 -0.4011  0.0470  0.2662
18529W        W34790   9.612  15.003   1.404  0.1860 -0.2781 -0.0925
18530W        W34791  11.873  15.836  10.248  0.2073 -0.0304 -0.3788
18531W        W34792  11.654  19.225   0.053  0.1382 -0.2054 -0.0057
18532W        W34793  15.009  14.624  11.591 -0.1553  0.0158  0.1828
18533W        W34794   5.587  12.839   0.758 -0.1453  0.2025  0.0149
18534W        W34795  14.447  18.028  10.765  0.3168 -0.3143  0.0591
18535W        W34796  13.187  18.772   1.312 -0.1621 -0.0659  0.0068
18536W        W34797   4.012  18.864  12.587  0.1315  0.0372  0.1241
18537W        W34798   9.787  13.764   3.978 -0.0398  0.1875  0.1538
18538W        W34799   8.603   0.810  10.942  0.0410  0.2019  0.0754
18539W        W34800   1.834  12.433  11.008 -0.1222  0.2604 -0.0072
18540W        W34801  17.826   3.141  14.438 -0.3030 -0.1414  0.0739
18541W        W34802  13.074   7.775   4.522 -0.2369 -0.1442  0.1631
18542W        W34803  17.037   8.494   0.833  0.1646  0.2156  0.1305
18543W        W34804  14.867  19.380  11.715 -0.0242  0.1160  0.1652
18544W        W34805   3.551   4.150   2.306 -0.0327  0.1115 -0.6825
18545W        W34806  16.367   9.094  14.161 -0.1085  0.0663 -0.1297
18546W        W34807  11.359  18.467  13.948  0.2174  0.1280  0.1556
18547W        W34808   7.191   5.116   4.284  0.2322 -0.1283  0.1470
18548W        W34809  13.052   3.531  10.903  0.2194  0.1710  0.3369
18549W        W34810   2.501  17.340   0.899  0.2646  0.0116  0.0240
18550W        W34811  19.411   8.409   3.502  0.1409  0.2139 -0.5287
18551W        W34812   7.194   5.622   4.121  0.3172  0.1457 -0.0854
18552W        W34813   1.828  11.465  12.628  0.0340  0.1458 -0.0304
18553W        W34814  13.771   7.095   1.257 -0.4060  0.2249  0.0644
18554W        W34815   6.804  13.820  10.505 -0.1484  0.0308 -0.0839
18555W        W34816  19.236  14.497  13.282  0.0369  0.1570  0.0604
18556W        W34817   0.639   2.731   5.819 -0.1310 -0.1539 -0.0812
18557W        W34818   1.503   0.071   5.377 -0.0255  0.0338  0.1358
18558W        W34819   8.171  12.784   2.009  0.0260 -0.0547 -0.1053
18559W        W34820  10.371   8.102  12.388 -0.1454 -0.2245 -0.1771
18560W        W34821  13.748  18.074   3.950 -0.0415  0.1655 -0.2226
18561W        W34822  15.810   9.292   4.188 -0.1278 -0.0954  0.3117
18562W        W34823  11.254   4.293   4.298 -0.1883  0.1588  0.2894
18563W        W34824   2.293  18.949   5.537  0.2255 -0.0860  0.0449
18564W        W34825  17.375   7.947   5.276  0.1000 -0.1364  0.0651
18565W        W34826  17.457  14.657  11.697 -0.1818 -0.2149  0.3265
18566W        W34827   5.591   4.710   1.430 -0.1908 -0.0401  0.2635
18567W        W34828  10.809  11.975  10.908 -0.0430 -0.1546 -0.0439
18568W        W34829  15.690  10.715  11.810 -0.0159  0.3513 -0.2619
18569W        W34830   1.392   5.472   2.916 -0.4545  0.0036  0.2340
18570W        W34831  17.630  14.943   2.348 -0.0168  0.1748 -0.4033
18571W        W34832   6.189  17.142  14.562  0.0721 -0.0961 -0.2158
18572W        W34833   4.463  13.713   0.369 -0.1480  0.0369 -0.0394
18573W        W34834   0.598   4.605   2.449 -0.2904  0.0658  0.2337
18574W        W34835   3.564  10.714   1.177 -0.1159 -0.0709  0.0908
18575W        W34836   6.498  13.878   0.313 -0.1138  0.1241 -0.2041
18576W        W34837  16.318   5.993   2.031 -0.1872 -0.3766 -0.1507
18577W        W34838  16.472  14.725   0.310  0.0122  0.1072 -0.1650
18578W        W34839  18.496  15.893  10.570 -0.3248  0.0074  0.0470
18579W        W34840  13.967   4.696  12.622  0.2668  0.1058  0.0114
18580W        W34841   4.271   5.757   4.623 -0.2696 -0.0973 -0.1418
18581W        W34842   1.230   2.320   3.449 -0.0834  0.1457 -0.0974
18582W        W34843   8.091  13.728  10.156 -0.0699  0.0744 -0.0483
18583W        W34844   8.964   4.812   4.379  0.2260 -0.2266  0.3482
18584W        W34845  17.827  12.361   2.508  0.1084 -0.1696 -0.0002
18585W        W34846  11.375   4.547   0.189  0.0306 -0.0878 -0.1414
18586W        W34847  16.754   9.032   9.388  0.1856  0.0864 -0.1954
18587W        W34848   8.144  10.938   0.704 -0.1726  0.2993  0.1731
18588W        W34849  18.300   7.414  11.264 -0.4187  0.0426 -0.0903
18589W        W34850   3.038   2.943   2.656 -0.4205  0.2431  0.0059
18590W        W34851  17.306   5.981  12.936 -0.3842  0.0327 -0.1881
18591W        W34852  17.006   6.964  14.704 -0.4405  0.1239 -0.1151
18592W        W34853  12.600  10.763   0.085 -0.2661  0.3369 -0.0058
18593W        W34854  16.637   8.246   4.614  0.0008 -0.0813  0.2013
18594W        W34855   8.991  14.937   2.149  0.0207  0.0760 -0.1610
18595W        W34856   5.098  13.951   1.570 -0.0552  0.2210 -0.0512
18596W        W34857   1.090  12.475   2.222  0.0668  0.1341 -0.0965
18597W        W34858  10.133   5.305   3.885  0.1532 -0.1206 -0.1206
18598W        W34859   6.325  10.402   0.405 -0.0960  0.0193 -0.0751
18599W        W34860   4.188  11.337  13.101  0.0400 -0.0079  0.1488
18600W        W34861  10.795  10.991  11.134 -0.2765 -0.0527  0.0602
18601W        W34862   6.779  11.742   3.682  0.2495  0.0664 -0.4291
18602W        W34863  15.085  16.201   0.006  0.1117  0.0484  0.1766
18603W        W34864   9.975  17.369  12.385 -0.0766 -0.3026  0.0699
18604W        W34865   0.799   9.272  11.465 -0.2484  0.0888 -0.0883
18605W        W34866   1.401  17.135   0.001 -0.1023 -0.1978  0.0148
18606W        W34867   0.175  14.148  14.082  0.0279  0.4029  0.1117
18607W        W34868   7.105  14.531  12.129  0.0593  0.1289  0.0172
18608W        W34869  12.745   3.333  14.202 -0.2245  0.2643  0.1295
18609W        W34870   6.368   5.728   1.888 -0.0773 -0.0983  0.1868
18610W        W34871  17.134  10.412   5.361 -0.0447 -0.0701  0.4002
18611W        W34872  12.144   4.689  10.552  0.1211  0.2763  0.0002
18612W        W34873   0.058   3.230   4.627 -0.0302  0.1003  0.1590
18613W        W34874   1.337   5.261   0.560  0.1803  0.3071 -0.1439
18614W        W34875  12.786  14.745  14.217  0.0410  0.0883  0.1191
18615W        W34876  16.965   8.913   0.557 -0.1652  0.1281  0.0830
18616W        W34877  16.693  18.413   1.852 -0.0792  0.3854 -0.0518
18617W        W34878  16.261  12.703  11.243  0.0333 -0.0371  0.2759
18618W        W34879  13.091  15.985   1.962 -0.2540  0.2751  0.1680
18619W        W34880   8.940  10.262  14.790  0.0223  0.1572 -0.0943
18620W        W34881   1.088  16.281  14.819 -0.0309 -0.1595 -0.0500
18621W        W34882  14.731   4.875   5.043  0.1063  0.1700 -0.2379
18622W        W34883   4.415   3.448  10.818 -0.1671 -0.1170 -0.0257
18623W        W34884   5.005  10.980   0.214  0.0162  0.2611  0.4126
18624W        W34885  13.806  12.067  10.696 -0.0231  0.1093  0.0581
18625W        W34886   8.518   2.233   1.667  0.1590 -0.0245  0.1424
18626W        W34887  16.345  16.422  14.035 -0.0241  0.3337 -0.1595
18627W        W34888   2.806  16.557   4.034 -0.0879 -0.0081  0.3898
18628W        W34889   6.844  16.901  13.779 -0.5350  0.0522  0.0002
18629W        W34890  13.666  11.289   1.164  0.1462 -0.4071 -0.1458
18630W        W34891   7.771  15.464  12.023 -0.4294  0.2038  0.0433
18631W        W34892  16.262  15.201   2.532  0.2536  0.1220  0.0510
18632W        W34893   4.286  15.525   2.753  0.2680 -0.0421  0.1513
18633W        W34894  17.192   4.596  13.940 -0.3082  0.2104 -0.2126
18634W        W34895   3.733  15.243  12.970 -0.1245  0.0465 -0.0342
18635W        W34896  11.961   6.942   4.937 -0.1687  0.1486 -0.4113
18636W        W34897  13.330  11.093  14.470 -0.0213 -0.0079  0.3263
18637W        W34898   0.930   6.436  14.403  0.1218 -0.1293 -0.0809
18638W        W34899   4.746   6.884   9.778  0.3037  0.0894  0.1084
18639W        W34900  11.570   0.058   0.915 -0.4615 -0.0384  0.1115
18640W        W34901  15.285   3.056   0.769 -0.0785  0.3731 -0.0256
18641W        W34902  19.108  19.381   0.146  0.3917 -0.0043  0.6206
18642W        W34903  12.806  14.749  13.707 -0.0070 -0.0356 -0.0364
18643W        W34904  11.765   1.311   1.681 -0.0553  0.0708  0.1503
18644W        W34905   6.871  15.776   9.491 -0.0152 -0.3419 -0.3901
18645W        W34906  18.197  18.153   4.373 -0.5076 -0.2465 -0.0528
18646W        W34907   2.127  18.565   4.734 -0.1367 -0.0867 -0.3828
18647W        W34908  18.912  15.593  14.002 -0.0287  0.1406 -0.2925
18648W        W34909  14.216   0.400  12.660 -0.3596  0.1204  0.0865
18649W        W34910   1.923  15.815  12.639 -0.1727  0.0927 -0.0563
18650W        W34911  16.801  18.852   3.202 -0.2846  0.0538  0.0502
18651W        W34912  18.618  16.846   2.009  0.1661  0.0814 -0.2382
18652W        W34913  17.227   1.292   1.391 -0.3610  0.1329 -0.0967
18653W        W34914   8.666  14.593  14.175  0.2147 -0.2057 -0.1895
18654W        W34915  14.138   2.859  11.325 -0.3008 -0.4805  0.3527
18655W        W34916   9.963   4.957  11.116 -0.0185  0.1040  0.0730
18656W        W34917   2.789   5.957  10.347  0.0641  0.1829 -0.3586
18657W        W34918  11.567   2.544  11.592  0.4905  0.0268  0.0866
18658W        W34919  17.751  13.917  12.896 -0.1360 -0.2485  0.1239
18659W        W34920  14.768  18.883   2.602  0.2196  0.0111  0.2154
18660W        W34921   3.721   6.866  12.679 -0.2034 -0.1447  0.0561
18661W        W34922   7.359  12.689  13.936 -0.0559  0.3854 -0.1780
18662W        W34923  10.850   9.795   2.866  0.0196  0.1378  0.1359
18663W        W34924  15.559   0.323   5.406 -0.2166  0.1019  0.1927
18664W        W34925   1.716  13.862   0.366 -0.0959 -0.1134 -0.2160
18665W        W34926   3.038  15.498  11.249 -0.2513 -0.6470  0.0310
18666W        W34927   3.422  10.256  11.161 -0.0958 -0.2558  0.4646
18667W        W34928  10.863  16.994  13.512 -0.2619  0.1967  0.1867
18668W        W34929  16.829  15.046  10.421  0.1788  0.4503  0.0223
18669W        W34930  13.401  15.478   3.735 -0.2054  0.2235  0.1100
18670W        W34931   2.120   0.054   1.296 -0.1924 -0.0162  0.2828
18671W        W34932   7.090  19.197  10.470 -0.1603 -0.1243  0.1715
18672W        W34933  16.397   9.801   0.217  0.1524  0.1536 -0.0493
18673W        W34934  15.142  15.623   3.093 -0.0467 -0.0725 -0.1075
18674W        W34935   9.630   1.865  10.115  0.2093  0.1429  0.0001
18675W        W34936  10.235  16.787   0.494  0.2300  0.3850 -0.3057
18676W        W34937   0.008   3.929   1.428 -0.0398  0.1034 -0.2622
18677W        W34938   5.739   3.566  14.129  0.3497 -0.2826 -0.1571
18678W        W34939   2.785  15.029   0.400 -0.0349  0.4307  0.1298
18679W        W34940   9.476   9.927  13.756  0.0250  0.0882 -0.0097
18680W        W34941  11.966  15.807   2.189  0.0267  0.0109 -0.0267
18681W        W34942  17.863   7.534   2.380 -0.0958  0.1352  0.2033
18682W        W34943   4.136  10.106  11.880 -0.0861  0.1675 -0.1367
18683W        W34944   0.202  16.689   1.542 -0.2716  0.2144  0.1972
18684W        W34945  11.127   9.363   3.946  0.0069 -0.1531  0.0902
18685W        W34946  14.997  14.942  12.033  0.4510 -0.2369 -0.3233
18686W        W34947  13.748   0.156  12.306  0.0129  0.0782  0.5454
18687W        W34948   2.587  13.366  12.620  0.1634 -0.0554  0.1372
18688W        W34949  14.461   7.174  11.506 -0.1736 -0.0903  0.2113
18689W        W34950   7.088  11.614   1.620  0.2082 -0.0947 -0.2035
18690W        W34951  10.717  18.732  10.040 -0.0401 -0.1040  0.0154
18691W        W34952   0.061  14.446   4.630  0.2003  0.0816 -0.1080
18692W        W34953  14.058   6.577   4.066 -0.1181 -0.1168 -0.0675
18693W        W34954   7.683  17.857   2.487 -0.0881 -0.2740  0.0385
18694W        W34955   3.963  11.328   4.083 -0.0037  0.3661  0.0586
18695W        W34956  11.190  17.882   9.577 -0.0500  0.3387  0.2177
18696W        W34957  14.604   2.929   2.877 -0.0088 -0.0958 -0.0844
18697W        W34958   9.642   8.137   2.683 -0.0539  0.1714  0.0536
18698W        W34959   2.215   9.183   3.468  0.2424  0.1278 -0.0373
18699W        W34960   8.193   1.930  10.730 -0.0574  0.0944 -0.0697
18700W        W34961  16.491   7.677  11.529  0.0317  0.1362  0.2004
18701W        W34962   7.088   3.476   9.695  0.3428 -0.2351 -0.1911
18702W        W34963  19.109   5.472   2.355 -0.1199 -0.2395 -0.0660
18703W        W34964  12.932  15.019   4.275 -0.1178  0.1374  0.2314
18704W        W34965   7.256  11.513   3.589 -0.1334 -0.0660 -0.0605
18705W        W34966  14.018   5.405  14.723  0.0121  0.0581 -0.4614
18706W        W34967   9.379  13.735   1.923  0.2484  0.2674 -0.1617
18707W        W34968   3.521   3.582   4.559 -0.1662  0.5809  0.0218
18708W        W34969   5.826  14.488  14.589 -0.3349  0.3754 -0.2709
18709W        W34970  14.049   7.085   0.798  0.3943 -0.0671  0.1159
18710W        W34971  13.612   3.915   1.615 -0.1196  0.2415  0.2122
18711W        W34972  15.986  12.843   5.275 -0.1081 -0.2488 -0.2768
18712W        W34973   5.333   5.481  12.607  0.1757 -0.1204 -0.0619
18713W        W34974   4.997   7.522   0.683  0.0439  0.1098 -0.1603
18714W        W34975  11.073  16.893   3.414 -0.3843 -0.3649 -0.1736
18715W        W34976   9.047   1.037   2.058 -0.0368  0.1383  0.1950
18716W        W34977   7.098  14.421   2.275  0.1740  0.0755 -0.0184
18717W        W34978  18.843  15.588   4.935  0.1957  0.1643 -0.2454
18718W        W34979  14.881  13.806   1.811 -0.0619  0.2017 -0.0236
18719W        W34980   8.749  18.273   2.797  0.2326 -0.3424  0.0787
18720W        W34981   1.970   6.471  12.479  0.0779  0.2188 -0.0642
18721W        W34982   4.756  12.637   2.828  0.0687  0.0563 -0.1610
18722W        W34983   2.234   7.489   1.521  0.3388  0.1995 -0.2386
18723W        W34984  18.112   6.386  14.600 -0.0172 -0.5396  0.1315
18724W        W34985  14.669  12.550   0.786  0.3372 -0.1914 -0.0356
18725W        W34986   0.599  10.676  11.393 -0.3425 -0.2363 -0.1451
18726W        W34987  17.077  10.588   3.938 -0.0989 -0.5141 -0.0492
18727W        W34988  18.037   2.229  10.947 -0.1214 -0.0003 -0.3699
18728W        W34989  10.549  16.311   2.919 -0.3535  0.2115  0.3290
18729W        W34990   2.573  15.585   0.663 -0.0296  0.1021 -0.1572
18730W        W34991  18.865   0.389   9.646 -0.2712  0.2941  0.2311
18731W        W34992   5.862   2.953  14.775  0.2566 -0.1085 -0.0660
18732W        W34993   3.253  16.481   2.812 -0.0946  0.2666 -0.3008
18733W        W34994  16.258   0.209  11.458  0.4559 -0.1102  0.1941
18734W        W34995  11.331   2.752   2.921 -0.1801 -0.1233 -0.1181
18735W        W34996  10.492   5.932   1.728 -0.2291 -0.1793 -0.0583
18736W        W34997  19.118  11.952  11.430 -0.0100 -0.3039  0.0809
18737W        W34998  12.397   2.489  13.766  0.1895 -0.0977  0.1190
18738W        W34999  17.354   3.966  14.313  0.0824  0.1160  0.0262
18739W        W35000  17.028   5.137   3.819 -0.0210 -0.0405 -0.1660
18740W        W35001   8.895   1.034   0.540 -0.2406 -0.0620  0.0366
18741W        W35002   7.982   4.053  13.561 -0.2372 -0.0011 -0.0666
18742W        W35003   2.345  18.496  10.348  0.1953 -0.3575  0.0151
18743W        W35004  11.406  16.123  12.463 -0.1611 -0.0370 -0.0119
18744W        W35005   1.487   4.814   5.956  0.1785 -0.2121  0.0497
18745W        W35006   3.409   6.251  13.461 -0.1716  0.3006  0.1936
18746W        W35007   5.754   2.608   3.465 -0.1081  0.2331 -0.3974
18747W        W35008   0.384   9.355  13.751  0.1037 -0.2893  0.0997
18748W        W35009   1.473   0.744  13.573  0.3026 -0.0593  0.2781
18749W        W35010  18.569  11.171   4.660 -0.1913 -0.0492 -0.1411
18750W        W35011   0.336   2.070   2.837  0.1688  0.0618  0.2812
18751W        W35012   0.617   7.529   0.998 -0.0131 -0.1520  0.0522
18752W        W35013  18.751  10.718  11.138  0.4880  0.0636 -0.0469
18753W        W35014  17.142  19.220  13.985 -0.1886  0.5012 -0.0058
18754W        W35015   0.288   0.761   1.120 -0.0987 -0.3891 -0.1883
18755W        W35016   2.812   3.111  11.714  0.0293 -0.1443  0.0212
18756W        W35017  12.709  10.969   4.514 -0.0586 -0.0805 -0.1650
18757W        W35018  10.438  17.264  11.021 -0.1814 -0.0635  0.0205
18758W        W35019   5.816  19.235  11.574 -0.4382  0.1898  0.1030
18759W        W35020   3.331  14.007   3.789  0.0748 -0.0772 -0.1435
18760W        W35021   7.699   9.675   2.723 -0.2057 -0.1104 -0.0985
18761W        W35022   3.351   3.833   1.980 -0.0545 -0.0636 -0.1653
18762W        W35023  16.587   1.821  11.071 -0.3602 -0.1671  0.1871
18763W        W35024   7.231  10.161  11.552 -0.0070 -0.1177  0.0662
18764W        W35025  11.667  16.016  11.955  0.1050  0.2289 -0.5170
18765W        W35026  13.240   2.166   1.416  0.0043  0.3012  0.0581
18766W        W35027  17.327   6.790   2.694  0.1391  0.1248 -0.2608
18767W        W35028  12.101  16.196   0.485  0.1418  0.3138  0.3292
18768W        W35029   5.556  11.725   2.997 -0.0750 -0.2425 -0.0765
18769W        W35030   2.361  12.853  13.627 -0.1631 -0.1538 -0.0182
18770W        W35031  19.355   7.149  13.255 -0.2166 -0.0422  0.2156
18771W        W35032  15.069  12.639  10.433  0.3990 -0.0852 -0.0154
18772W        W35033  11.179   9.846   0.240 -0.1829 -0.0454 -0.0849
18773W        W35034  15.646  10.465   3.604 -0.0933  0.0272 -0.0656
18774W        W35035   4.015  10.451   2.008  0.5205 -0.3704 -0.0351
18775W        W35036  19.420  14.469   1.363 -0.1206 -0.0217 -0.0602
18776W        W35037   3.478   9.585   1.952  0.0268 -0.1912  0.3539
18777W        W35038   2.016   6.448  10.644 -0.1186  0.0334  0.1988
18778W        W35039   4.988   9.364   1.390  0.1123 -0.1084 -0.1150
18779W        W35040   8.092   0.278   1.171 -0.2913  0.0842 -0.0436
18780W        W35041  12.252   3.126   1.485  0.0121  0.2023  0.1919
18781W        W35042  12.665  15.677  12.303 -0.3824  0.0574  0.1379
18782W        W35043  12.864   5.208   1.267  0.0143 -0.2720  0.2160
18783W        W35044   6.181  17.706  12.765  0.0012  0.1594 -0.3221
18784W        W35045   4.590  13.179  11.970 -0.0046  0.1660  0.0154
18785W        W35046  10.808  11.050  13.179 -0.1333  0.0545 -0.2164
18786W        W35047   7.900  13.216   0.176 -0.2056  0.0423  0.2974
18787W        W35048   2.795  16.158   1.760 -0.0133 -0.1646  0.0310
18788W        W35049  11.956  11.245  14.269 -0.4417  0.0987 -0.2808
18789W        W35050  17.276   6.693  12.366 -0.0766  0.0301 -0.3082
18790W        W35051  17.597   1.037  14.427  0.2704  0.1839 -0.1935
18791W        W35052   2.432   6.865   4.962  0.1462 -0.0588  0.0952
18792W        W35053  15.467  12.412   4.536 -0.0156 -0.0070  0.0096
18793W        W35054   1.699  12.147  11.600 -0.5288 -0.3051  0.0632
18794W        W35055  17.825  14.715  13.661 -0.0293 -0.3508  0.1164
18795W        W35056   5.914   4.008  11.741 -0.6576 -0.0525 -0.0030
18796W        W35057   6.821  12.856  12.460  0.1288 -0.1256  0.1875
18797W        W35058   1.669  14.050  10.331 -0.2231  0.1233  0.3929
18798W        W35059  11.472   7.559   4.668  0.5308 -0.1445 -0.2044
18799W        W35060   7.898  17.152  10.398  0.1116 -0.0067  0.0176
18800W        W35061   4.657  13.487   4.120 -0.0945  0.2526  0.2027
18801W        W35062   6.671  17.819  12.835 -0.0896 -0.0161  0.1733
18802W        W35063   3.708   2.177  11.206  0.0068 -0.1601  0.1597
18803W        W35064  10.395  17.434   3.561  0.0953 -0.1396 -0.0808
18804W        W35065  10.644   4.581  12.714  0.0152  0.2512 -0.3141
18805W        W35066   6.040   8.044   1.608  0.0297 -0.3716  0.1376
18806W        W35067  13.234  11.602  11.394 -0.2464  0.0078 -0.3425
18807W        W35068   9.181   4.445   3.396 -0.1623  0.1974 -0.1187
18808W        W35069   9.850  19.375  13.082  0.1747 -0.0141  0.1861
18809W        W35070  18.497   6.202   0.041 -0.0711 -0.0347  0.3675
18810W        W35071  11.861  17.889  12.042 -0.0616 -0.2847  0.1717
18811W        W35072  19.165   2.801  10.216  0.0238  0.0642 -0.0293
18812W        W35073  10.835  14.872  14.403 -0.1107 -0.1573 -0.1372
18813W        W35074   5.514   4.084   5.888  0.0763  0.2844  0.3213
18814W        W35075  12.933  13.855  11.096  0.0140  0.0432  0.0971
18815W        W35076  11.192   1.833  11.090 -0.0847 -0.0692 -0.3684
18816W        W35077   8.810   0.269   3.176  0.0308  0.0692  0.0376
18817W        W35078  11.800  11.108  14.800  0.3945 -0.1662  0.2772
18818W        W35079  19.307  11.713  13.998  0.1824 -0.2295  0.0715
18819W        W35080  13.571   5.531  12.826  0.0326 -0.2958  0.1845
18820W        W35081   5.176  10.968   3.430 -0.0242 -0.2606 -0.2071
18821W        W35082   0.694   8.436  13.493 -0.0215 -0.0100  0.0449
18822W        W35083   5.433  10.080   0.470 -0.0369 -0.2418 -0.6518
18823W        W35084   4.115  19.241  10.774 -0.3178  0.6279  0.3082
18824W        W35085   9.457   8.694   9.700 -0.1465 -0.0425  0.0966
18825W        W35086  13.320   5.008  14.180 -0.0368 -0.1211 -0.0321
18826W        W35087  13.097  17.230   0.283 -0.3374  0.4371  0.2681
18827W        W35088   5.931  18.941  11.989 -0.1972  0.0241  0.3623
18828W        W35089  10.253   1.312  12.001  0.1649 -0.0797 -0.1946
18829W        W35090   5.239  15.178   3.158 -0.0485  0.1330  0.3025
18830W        W35091  10.453  10.173  13.661  0.1002  0.0799  0.2134
18831W        W35092  14.801   3.923  10.563  0.1640 -0.2533  0.2276
18832W        W35093   1.197   4.742   3.280  0.2737  0.3148  0.1017
18833W        W35094   5.501   5.185   3.486  0.0105 -0.1644 -0.0798
18834W        W35095  17.319   1.405  11.390  0.0946  0.1124 -0.0650
18835W        W35096   2.231   5.289  12.917 -0.2344  0.1106 -0.0681
18836W        W35097  18.602  11.897  14.282 -0.1677 -0.2080  0.2669
18837W        W35098  12.456  12.537  13.759  0.0531 -0.1236  0.2591
18838W        W35099   6.662  18.993   2.994  0.2459 -0.0325 -0.0563
18839W        W35100   2.724   6.612  12.943 -0.1862  0.1328 -0.1623
18840W        W35101  15.809  19.085  13.070  0.0509  0.3802 -0.1269
18841W        W35102  19.255  18.045  11.743 -0.3285  0.0768  0.0622
18842W        W35103   4.792   6.921   0.323 -0.0153 -0.0683 -0.0812
18843W        W35104  10.716  15.069  11.288  0.3119  0.2433  0.2249
18844W        W35105   6.716  12.397  12.275 -0.1224 -0.0112 -0.3002
18845W        W35106  14.731  16.404  14.576 -0.0524  0.0601  0.2533
18846W        W35107   0.462  16.880  12.937  0.1007 -0.1144 -0.0877
18847W        W35108  12.107  10.349  11.594  0.1269 -0.2268 -0.0873
18848W        W35109  18.929   4.608  14.322 -0.0858  0.0697  0.0975
18849W        W35110  14.978  12.747  12.226 -0.0495  0.1965 -0.0046
18850W        W35111   0.730   9.961   5.023  0.1585  0.1700  0.4015
18851W        W35112   1.866  16.620   4.932  0.0304 -0.5235 -0.2148
18852W        W35113  18.969   9.060  14.592  0.2168  0.2719 -0.3462
18853W        W35114   0.466   9.455  11.130  0.0216  0.0335 -0.2383
18854W        W35115   2.249  11.018  14.309 -0.3007  0.2539  0.3856
18855W        W35116  12.782  19.188  12.307 -0.1125 -0.2123  0.3424
18856W        W35117   3.203  11.293   2.466 -0.2061 -0.1683  0.0017
18857W        W35118  18.010   6.186   2.685 -0.0093 -0.1110 -0.3429
18858W        W35119  18.393  13.843  10.804 -0.1011 -0.1269 -0.0800
18859W        W35120  16.062  11.495   3.510 -0.0426 -0.1584 -0.2548
18860W        W35121   4.856   0.514   1.954  0.0913  0.1690 -0.0174
18861W        W35122   6.936   5.505  11.541 -0.2356 -0.0247  0.2347
18862W        W35123   8.414   7.327  11.535  0.1755 -0.1522 -0.1411
18863W        W35124   3.049  12.241  11.841  0.0467 -0.0359  0.2847
18864W        W35125   5.294  17.419   2.281  0.0726 -0.0701 -0.1939
18865W        W35126  16.170   2.584  13.986 -0.0042  0.0241  0.4031
18866W        W35127  15.975  16.429   0.419 -0.0486  0.0831  0.5860
18867W        W35128   3.932  11.623   0.629  0.0975  0.1111 -0.0381
18868W        W35129  16.677   1.864   1.986  0.1395 -0.1482 -0.1466
18869W        W35130   5.873  14.684   1.816  0.0329  0.0766  0.4170
18870W        W35131  12.834  11.604   0.986 -0.1034  0.0867 -0.1079
18871W        W35132  15.765   4.170  11.201  0.0501  0.0387 -0.1159
18872W        W35133   6.435  15.679  12.255 -0.0119 -0.3552  0.4296
18873W        W35134   1.854   5.242   2.860 -0.0328 -0.1824  0.0676
18874W        W35135   7.456   2.605   1.403 -0.0639  0.0115  0.1140
18875W        W35136   3.291   7.111   5.300 -0.4420  0.1723  0.0407
18876W        W35137   5.631   3.562   4.951 -0.0213  0.1256  0.3370
18877W        W35138  18.958   6.581   5.114 -0.2187 -0.2440 -0.0960
18878W        W35139  12.722  18.574  10.280  0.0101 -0.0353 -0.0508
18879W        W35140   4.417   3.432  13.429 -0.0985 -0.0207 -0.2302
18880W        W35141  18.066   1.004   1.114 -0.0809  0.0634 -0.1320
18881W        W35142  17.296   4.429   0.042 -0.0474  0.4347  0.0091
18882W        W35143   6.788   3.713  13.228 -0.2120 -0.1573 -0.1623
18883W        W35144  10.624  13.153   9.833 -0.1863 -0.3143  0.3964
18884W        W35145  17.762   8.636   3.176 -0.3494  0.0896 -0.1032
18885W        W35146  13.709   4.806  14.373  0.3633  0.2976 -0.2204
18886W        W35147   1.500  12.509   9.813 -0.2147  0.3355 -0.0957
18887W        W35148   2.189  14.982  13.083  0.0091  0.2402 -0.0168
18888W        W35149  15.079  16.257  12.370  0.1351  0.3019 -0.2125
18889W        W35150   7.583  16.625  14.736  0.0146 -0.0639 -0.0689
18890W        W35151   9.013   6.551  14.561 -0.3993  0.0656 -0.2193
18891W        W35152  15.425   4.694   0.830 -0.1795 -0.1739 -0.0038
18892W        W35153   3.182  11.621  14.426 -0.0352 -0.0575 -0.2068
18893W        W35154   5.640  12.677  13.736 -0.3492 -0.0346  0.1481
18894W        W35155  18.085   9.351   2.813 -0.1320  0.1343  0.2634
18895W        W35156   1.514  18.847   3.441  0.0884 -0.0771 -0.2729
18896W        W35157   4.643  10.556   2.118 -0.1118  0.0667 -0.3603
18897W        W35158  15.175   5.840   2.588  0.0292  0.1172 -0.0490
18898W        W35159  15.192   5.339   3.153  0.1623 -0.1352 -0.0737
18899W        W35160  15.783   5.701   1.475 -0.3238 -0.1441 -0.0110
18900W        W35161   8.480   7.692   2.945 -0.2284  0.2781 -0.0253
18901W        W35162  18.261  16.620  14.852  0.1198 -0.4135 -0.0972
18902W        W35163   5.424  13.095   2.144  0.0092  0.0782 -0.0150
18903W        W35164  14.566   0.830   2.841 -0.0688  0.0567  0.2395
18904W        W35165   0.253   2.378   2.124 -0.2852 -0.0136 -0.2232
18905W        W35166   0.848  15.763   0.276  0.2952 -0.1938  0.4237
18906W        W35167  11.569  15.624  12.284  0.0376  0.0494  0.1598
18907W        W35168  15.973  10.604   3.128  0.0944  0.1105 -0.1815
18908W        W35169  13.004  16.402  12.759 -0.1316 -0.2616 -0.2857
18909W        W35170  10.150   9.335   2.922 -0.1332  0.2292  0.1181
18910W        W35171   0.250  14.209  11.011  0.0381  0.1914 -0.2951
18911W        W35172  11.528   2.753   1.107 -0.2282  0.0124  0.2406
18912W        W35173   3.090  18.605   4.939 -0.1142 -0.1374 -0.0425
18913W        W35174   9.645   3.602   4.362  0.1779 -0.3490  0.0647
18914W        W35175   1.307   9.107  11.720 -0.2020  0.2075 -0.1550
18915W        W35176  19.329   2.446   5.461 -0.3292  0.0135 -0.1454
18916W        W35177   8.387   4.922  13.771 -0.1882 -0.2019  0.0320
18917W        W35178   6.293  19.451   9.371 -0.0788 -0.1204  0.2854
18918W        W35179   7.766   8.315  11.261  0.1434  0.1211  0.2615
18919W        W35180   7.427   7.536   1.762  0.0536 -0.2305 -0.2005
18920W        W35181   8.607  13.034   2.813 -0.1037 -0.1569  0.1790
18921W        W35182  13.549   0.446   4.372  0.2948 -0.0614  0.1096
18922W        W35183  11.111   2.369   1.135 -0.1282 -0.0070  0.0956
18923W        W35184  10.815  11.442   0.336 -0.0268 -0.2503  0.2910
18924W        W35185  13.604  11.108  14.014 -0.0818 -0.1224  0.0078
18925W        W35186  17.558  14.541  10.552 -0.1032 -0.0224 -0.3771
18926W        W35187  12.109  17.966   1.104 -0.1180  0.0821  0.2407
18927W        W35188  10.724   8.467   1.949 -0.0699 -0.1812 -0.3423
18928W        W35189  17.803   6.698   2.732 -0.0292 -0.1174  0.0666
18929W        W35190   3.946   0.218   5.599  0.2417  0.4088 -0.2578
18930W        W35191   0.930   5.583   4.040  0.0504  0.2119  0.2237
18931W        W35192  18.641   2.495  12.252  0.0927 -0.1732  0.0679
18932W        W35193  18.712   4.608  11.381  0.0989 -0.0312  0.0394
18933W        W35194   2.319  13.912  13.228  0.0197  0.0581 -0.0018
18934W        W35195   1.784  12.009   2.164  0.0371  0.0614  0.0487
18935W        W35196  18.067   8.644  12.580  0.0421 -0.2092 -0.0845
18936W        W35197   6.098  11.272   0.468 -0.1099  0.2234  0.2699
18937W        W35198  13.603  14.253   1.174 -0.2377 -0.1957  0.1314
18938W        W35199  12.197   9.059  14.157  0.0493  0.4968 -0.1290
18939W        W35200  14.999   7.177  10.274 -0.1757 -0.0326  0.0564
18940W        W35201   7.973   5.756  12.526  0.1546  0.3329 -0.4117
18941W        W35202  12.250   2.551  14.252  0.0953  0.1028 -0.0301
18942W        W35203   4.643  13.382  14.022 -0.1010 -0.2368 -0.1016
18943W        W35204  19.079  13.273   0.838  0.0745  0.1214 -0.1261
18944W        W35205  11.327   8.537  11.892  0.3968 -0.2359 -0.0760
18945W        W35206   0.685  11.968   2.837 -0.1403  0.0838  0.2955
18946W        W35207   5.978   9.158   4.540 -0.0159  0.3162 -0.2699
18947W        W35208  11.451  15.084  12.264  0.0281  0.2024  0.1069
18948W        W35209  17.354   3.571   1.843 -0.0027 -0.1289 -0.1925
18949W        W35210  18.658   6.952   2.788 -0.0924  0.0178  0.1277
18950W        W35211  15.387   2.582  12.354  0.0506 -0.0189 -0.2975
18951W        W35212   1.025  11.539   2.045  0.0873  0.5081  0.1575
18952W        W35213   1.337   1.136  12.745  0.1602  0.3194 -0.1552
18953W        W35214  19.298  14.049  13.038 -0.1072 -0.0855  0.0682
18954W        W35215  16.068  12.889   1.625  0.2716  0.0289  0.0271
18955W        W35216  10.840  14.952  10.380  0.2556  0.1478  0.1007
18956W        W35217  15.299   9.534  13.306  0.1332 -0.0482 -0.2151
18957W        W35218   0.248  13.597  11.045 -0.2201 -0.2262 -0.0919
18958W        W35219   6.886   7.031  12.655  0.2116 -0.1814 -0.0005
18959W        W35220   7.607   8.600   1.741  0.1326 -0.1954  0.1366
18960W        W35221  12.698   9.171   1.983  0.1550  0.0856  0.4374
18961W        W35222   0.639  16.663   2.777  0.0420 -0.0955  0.1360
18962W        W35223   6.332   3.038   0.065 -0.0454  0.2027  0.0136
18963W        W35224  16.732   4.123   0.688 -0.0204  0.1863  0.1410
18964W        W35225  12.738  10.794   1.619 -0.1967  0.1190  0.0618
18965W        W35226   0.364   7.904  11.785  0.0177 -0.2790 -0.0858
18966W        W35227  19.421  16.701  13.632 -0.2441  0.0674  0.1459
18967W        W35228   3.068   8.882  12.217  0.2902  0.3881 -0.2330
18968W        W35229  16.613   5.270  11.435  0.0513 -0.0495  0.0570
18969W        W35230   0.890   9.528   5.201 -0.0946 -0.0812  0.0412
18970W        W35231   6.178   7.386   2.810  0.0896  0.2241 -0.0344
18971W        W35232  10.292   7.050  12.828  0.1580  0.3406 -0.1629
18972W        W35233   5.302   6.662   1.416 -0.0322 -0.0804 -0.0219
18973W        W35234  12.468   0.200   0.550  0.2163 -0.0549  0.2229
18974W        W35235   9.455   4.604   4.284  0.1528 -0.2044 -0.2392
18975W        W35236   1.578   1.539  11.384  0.1574 -0.0758 -0.2829
18976W        W35237  13.116  17.710  14.210  0.0739  0.2352  0.2056
18977W        W35238   7.711   2.712  12.834  0.0945 -0.2173  0.0829
18978W        W35239  15.189   2.200   4.424 -0.0188  0.0581  0.3305
18979W        W35240   3.131  12.319   0.367 -0.0686  0.1312 -0.0028
18980W        W35241   5.952   4.863  13.532 -0.1900 -0.0059 -0.1529
18981W        W35242  17.794  15.508  13.010 -0.1582  0.1551 -0.1699
18982W        W35243   7.855  13.019  14.620 -0.1298 -0.1100 -0.1024
18983W        W35244  11.855   2.120  10.286 -0.0437  0.0655  0.2275
18984W        W35245  17.551   9.656   4.795 -0.0910  0.2512  0.0998
18985W        W35246  15.501   2.364   5.398  0.0883 -0.2106 -0.1892
18986W        W35247  16.122   2.200  10.460 -0.0029  0.0797 -0.1123
18987W        W35248   6.106   8.808   0.678  0.1243  0.4556 -0.0846
18988W        W35249   5.962   6.033  13.691 -0.3311  0.0107 -0.5315
18989W        W35250   7.532   9.095   9.557 -0.2818 -0.0644 -0.0258
18990W        W35251  18.284  12.935  10.882  0.0985  0.1653  0.0600
18991W        W35252  15.588  17.687   4.384 -0.3967  0.1786  0.3965
18992W        W35253   0.517   0.216  14.516 -0.1266  0.0645 -0.1981
18993W        W35254   1.715  10.966   3.114  0.1617 -0.2619  0.0270
18994W        W35255   8.968   7.859   4.570  0.2515 -0.1304  0.2953
18995W        W35256  11.226   8.949  13.142 -0.1345  0.2010 -0.1665
18996W        W35257   5.486  14.772   2.530  0.0642  0.2423  0.0348
18997W        W35258  14.789  13.049  13.684  0.1842 -0.0491  0.0441
18998W        W35259  10.224   8.521   3.559  0.0546 -0.0582 -0.1734
18999W        W35260   9.532  12.626   0.701  0.0511 -0.0757 -0.0454
19000W        W35261   6.716   4.753   0.228  0.1780 -0.0764 -0.0702
19001W        W35262  12.577  12.788  11.320 -0.2587  0.4812 -0.3144
19002W        W35263  12.807   8.449   4.299  0.1819  0.2159 -0.0639
19003W        W35264  14.869   1.218   2.357  0.2548 -0.0285  0.0096
19004W        W35265  11.575   9.361  13.124 -0.4892 -0.2346  0.1485
19005W        W35266  17.708  13.564   1.757 -0.1936 -0.0367 -0.1353
19006W        W35267  16.502   6.491  10.646 -0.1177 -0.3646 -0.5196
19007W        W35268  15.855  15.135   9.291 -0.0471  0.3553 -0.1266
19008W        W35269   5.757  14.555  13.343 -0.0100 -0.0748  0.0796
19009W        W35270   8.658   1.828  12.971  0.2593 -0.2598 -0.2050
19010W        W35271   7.328   1.720   0.266  0.2540  0.0705  0.2260
19011W        W35272  10.914  15.202  13.125 -0.2775 -0.2519  0.1613
19012W        W35273  11.225   5.082  13.706  0.3719 -0.2266 -0.3020
19013W        W35274   3.866   9.957   1.865 -0.0782  0.1171 -0.2436
19014W        W35275   1.411   5.489  14.857 -0.3659 -0.1474 -0.3080
19015W        W35276  17.483   1.214  11.795 -0.1084 -0.1387  0.1765
19016W        W35277   2.547  12.060  13.672  0.2291 -0.4350 -0.2378
19017W        W35278   1.071  11.796   8.634  0.0509  0.0558  0.1015
19018W        W35279   9.011  14.968   0.868  0.1198  0.1298  0.0836
19019W        W35280   3.452  12.361  12.861 -0.0614  0.3621 -0.1612
19020W        W35281   7.242  14.912  12.499  0.1112  0.0798 -0.3149
19021W        W35282  17.263   1.011   0.523 -0.2137  0.0499 -0.3195
19022W        W35283   1.724   7.196  13.013  0.2075 -0.1240  0.1220
19023W        W35284  12.057  12.829  13.689  0.3609 -0.2539 -0.0863
19024W        W35285   4.423  11.222  12.654  0.0535 -0.2837  0.1089
19025W        W35286   9.192   4.754  13.520 -0.2260  0.1012 -0.0728
19026W        W35287   7.866   7.985   4.511  0.0233 -0.0648  0.1791
19027W        W35288  18.234  18.985   1.051 -0.2553  0.3738 -0.1768
19028W        W35289   4.661   3.874   0.107  0.2196 -0.3083  0.3024
19029W        W35290   5.256  18.511   1.832  0.0663  0.1726  0.0101
19030W        W35291  19.125   0.459  14.297 -0.0110  0.1966 -0.1314
19031W        W35292  16.484  11.759  12.790 -0.4464 -0.0430  0.1793
19032W        W35293  17.069   7.933   2.036  0.0683  0.1917 -0.2448
19033W        W35294   4.811  11.668   1.819  0.2558  0.0147 -0.0817
19034W        W35295  10.765   5.124  14.144  0.0781 -0.0286  0.1587
19035W        W35296   0.082  12.995  12.239 -0.1447  0.2079 -0.2535
19036W        W35297   4.560  13.589  12.245  0.2187 -0.0716 -0.0511
19037W        W35298   0.441   4.874   4.407  0.0688 -0.3643  0.1449
19038W        W35299   9.386  15.736   0.944 -0.1968  0.0004 -0.0226
19039W        W35300  13.286   6.401   2.480  0.0048  0.3247  0.0943
19040W        W35301  18.302  12.306  14.259 -0.2233 -0.1171  0.0977
19041W        W35302   7.083   7.663  14.014 -0.0247  0.0723  0.0385
19042W        W35303   0.968  18.869   5.996  0.0040  0.1342 -0.1044
19043W        W35304  15.164   3.489  12.665 -0.0053  0.0308  0.0580
19044W        W35305  16.728   5.800   2.362 -0.2010  0.2096 -0.2602
19045W        W35306  12.273   2.039  12.469  0.2903  0.1278 -0.1400
19046W        W35307   1.885   3.079   1.095  0.0752 -0.2799 -0.2515
19047W        W35308   8.118  12.156  12.768  0.0257 -0.1197 -0.2238
19048W        W35309  12.418  14.224   1.030 -0.2244  0.0636  0.0148
19049W        W35310   3.938   7.086  13.371  0.1151 -0.0306 -0.2113
19050W        W35311   7.947   4.008  10.992  0.0907  0.1525  0.0839
19051W        W35312  15.505  12.155   4.164 -0.2588 -0.2765 -0.2456
19052W        W35313  12.134  12.071  14.833 -0.1264 -0.0906  0.2636
19053W        W35314   3.974   3.647   1.282  0.1193 -0.0951 -0.0034
19054W        W35315  12.245  10.950  10.592 -0.0706 -0.1125  0.1046
19055W        W35316  14.774   3.839  14.266 -0.5667 -0.0666  0.0580
19056W        W35317   8.224  17.982   2.783 -0.1786  0.1526 -0.0005
19057W        W35318   5.865   8.329   2.497  0.1781 -0.0433 -0.0901
19058W        W35319  17.477  16.330   0.516 -0.4357 -0.0380  0.1070
19059W        W35320   9.812   4.794  12.486  0.1173 -0.0673  0.0033
19060W        W35321   6.776  12.254   4.640  0.0556  0.1567  0.0845
19061W        W35322   2.732   2.501   2.650  0.4664 -0.0874  0.0319
19062W        W35323  16.672   2.451  13.892 -0.0414  0.2405  0.2559
19063W        W35324  10.679   2.700  11.406 -0.0393  0.0746 -0.0661
19064W        W35325  19.054   3.982  10.361 -0.0078 -0.0550  0.2584
19065W        W35326   5.817   4.917  11.966  0.0942 -0.4107 -0.0956
19066W        W35327  17.964   5.635  11.815  0.1096 -0.1673  0.2867
19067W        W35328   3.607  16.154   2.626  0.1302  0.0017  0.0149
19068W        W35329   9.572   6.747  14.294 -0.0491  0.1233 -0.2496
19069W        W35330   5.220   3.015   5.156  0.1616 -0.2009  0.0383
19070W        W35331   8.542  11.482  10.568 -0.2413 -0.3230 -0.1581
19071W        W35332   0.917  16.030  11.693 -0.1837 -0.2893  0.0227
19072W        W35333   9.060   7.497  13.535 -0.3581 -0.1587  0.3943
19073W        W35334   7.431  18.050   2.992 -0.0503  0.2581  0.0187
19074W        W35335   2.187   8.208  13.498 -0.1301 -0.0792  0.2640
19075W        W35336   5.961   7.404  14.242  0.0768  0.0209  0.0161
19076W        W35337   8.801   7.488  10.583 -0.0292 -0.1772 -0.0116
19077W        W35338   6.121   3.991  10.954 -0.0883  0.1402  0.0656
19078W        W35339  15.816  14.540  10.412 -0.2198 -0.0135 -0.0331
19079W        W35340  16.784  11.730   1.424 -0.1496 -0.1085  0.5885
19080W        W35341   7.901  19.208  13.332 -0.3120 -0.1775 -0.2857
19081W        W35342   9.985   2.644   4.826 -0.0666 -0.3105  0.1044
19082W        W35343   6.868   6.087   5.142 -0.1280  0.2182  0.1102
19083W        W35344   0.945  13.343  10.462  0.0469 -0.0665  0.0462
19084W        W35345   0.534   1.991   2.355 -0.0951  0.3497 -0.1359
19085W        W35346   5.020  10.975   0.757  0.0528 -0.2377  0.0460
19086W        W35347   5.376   0.264  11.076 -0.1563 -0.1490  0.0756
19087W        W35348  19.270   1.860  10.623 -0.1528 -0.5041 -0.2843
19088W        W35349  12.370   7.030  13.598  0.1722  0.3602 -0.2525
19089W        W35350  14.913  19.285   5.028  0.2908  0.1637  0.3847
19090W        W35351  13.654   8.667  10.555 -0.0141 -0.2060 -0.0623
19091W        W35352   5.696  12.500   0.383 -0.0084  0.1259  0.0648
19092W        W35353  13.653  12.487   0.032 -0.0551 -0.1425  0.3986
19093W        W35354   0.678   4.462   5.275  0.1754 -0.0798 -0.3809
19094W        W35355  12.993  12.304  10.921 -0.1750  0.3801  0.1054
19095W        W35356   6.412  15.409  10.622  0.0156 -0.1727 -0.2121
19096W        W35357  10.847   3.856   3.336  0.1098  0.0681 -0.0424
19097W        W35358   6.658   0.485  12.831  0.1818 -0.0002  0.4418
19098W        W35359  11.656  17.568   0.424  0.2870 -0.1152  0.5347
19099W        W35360   9.252  15.700   3.690 -0.0926 -0.0894  0.1506
19100W        W35361  18.388   9.508  11.103 -0.0414  0.2493 -0.0596
19101W        W35362  17.052  19.306  11.413 -0.3112  0.4129 -0.0354
19102W        W35363   7.465  11.303   4.507 -0.4770  0.2324  0.2439
19103W        W35364   0.256  17.230   1.247  0.1271  0.2349 -0.1245
19104W        W35365  17.723   1.870   0.574  0.1154  0.1115 -0.3502
19105W        W35366  16.558  15.961  11.844 -0.4020  0.1555  0.2324
19106W        W35367   5.747   8.811  11.746 -0.0202 -0.0271 -0.0056
19107W        W35368   0.093  15.908  14.295  0.0517  0.0755  0.0561
19108W        W35369   0.816   4.555  13.062  0.1763 -0.0471  0.0567
19109W        W35370   9.462   0.671  13.341 -0.1403 -0.0042  0.1568
19110W        W35371  12.376   4.273  10.747 -0.1057  0.1107 -0.0290
19111W        W35372   5.109   8.360   0.351  0.0532  0.1007  0.2787
19112W        W35373   9.779  16.946  12.651 -0.1058 -0.3164  0.3024
19113W        W35374   1.410  10.607   3.970 -0.0201 -0.1473  0.1395
19114W        W35375  10.312  18.120  13.016  0.0696  0.1655  0.1336
19115W        W35376   8.341   6.273   0.186  0.1186 -0.0737  0.1610
19116W        W35377   4.607   3.813  12.367  0.2987  0.0732 -0.1509
19117W        W35378   4.075   4.081  11.584 -0.0281  0.1042 -0.0947
19118W        W35379  16.022  13.197   2.008 -0.0296  0.3012  0.0060
19119W        W35380  17.574   2.695  12.601 -0.0645  0.0661 -0.2543
19120W        W35381   8.338   2.318  10.150 -0.1015  0.1917  0.2884
19121W        W35382   1.622  12.085   0.557  0.0249  0.0667  0.1062
19122W        W35383   4.275  16.974  13.142 -0.0331 -0.3131  0.1277
19123W        W35384  10.653   6.902  10.381  0.0422  0.0922  0.0806
19124W        W35385   8.133  10.797   3.934  0.1556 -0.1540 -0.0373
19125W        W35386  16.077   4.428  12.882  0.2927 -0.3161 -0.1265
19126W        W35387   3.778  13.502  13.585 -0.0065 -0.3335  0.3939
19127W        W35388   9.221  12.629   0.273  0.0475  0.0471 -0.0817
19128W        W35389   2.317   2.916  12.940  0.0678 -0.0678 -0.0898
19129W        W35390  11.887   8.250  14.522 -0.0227  0.2936  0.3490
19130W        W35391   2.397   5.008   4.962 -0.6320  0.1335  0.0050
19131W        W35392   3.726   1.216   0.461 -0.2946  0.1715  0.3242
19132W        W35393   3.618  12.680   3.666 -0.2077  0.2234  0.1685
19133W        W35394  18.588  14.196  14.012 -0.0155 -0.1453 -0.1222
19134W        W35395  12.439   5.556   2.759 -0.1388 -0.1369 -0.0852
19135W        W35396  14.886   4.291  12.715 -0.0399  0.2026 -0.1858
19136W        W35397  19.392   9.317   3.647  0.2026  0.0785 -0.1048
19137W        W35398  13.153  17.842  13.138 -0.1095  0.0370  0.0808
19138W        W35399  11.801   9.757   2.562 -0.0127 -0.3544 -0.0907
19139W        W35400  14.831   8.201   0.110  0.1132  0.1836 -0.1500
19140W        W35401  15.410  15.872  11.532 -0.0076 -0.1174  0.0303
19141W        W35402   1.811   9.158  13.754 -0.1810 -0.2125  0.1137
19142W        W35403  14.811   1.067  14.120 -0.1413 -0.3064  0.1966
19143W        W35404  15.275   6.882   4.461  0.1908  0.0518 -0.3496
19144W        W35405   7.727   0.336   5.144 -0.1628 -0.0846  0.0003
19145W        W35406   3.805  13.484   1.674 -0.3851 -0.0804  0.2855
19146W        W35407   4.849  18.911   4.535 -0.3111  0.0713 -0.2205
19147W        W35408   8.041  13.979   5.419 -0.0775  0.1860  0.2163
19148W        W35409   2.119   4.714  14.488 -0.2050 -0.2854 -0.1171
19149W        W35410   4.102  13.603  10.273 -0.2189  0.1903 -0.1668
19150W        W35411  14.345   7.915   2.754  0.3454 -0.1220 -0.6138
19151W        W35412  11.764  12.533  12.783  0.0837  0.0414  0.1271
19152W        W35413  12.918  15.330  14.538  0.2407  0.1990 -0.0782
19153W        W35414   1.868   8.625  12.707  0.0157 -0.2496 -0.1377
19154W        W35415   8.451   5.288   0.330  0.0740 -0.2228  0.1142
19155W        W35416   7.343   1.082   2.952  0.0171  0.0656 -0.1044
19156W        W35417  12.895   4.591  12.917  0.0769 -0.0470 -0.0222
19157W        W35418  16.121   1.547   5.670 -0.0331 -0.2280  0.1837
19158W        W35419   8.917  12.484  13.058 -0.1887 -0.1343 -0.3561
19159W        W35420  18.534  11.945  14.867  0.0482 -0.0869 -0.0087
19160W        W35421  15.789  13.991   1.325 -0.1411 -0.1124  0.1095
19161W        W35422   6.945  12.147  13.335 -0.0105 -0.1039 -0.6422
19162W        W35423  12.073   6.434  14.089 -0.2942  0.0922  0.1254
19163W        W35424  15.214   4.753   2.645  0.0805 -0.0395  0.0206
19164W        W35425   0.245  16.087  12.424  0.0867 -0.1076 -0.1813
19165W        W35426  11.413  16.323  12.931  0.4015  0.0438 -0.1479
19166W        W35427   0.253   0.438  14.170  0.1338  0.0047 -0.0313
19167W        W35428   5.113  13.428  13.872 -0.1473  0.1028  0.2062
19168W        W35429   0.081  15.484   1.425  0.1544  0.0115  0.2778
19169W        W35430  17.908  18.300  12.790  0.1013 -0.0592 -0.1648
19170W        W35431  16.787  14.033  10.419 -0.0976  0.2260 -0.0297
19171W        W35432   2.064   2.276  10.709 -0.0603  0.0564  0.1605
19172W        W35433  17.536   7.314   1.968 -0.5664  0.0850  0.4945
19173W        W35434  15.233   4.917   4.733 -0.3959 -0.5859  0.1832
19174W        W35435  12.376   3.605  13.909 -0.1288  0.0083  0.1393
19175W        W35436   1.031   8.002   1.053 -0.3726  0.0915  0.0036
19176W        W35437  19.362   9.419  14.674 -0.1985  0.1083  0.1582
19177W        W35438   2.451  16.763  12.038 -0.0732 -0.4188 -0.1634
19178W        W35439  17.271  13.573  13.554 -0.0883 -0.1698  0.0475
19179W        W35440   2.774   5.813  12.319  0.0436 -0.4707  0.0898
19180W        W35441  18.536   8.821   5.295 -0.2404 -0.2550  0.0407
19181W        W35442  11.996  18.366   3.445 -0.0814  0.2579 -0.2164
19182W        W35443   4.995  11.104  14.589  0.1211  0.3782 -0.1285
19183W        W35444   8.874   0.238  11.088  0.0167 -0.1136  0.0852
19184W        W35445  14.534   9.570   3.169 -0.0012 -0.0614  0.1649
19185W        W35446   0.513   9.866  10.302 -0.1999  0.0253  0.1467
19186W        W35447   9.498   0.762   2.199 -0.2246 -0.0291 -0.3254
19187W        W35448  14.115   9.398   4.642  0.1956 -0.0797 -0.1851
19188W        W35449  19.076  12.073   0.001  0.4131  0.2527 -0.0934
19189W        W35450   9.672   7.772   1.208 -0.0418 -0.0719  0.0309
19190W        W35451   7.271   0.422   5.384 -0.0087 -0.0957  0.1031
19191W        W35452   2.996   1.283   1.945  0.0561 -0.2204  0.0733
19192W        W35453   5.686  10.845   3.163  0.1476 -0.1057  0.1818
19193W        W35454   8.825  14.958   1.666  0.1239  0.2152  0.1477
19194W        W35455   1.626   9.960   3.808  0.3124 -0.0235  0.0578
19195W        W35456  17.508   2.558  10.921  0.1491  0.1588  0.1004
19196W        W35457   9.224   3.749  10.688 -0.1619 -0.1499  0.3154
19197W        W35458  16.427   5.786  13.197 -0.1364 -0.2193  0.1395
19198W        W35459   4.494  11.287   3.948 -0.4059 -0.0440  0.0153
19199W        W35460  16.504  18.986   1.350  0.2871 -0.4862  0.1547
19200W        W35461  11.335  14.702  14.386  0.2121 -0.3194 -0.3303
19201W        W35462   7.432   9.105  13.803  0.3130  0.0872 -0.1452
19202W        W35463   9.843   7.858   3.069  0.4942  0.3484  0.2891
19203W        W35464   1.118   1.601  12.578  0.2310 -0.2385 -0.0585
19204W        W35465  15.393  11.344   2.145 -0.4217  0.1295  0.1425
19205W        W35466   3.635   8.809  11.015 -0.0953  0.1128 -0.0645
19206W        W35467   1.378  10.646   5.156  0.0110 -0.2091 -0.3126
19207W        W35468   5.715  16.106   1.555 -0.1689 -0.0482 -0.0086
19208W        W35469  10.952  17.478  13.769 -0.1493  0.2330 -0.0520
19209W        W35470   6.459   8.441  12.911  0.1624 -0.3400 -0.0452
19210W        W35471   9.147  15.366   2.406  0.1921  0.2369  0.2020
19211W        W35472   6.758  18.311  11.327  0.0062 -0.2019 -0.2310
19212W        W35473   2.572  10.492  14.051 -0.0180  0.0512 -0.2632
19213W        W35474   9.039  11.453  10.837  0.3697  0.0215 -0.1262
19214W        W35475   2.456  13.347  11.572 -0.0582  0.0951  0.0567
19215W        W35476  16.540  13.645   9.752 -0.0403 -0.0188 -0.1987
19216W        W35477   0.887  15.104   1.923  0.2411  0.3501  0.2868
19217W        W35478  15.313   4.292   9.269  0.2910  0.1488 -0.0476
19218W        W35479  11.027   8.826  12.138 -0.0005 -0.0495  0.3631
19219W        W35480  13.287  18.399  14.401 -0.0702  0.1848  0.1860
19220W        W35481  11.542  18.261   3.539 -0.2761  0.0139  0.2536
19221W        W35482   8.836   8.741   1.087 -0.0401 -0.0240 -0.1303
19222W        W35483  12.146  13.098   3.229 -0.0242  0.0350 -0.2010
19223W        W35484   2.710   6.289   4.312  0.1883  0.0774 -0.0885
19224W        W35485  11.693   0.038  13.754  0.0565  0.2845  0.1688
19225W        W35486  12.265   4.875   1.884  0.2265 -0.0305 -0.0321
19226W        W35487  16.735  10.403  14.476  0.1096 -0.0483  0.1181
19227W        W35488   8.095  16.406  12.222 -0.2713  0.2417 -0.1316
19228W        W35489  17.703   6.984  13.809 -0.0127 -0.1358  0.1603
19229W        W35490   0.231  12.559  13.948 -0.1290  0.0797 -0.3422
19230W        W35491   6.544   7.953  12.823 -0.2058  0.2665  0.3028
19231W        W35492  17.420   7.885   4.737 -0.2657 -0.1458 -0.0353
19232W        W35493  15.699  10.514   0.169  0.1735  0.4309  0.0760
19233W        W35494  17.452  14.240   0.333  0.1683 -0.1370 -0.0431
19234W        W35495   8.622  17.126  11.806  0.1989  0.4083  0.0580
19235W        W35496   4.547   5.568   1.136 -0.0340  0.0287  0.1113
19236W        W35497   2.410  17.630   2.324 -0.1282 -0.1058 -0.0451
19237W        W35498   3.936   2.225  12.733  0.1015  0.3524  0.1839
19238W        W35499   7.123   2.206  13.536 -0.0177  0.1108  0.1863
19239W        W35500   5.641   7.082   0.766  0.1223  0.0672 -0.0991
19240W        W35501   5.245   3.933   4.415  0.1591  0.0048 -0.3556
19241W        W35502   7.362  12.337   3.066  0.0363  0.1009  0.1265
19242W        W35503  12.143   3.856   4.180 -0.0512 -0.1101 -0.2877
19243W        W35504   9.919   2.102  12.306 -0.2525 -0.0248  0.0584
19244W        W35505   7.892  15.459  13.305 -0.0554 -0.2410 -0.1370
19245W        W35506   9.523   2.863   3.966 -0.3265  0.2976 -0.1117
19246W        W35507   2.302   1.008  14.584 -0.1783  0.0848 -0.0467
19247W        W35508   2.653   1.936  11.998 -0.0575 -0.1234  0.0863
19248W        W35509  10.133  14.157   3.845  0.0124  0.2368  0.0606
19249W        W35510   3.088   7.086   4.194  0.1069  0.0997 -0.0740
19250W        W35511   5.402  17.679  12.514 -0.0932 -0.5216  0.0704
19251W        W35512  11.609   3.817  12.741 -0.0510  0.2404  0.1840
19252W        W35513  16.023   6.650   1.397 -0.2287  0.1151  0.2438
19253W        W35514   5.800  17.539  11.378  0.2319  0.1135  0.0029
19254W        W35515  16.881  15.822   1.133  0.1998  0.2978  0.1019
19255W        W35516  16.288  17.017  11.792 -0.0184 -0.1751 -0.1021
19256W        W35517   2.668   4.980  11.244  0.1493 -0.3199  0.0645
19257W        W35518   5.743  12.189   3.073  0.0636  0.0341  0.1756
19258W        W35519   9.016  11.132   1.694  0.0135  0.0653 -0.0658
19259W        W35520   6.408  11.252   0.058  0.1268  0.1500  0.2085
19260W        W35521   3.200  13.404  13.410  0.1163  0.2616  0.1155
19261W        W35522  11.441   9.024  11.947  0.4779  0.0871 -0.1708
19262W        W35523  15.134   1.392   4.972 -0.1589  0.1056 -0.3142
19263W        W35524   6.250   0.481  13.100  0.4146 -0.2469 -0.1675
19264W        W35525   8.525  13.391   1.542  0.0298  0.0301  0.2061
19265W        W35526  18.666  11.802   3.987  0.1952  0.2717 -0.1129
19266W        W35527   3.401  10.722   3.186 -0.0104  0.0575 -0.0170
19267W        W35528   8.109   3.036   5.447  0.1282  0.0278 -0.0507
19268W        W35529   1.783  10.705  12.835 -0.0094 -0.0612 -0.2022
19269W        W35530   9.731   9.531   5.483 -0.3708  0.1956  0.1253
19270W        W35531   4.526  17.416  10.024  0.2182  0.2178 -0.2254
19271W        W35532  11.669  16.486   0.965 -0.0905  0.0557  0.3412
19272W        W35533  16.388   0.439   3.049 -0.2721 -0.2006  0.4674
19273W        W35534  16.989   5.606   2.791  0.3363 -0.0513  0.0033
19274W        W35535   3.380  13.527   4.080  0.0553 -0.4484 -0.1160
19275W        W35536  10.027   2.072   4.006 -0.0197  0.0845  0.0947
19276W        W35537  11.171  17.470   0.281 -0.0097  0.5190  0.0747
19277W        W35538  14.063   1.627  10.722 -0.0274 -0.2005 -0.1440
19278W        W35539   6.494  12.394  14.092  0.1869 -0.0164 -0.0132
19279W        W35540   1.138  13.682   0.201 -0.1050  0.2827  0.2637
19280W        W35541   3.026  19.178   1.333 -0.0579 -0.0848 -0.1134
19281W        W35542  15.235   8.028  14.419 -0.0255  0.1368 -0.0015
19282W        W35543  10.617  14.139  14.080 -0.1011 -0.3480  0.1521
19283W        W35544  17.104   4.327   1.081 -0.0231 -0.1031 -0.3588
19284W        W35545   4.350   9.775   2.727  0.1323 -0.0057  0.0578
19285W        W35546  15.981  11.503  10.918 -0.0623 -0.2588  0.1213
19286W        W35547   9.897   1.869   3.592 -0.4075  0.1376 -0.1255
19287W        W35548  18.961   4.689   4.330  0.1786 -0.2503 -0.4038
19288W        W35549   8.323  13.833   3.254 -0.0301 -0.0648 -0.3800
19289W        W35550  12.915  10.430   2.582  0.3023 -0.2397 -0.1742
19290W        W35551  17.938   9.428  12.231 -0.0572  0.1737  0.3083
19291W        W35552   6.426   3.853   0.387  0.0714 -0.1019 -0.3638
19292W        W35553   7.292  13.242   2.820  0.1989  0.2359  0.0953
19293W        W35554  17.572  19.146  14.824  0.1412 -0.0471 -0.2607
19294W        W35555   9.350   5.552  12.512 -0.2140  0.0193  0.1508
19295W        W35556  16.126   5.039  14.039  0.0158 -0.0816  0.3049
19296W        W35557   9.598   4.616   3.801 -0.2061  0.2145 -0.0371
19297W        W35558  16.531  18.345  11.924 -0.0182  0.1121 -0.0315
19298W        W35559   0.328   4.604   4.852 -0.0882 -0.0684  0.2842
19299W        W35560  11.549  16.334   4.060 -0.3471 -0.1445 -0.0137
19300W        W35561  14.104  11.849  11.644 -0.2377  0.0076  0.1603
19301W        W35562   7.679   2.502  14.812  0.2724 -0.1002  0.1695
19302W        W35563   6.411   7.784  10.269  0.1467 -0.1194 -0.4405
19303W        W35564  13.826   0.988  10.532 -0.0587 -0.0978 -0.1506
19304W        W35565   2.500  10.112   0.450  0.0880 -0.1822 -0.1242
19305W        W35566   7.274   3.615   1.485 -0.4162  0.0588 -0.2699
19306W        W35567  16.301   9.598  13.205  0.2716  0.1326 -0.3608
19307W        W35568  12.913  17.992  14.733  0.0896 -0.1469 -0.0852
19308W        W35569  10.611  10.458   3.382 -0.2144 -0.2296 -0.0129
19309W        W35570   1.993  13.281   1.792  0.3179 -0.3272  0.1814
19310W        W35571  12.054  17.427  14.761 -0.1526  0.5335 -0.2443
19311W        W35572   4.803  12.464   1.044  0.1048  0.1103  0.2492
19312W        W35573   2.865   6.065  10.975 -0.2687 -0.3363 -0.0229
19313W        W35574   8.237   9.798   0.413 -0.0253 -0.1315 -0.2560
19314W        W35575  10.622  15.211  12.576 -0.0075 -0.0947  0.2283
19315W        W35576   6.182   3.600   4.827 -0.3073  0.1042 -0.0484
19316W        W35577  17.056   9.667   3.394 -0.3908  0.1141 -0.0071
19317W        W35578   8.195   3.412  11.661 -0.1875  0.2305 -0.1521
19318W        W35579   4.655  13.350   4.626  0.0512 -0.1607  0.3151
19319W        W35580   9.103   5.414   9.917 -0.1592 -0.2511  0.0134
19320W        W35581   6.691  16.234   4.221 -0.0062 -0.1092  0.0636
19321W        W35582   6.365   5.895  10.803 -0.0699 -0.0193 -0.0333
19322W        W35583   0.957  13.371  14.678 -0.0091  0.1042 -0.0703
19323W        W35584  12.116   7.986   2.126  0.0763 -0.1512 -0.4492
19324W        W35585   1.993  13.471   0.540  0.1994  0.1312  0.0615
19325W        W35586   3.899  19.282  14.631 -0.1334  0.0798  0.1045
19326W        W35587   9.921   9.598   0.670 -0.0973 -0.0224  0.0358
19327W        W35588   4.313   8.160  14.624 -0.0165  0.0113  0.1179
19328W        W35589  13.540  11.383   2.640  0.0367 -0.0370  0.0993
19329W        W35590   9.590   4.011   2.650 -0.1381 -0.1337  0.2978
19330W        W35591   8.550   9.745   0.010 -0.0939  0.0263 -0.0980
19331W        W35592   2.371   1.988  11.320  0.0656  0.0278  0.1148
19332W        W35593  14.328   5.052   1.247 -0.3365  0.2225  0.2068
19333W        W35594  17.068   2.342  10.532 -0.0264 -0.1627  0.0053
19334W        W35595   4.087   1.429  14.485 -0.2855 -0.0407 -0.5146
19335W        W35596  15.807   4.511  13.262  0.2128 -0.0606 -0.2599
19336W        W35597   3.553   7.727  11.672 -0.0658  0.1626  0.2736
19337W        W35598  16.506   6.404  12.705 -0.1207  0.1178  0.3553
19338W        W35599   0.172   0.116  11.052 -0.2910  0.1878  0.3478
19339W        W35600   1.657   1.342   4.267 -0.1138  0.0206 -0.2332
19340W        W35601   0.236  13.120   4.122  0.4380 -0.1225  0.0201
19341W        W35602   4.411  14.646  14.045  0.0534  0.0117  0.0531
19342W        W35603   9.911  11.891   0.124  0.1276 -0.0680  0.1758
19343W        W35604  10.395   4.172  12.848  0.0911  0.0307  0.1538
19344W        W35605   3.339   1.384   5.218  0.2644 -0.1199 -0.0747
19345W        W35606  15.401   8.701  14.314  0.0282 -0.0557  0.2692
19346W        W35607   3.642  12.006  10.583 -0.2093  0.0524  0.0987
19347W        W35608  17.201  16.894  11.876 -0.3661  0.1690 -0.0549
19348W        W35609  10.043   2.887   3.805 -0.2167  0.3019 -0.0425
19349W        W35610   6.790  13.890   3.102  0.2520  0.0021  0.1345
19350W        W35611   4.390   3.628   1.023  0.2677  0.1182  0.0114
19351W        W35612  17.681  10.107  12.824 -0.0959  0.1249 -0.3517
19352W        W35613   0.764   9.728  13.062 -0.0319 -0.1699 -0.1336
19353W        W35614  10.631  11.000  12.660  0.3322 -0.0948 -0.0419
19354W        W35615  12.544   8.618   4.724  0.2330 -0.1827  0.1843
19355W        W35616   5.597  14.212   5.438 -0.0973 -0.0901 -0.1463
19356W        W35617   3.489   7.492  13.342  0.5285  0.2170 -0.2862
19357W        W35618  12.780  13.613  11.522  0.0245 -0.2004 -0.0601
19358W        W35619   6.791  13.397   2.671  0.2709 -0.0625 -0.1900
19359W        W35620   1.260  16.769  11.834 -0.1765 -0.0370 -0.5904
19360W        W35621  14.903  14.720  12.751  0.2317  0.0317  0.0489
19361W        W35622   7.232  13.576   4.915  0.0788  0.1103  0.0658
19362W        W35623  15.342  18.271   8.762  0.2032  0.0593 -0.0491
19363W        W35624  14.921   8.145  13.585  0.0160 -0.1837  0.1943
19364W        W35625   0.857   8.026  12.174 -0.3897 -0.5376  0.0617
19365W        W35626  11.860   9.293  14.501  0.0913 -0.0232  0.2399
19366W        W35627  16.900  17.762  10.176  0.0499 -0.3455  0.2010
19367W        W35628  11.578  11.300  11.351  0.0170  0.1383 -0.0363
19368W        W35629   0.233  11.551  13.544  0.0931 -0.2548  0.0339
19369W        W35630  10.430   9.162  14.833 -0.1006 -0.0247  0.0769
19370W        W35631   2.617  16.031   5.929  0.0213  0.0117  0.2228
19371W        W35632  15.938   7.883   2.080  0.1488 -0.0185 -0.0972
19372W        W35633   7.585   1.281   3.908 -0.1715 -0.2557  0.1272
19373W        W35634   4.459   9.816   5.618 -0.0684 -0.0033  0.1201
19374W        W35635  14.468  19.376   4.206 -0.4961  0.1143 -0.1216
19375W        W35636  12.639   8.500  10.625 -0.0825  0.5087 -0.1165
19376W        W35637   2.293   7.523  14.806  0.2635  0.0319 -0.1472
19377W        W35638  19.133   9.017   9.537  0.0355  0.2375 -0.1310
19378W        W35639   9.202   6.514  11.062  0.0115  0.3355  0.1748
19379W        W35640   0.558   6.011   3.100 -0.3907 -0.2509  0.0296
19380W        W35641   7.579   4.301  14.448  0.1081 -0.2995  0.0008
19381W        W35642  11.772  18.854   4.255  0.2541 -0.1179 -0.0523
19382W        W35643   5.119   8.037  10.754 -0.1263  0.1190 -0.1339
19383W        W35644  19.340  10.368   0.688 -0.1191 -0.1786 -0.0359
19384W        W35645  14.479  15.192  11.954  0.0569 -0.0880 -0.1925
19385W        W35646  16.775  15.639  10.244 -0.2027  0.1829  0.2283
19386W        W35647  15.530   5.013  12.377 -0.2737 -0.3646  0.0143
19387W        W35648   1.559  16.440   2.754  0.2309  0.1575 -0.0623
19388W        W35649  13.396  12.534   0.469 -0.0108  0.0674 -0.0393
19389W        W35650  16.765   5.104   0.836  0.0558  0.1902  0.1171
19390W        W35651  17.387  18.536  12.827 -0.1840  0.1547 -0.1936
19391W        W35652  15.098   1.496  13.127  0.3122 -0.2059 -0.0650
19392W        W35653   9.149   8.742  11.055  0.3373  0.1462  0.1456
19393W        W35654   1.727   6.284   3.291  0.1773 -0.0556  0.1675
19394W        W35655  15.803   8.751   4.890  0.0312  0.1802  0.0570
19395W        W35656   9.704  10.497  10.158 -0.0742  0.3465  0.2433
19396W        W35657   3.021   2.086  12.605  0.2352 -0.1081  0.0771
19397W        W35658  18.032   9.909  14.183 -0.1874 -0.1817 -0.0342
19398W        W35659  11.271  13.215   2.454 -0.1678  0.2371 -0.2869
19399W        W35660  14.365   0.076  12.017 -0.0894 -0.0193  0.3862
19400W        W35661  13.831   8.768   4.259  0.2338  0.1999 -0.2334
19401W        W35662   5.749   4.656   2.315 -0.0008  0.1020 -0.0014
19402W        W35663   9.534  12.941  12.375  0.2576 -0.2171 -0.0230
19403W        W35664   5.155   4.826   1.666  0.2903  0.0088  0.2584
19404W        W35665  10.054   3.849   1.575 -0.0135  0.0516 -0.0286
19405W        W35666   4.360  12.741   3.896 -0.1459 -0.0136 -0.1098
19406W        W35667   0.621  17.320  12.752  0.1428 -0.0912  0.1094
19407W        W35668   3.105   7.862   4.539  0.0377  0.0628  0.1009
19408W        W35669   3.233  11.687   0.710 -0.0983 -0.0252 -0.0150
19409W        W35670   0.718   0.316   2.902  0.2905 -0.1732  0.3622
19410W        W35671   5.297   9.326  10.985 -0.2189 -0.0481 -0.0510
19411W        W35672  13.367   5.467  13.876  0.4653 -0.4445 -0.1319
19412W        W35673   2.049   1.080   1.343  0.2887  0.2308 -0.0674
19413W        W35674   3.398  18.713   0.046  0.0993  0.2622 -0.1794
19414W        W35675   2.832  16.052  13.946  0.5040 -0.0203  0.6176
19415W        W35676   6.746  17.362  11.121 -0.0985 -0.2621 -0.4107
19416W        W35677  11.962   7.638  11.697  0.2696 -0.1829  0.0081
19417W        W35678   0.310  14.224   0.835  0.3642 -0.0293 -0.0963
19418W        W35679  15.763   2.633   0.545  0.1636  0.2334 -0.1367
19419W        W35680   9.465   4.348   2.302 -0.0782 -0.2197 -0.0052
19420W        W35681   8.203   1.934   1.380 -0.1484 -0.3276  0.2009
19421W        W35682  13.250  18.062  10.510 -0.3603  0.1017  0.0719
19422W        W35683   2.946   5.173  10.138 -0.0028  0.1909  0.0550
19423W        W35684  10.480   2.512  14.822 -0.2756 -0.0320 -0.1088
19424W        W35685   2.135  14.152   3.725  0.3744 -0.0466 -0.1255
19425W        W35686  12.958  19.034  13.502  0.2082  0.2521  0.1199
19426W        W35687   0.483  11.704   2.481 -0.2905 -0.0134  0.0413
19427W        W35688   8.103  15.077   0.663  0.2303  0.0970 -0.0439
19428W        W35689   8.080  15.519  10.510 -0.0492 -0.0146 -0.0817
19429W        W35690   6.498   3.553  13.691 -0.0909 -0.0861 -0.1165
19430W        W35691   9.823  14.421  11.150  0.3053  0.1522 -0.1094
19431W        W35692   7.949   0.976   9.904  0.0005 -0.1299  0.1839
19432W        W35693  10.404  10.749  13.340  0.2551  0.3134 -0.0919
19433W        W35694   6.687  12.915  11.967  0.0373  0.3225  0.3165
19434W        W35695  17.146  10.971  11.377  0.3977  0.2845  0.0717
19435W        W35696   1.084   3.918   2.966  0.2397 -0.1777 -0.4172
19436W        W35697  17.347  15.220   1.938  0.1191  0.0894 -0.0881
19437W        W35698   6.665   7.966  14.322 -0.1356  0.4501  0.2876
19438W        W35699  19.299  10.022  11.098  0.4286  0.0773  0.3072
19439W        W35700   8.986  11.150   3.455 -0.2608  0.2965 -0.1673
19440W        W35701  10.033   6.407   0.326  0.1641 -0.0896 -0.0827
19441W        W35702   9.099   9.589  12.869 -0.0340  0.1474  0.1958
19442W        W35703   7.397   2.368   3.412  0.2455 -0.2324 -0.0504
19443W        W35704   4.716   0.106   2.915 -0.0930  0.2898 -0.0123
19444W        W35705   8.177  16.537   2.912 -0.0221  0.1755 -0.3025
19445W        W35706  11.820   2.018  11.141  0.1845 -0.2092 -0.0064
19446W        W35707   6.980   4.935  13.949  0.1090 -0.0033  0.2898
19447W        W35708  10.537  10.677  13.853 -0.0384 -0.0504 -0.0703
19448W        W35709  18.981  16.525  13.719 -0.0893 -0.0343 -0.0884
19449W        W35710  14.385  13.100  12.649 -0.0146  0.2037 -0.2772
19450W        W35711   1.153  17.064   4.454  0.1854 -0.0939  0.3426
19451W        W35712  16.464  12.111  13.977 -0.3250 -0.1787 -0.1250
19452W        W35713  10.517  12.405  13.378 -0.1875  0.3172  0.0345
19453W        W35714  14.490   2.478  14.620  0.4606  0.1527 -0.1005
19454W        W35715  14.673  10.898  13.853  0.1048  0.2696 -0.0139
19455W        W35716  18.014   0.396   3.591 -0.2116 -0.0945 -0.1747
19456W        W35717   4.411   6.509   3.562 -0.1293  0.0039 -0.0220
19457W        W35718   7.244  15.363  12.810  0.4801 -0.1044  0.1307
19458W        W35719  15.025   3.550   3.459  0.1637  0.1527 -0.2147
19459W        W35720   1.226  13.619  12.594  0.0220 -0.2406  0.3271
19460W        W35721  16.563   3.587  13.897 -0.1738 -0.0145 -0.0242
19461W        W35722   6.644   3.942   1.986 -0.4474  0.0535  0.1565
19462W        W35723   3.427   8.526  13.371 -0.1019  0.1561  0.3471
19463W        W35724   9.831   9.389   4.494 -0.3813  0.1673 -0.1315
19464W        W35725   8.426  12.236   9.667 -0.2678  0.4159  0.0463
19465W        W35726   2.051   4.266   4.024  0.1228 -0.3089 -0.1170
19466W        W35727  13.185   9.607   4.319 -0.0848 -0.2455  0.4673
19467W        W35728  15.670   3.467  12.476 -0.0737  0.0116  0.1958
19468W        W35729   4.127  16.047  12.058 -0.0145 -0.2513  0.1571
19469W        W35730   0.959  15.432   3.642 -0.1283  0.0367 -0.3991
19470W        W35731  11.985  18.970   1.440  0.0133 -0.2776  0.2325
19471W        W35732   7.869  11.020  14.284  0.0059  0.1343  0.2893
19472W        W35733   2.522   5.051  14.542 -0.1182 -0.2556 -0.2001
19473W        W35734   8.437  18.011  13.279 -0.0602  0.1009 -0.1059
19474W        W35735   1.768  10.826   4.255  0.3444 -0.2593  0.0679
19475W        W35736  16.575  11.374   4.950  0.3070  0.0027 -0.0358
19476W        W35737   8.862  10.568  10.994  0.2519 -0.1934  0.0965
19477W        W35738   6.082  15.934  14.648 -0.1661  0.0224 -0.1780
19478W        W35739  15.522  10.636   0.754 -0.2159 -0.0651 -0.0522
19479W        W35740   6.921   4.104  12.249 -0.0449  0.0186  0.1255
19480W        W35741   4.667   4.748  12.753 -0.2110 -0.0347  0.2429
19481W        W35742  12.991   7.430  14.007 -0.1950  0.0319 -0.1646
19482W        W35743  12.950  16.943   2.957 -0.3609 -0.0880 -0.3977
19483W        W35744   6.227  16.565  11.499 -0.1473 -0.2048  0.1702
19484W        W35745  13.641   8.201   1.993 -0.0614 -0.4640 -0.1745
19485W        W35746  18.156   3.945   3.734 -0.0817 -0.0162  0.0848
19486W        W35747  12.624  13.023   3.470 -0.0214  0.0831  0.1960
19487W        W35748   5.342  18.480  12.434  0.0685  0.0498  0.1661
19488W        W35749   0.972  12.248   9.931  0.0440  0.0486  0.2868
19489W        W35750   0.827  15.889  10.768  0.0182  0.1002  0.0882
19490W        W35751   0.151   0.560   2.917 -0.1077  0.2859  0.1311
19491W        W35752   3.636  16.699   9.592 -0.0156  0.0436 -0.0972
19492W        W35753   1.813   8.961   1.819 -0.1554  0.0311 -0.1262
19493W        W35754   6.395   1.757  11.929 -0.2729 -0.1138 -0.1283
19494W        W35755   5.929  16.623  10.645 -0.2159  0.0095 -0.0629
19495W        W35756  12.612   8.509   2.734 -0.1421  0.2106  0.0536
19496W        W35757  18.837   7.284   3.755  0.1909  0.2762 -0.0984
19497W        W35758   9.505  11.393  12.154  0.0627 -0.0236 -0.1163
19498W        W35759  16.589   2.855   1.616  0.0654  0.1381 -0.1093
19499W        W35760   5.742  13.693  13.112  0.3425  0.0007  0.1696
19500W        W35761  14.481  17.931   9.635  0.2309  0.2676 -0.2297
19501W        W35762  12.408   0.951  14.322  0.0828  0.2712 -0.1370
19502W        W35763  16.432  13.881  10.152  0.0312 -0.1713 -0.1340
19503W        W35764   6.757   0.723   4.862 -0.0100 -0.0845 -0.1099
19504W        W35765  10.999   2.662  11.751 -0.2660  0.0920 -0.2079
19505W        W35766  11.084   8.810   0.112  0.1638  0.1043 -0.4405
19506W        W35767  13.044  17.783  12.020  0.1661  0.0080 -0.3243
19507W        W35768  12.492   9.116  13.324  0.2667  0.2853  0.4841
19508W        W35769  13.322  15.731  13.340 -0.1817  0.0418 -0.0334
19509W        W35770  12.019   5.741  10.464  0.0735  0.0456  0.1849
19510W        W35771  11.923  18.420   3.937 -0.0102  0.0661 -0.0675
19511W        W35772  11.567   5.223   3.605  0.0865  0.1215  0.1845
19512W        W35773  14.745   7.933   3.435  0.0322  0.0442  0.0036
19513W        W35774   5.697   5.248  10.852 -0.0580 -0.4248 -0.1579
19514W        W35775  14.169  17.388   1.726  0.1363 -0.1545  0.1833
19515W        W35776   4.386   0.932   3.511  0.0742  0.0835 -0.0154
19516W        W35777  12.932   9.444  10.593 -0.0711  0.3325 -0.0735
19517W        W35778   8.266  16.826   2.039  0.1032  0.0449 -0.2315
19518W        W35779  15.431  19.332   3.515 -0.0627  0.3146 -0.0401
19519W        W35780  14.199   7.192   3.443 -0.0077  0.3266 -0.0324
19520W        W35781   8.678  13.116   0.699 -0.0601 -0.2333 -0.2178
19521W        W35782   7.406  14.609  11.655  0.0067  0.1401 -0.3585
19522W        W35783   3.327   3.458   1.644 -0.0930 -0.2660 -0.1375
19523W        W35784   6.560   9.969  13.291 -0.3947 -0.6277 -0.1465
19524W        W35785   3.248   1.971   2.391  0.0187 -0.2878  0.0217
19525W        W35786   3.592  19.257  13.907  0.0240  0.0690 -0.0235
19526W        W35787   3.445  13.546   2.508 -0.1755 -0.0168  0.2968
19527W        W35788  19.172  13.040  10.403 -0.1552  0.2255 -0.2082
19528W        W35789   2.474   1.903  13.850 -0.0847  0.1080  0.2431
19529W        W35790   6.969   3.392  12.915 -0.0810  0.1699  0.1635
19530W        W35791  11.659   8.400   1.788 -0.0531 -0.0518 -0.1338
19531W        W35792   0.058  12.258   4.616 -0.2251  0.2425  0.0459
19532W        W35793  18.596  14.847  14.478 -0.0155  0.0566  0.0312
19533W        W35794  15.157  16.641   0.608 -0.0475 -0.4699 -0.0222
19534W        W35795   3.497  10.532   3.630  0.0227 -0.0177 -0.0639
19535W        W35796  19.206   1.094  12.262  0.0371 -0.3319 -0.1807
19536W        W35797  18.011  17.134  11.174 -0.0684  0.2285  0.1674
19537W        W35798   4.224  18.292   4.394 -0.1154  0.1703 -0.0129
19538W        W35799  19.175  15.130  13.953  0.2298  0.0399  0.4823
19539W        W35800  18.150  13.648   1.016  0.0762 -0.0656 -0.2184
19540W        W35801   0.044  16.307  14.647 -0.1851  0.0802  0.0887
19541W        W35802  15.938   1.589   2.361 -0.1105 -0.0919 -0.0227
19542W        W35803  12.608  17.820   2.004 -0.2188 -0.0457 -0.0146
19543W        W35804  19.012   4.574   2.238  0.0872  0.0006 -0.0354
19544W        W35805  16.118  13.089   2.627  0.2324 -0.1790 -0.0981
19545W        W35806   6.232   3.040   1.816 -0.0496  0.0627  0.0380
19546W        W35807   8.930  10.319   4.740 -0.3917  0.0888 -0.0816
19547W        W35808  18.339  10.184   1.446  0.2730  0.2345 -0.1515
19548W        W35809   8.075  10.534   3.157  0.3331  0.2235  0.1354
19549W        W35810   2.112  17.705   4.569 -0.1193  0.0021  0.1114
19550W        W35811  17.125   3.219  11.714 -0.4501 -0.1895  0.1186
19551W        W35812  19.427  10.572  11.693 -0.1739 -0.2777 -0.0755
19552W        W35813   8.088  18.932  12.449  0.1956  0.0004  0.0077
19553W        W35814  16.914   0.178   3.858 -0.0228  0.0087  0.2076
19554W        W35815  19.341   1.652   0.892 -0.0095  0.3298  0.0598
19555W        W35816   9.861  16.418  12.902  0.5379 -0.0632 -0.0590
19556W        W35817   3.546   7.135  11.712 -0.0388  0.1745 -0.5248
19557W        W35818  14.548   1.258  12.837 -0.2716 -0.4607 -0.0891
19558W        W35819   0.900   0.104  13.450 -0.3436 -0.0316  0.4558
19559W        W35820   0.723  12.355   4.305  0.1239 -0.0970 -0.3377
19560W        W35821  12.282   1.794  10.221  0.2074 -0.2513 -0.2947
19561W        W35822  11.376  11.027  10.972  0.1551  0.0107 -0.1596
19562W        W35823  14.489  14.953   9.801  0.1997 -0.4585 -0.3584
19563W        W35824   2.430   8.270  11.009  0.0266  0.2087  0.0384
19564W        W35825  16.671  12.484  10.130  0.0060 -0.1357  0.1312
19565W        W35826   2.851   3.911  12.327 -0.4063  0.0640 -0.0808
19566W        W35827   6.248  18.275   1.251  0.2998 -0.0138 -0.2937
19567W        W35828  17.856  12.699   1.218  0.0443  0.1844 -0.1328
19568W        W35829  11.802  17.514  12.415 -0.0769  0.1867 -0.2675
19569W        W35830  17.700  11.730  12.349 -0.1276 -0.1411 -0.3011
19570W        W35831   1.378   5.556   1.019  0.0675  0.2184 -0.1357
19571W        W35832  16.703   2.225   4.253 -0.3507  0.0683  0.2201
19572W        W35833  12.978  13.824  13.296 -0.0623  0.1644  0.3013
19573W        W35834  15.093  18.954   4.204  0.0603  0.0144 -0.0960
19574W        W35835  15.995   3.954   4.892 -0.0271 -0.1081  0.4184
19575W        W35836   9.178  17.330  14.415  0.0835  0.0421  0.0797
19576W        W35837   0.987   2.187  14.789  0.0425  0.0028 -0.2752
19577W        W35838  13.988  18.840  12.791 -0.2367 -0.1650 -0.3731
19578W        W35839  10.435  10.528   1.482  0.2646 -0.1615  0.2068
19579W        W35840  18.099   4.059  14.333  0.0968  0.0700  0.0375
19580W        W35841  12.725  16.667  14.492  0.3677  0.0353 -0.2210
19581W        W35842  16.199  16.612   9.586  0.0583  0.1040 -0.0560
19582W        W35843   6.396   9.170  13.856 -0.2723 -0.2592 -0.3099
19583W        W35844   2.655  17.736  12.123 -0.1712  0.3004  0.5970
19584W        W35845   4.240   3.739   1.709  0.0891  0.0855 -0.1252
19585W        W35846   2.998   5.630   4.917 -0.1451  0.1826 -0.2468
19586W        W35847   0.891  10.566  14.668 -0.0857 -0.3970  0.1932
19587W        W35848   9.370   9.145  12.940  0.2455  0.0881 -0.0277
19588W        W35849  14.101   2.530   1.060  0.3135  0.1514  0.0250
19589W        W35850  17.958  13.074  10.525  0.1714  0.2314  0.0110
19590W        W35851  18.403   5.684   3.751 -0.0728  0.1524  0.3295
19591W        W35852  11.636  10.166  11.486 -0.0453 -0.3379 -0.2170
19592W        W35853   5.132  18.771   0.525  0.2642 -0.1959 -0.1675
19593W        W35854  11.028  12.039  12.668  0.1196  0.1034 -0.1661
19594W        W35855   1.879   9.656  12.297  0.0881 -0.4410 -0.0401
19595W        W35856  11.457  17.086  10.464 -0.0101 -0.0700 -0.0346
19596W        W35857  15.434  15.355   5.552 -0.2483  0.1874 -0.0078
19597W        W35858   7.277  14.439   0.252 -0.2968 -0.2475  0.2529
19598W        W35859  11.934  17.372  13.339 -0.0550  0.0639 -0.2444
19599W        W35860  12.161  10.278   3.012  0.1331 -0.1243 -0.3273
19600W        W35861  10.330   3.577  10.961 -0.0986  0.0427 -0.0287
19601W        W35862   8.048   5.494   1.616 -0.1282  0.1424  0.2778
19602W        W35863   2.283   5.315   0.548 -0.2147  0.1939  0.0254
19603W        W35864  12.752   1.951  11.088  0.2297  0.2713  0.0097
19604W        W35865   6.975   1.540   2.283  0.2983  0.0607  0.3306
19605W        W35866   7.088  19.265   0.781 -0.0562  0.0836  0.1032
19606W        W35867   4.367   8.687   4.071  0.3826 -0.1286  0.1603
19607W        W35868  15.061   9.934   3.310  0.2071  0.3244 -0.2158
19608W        W35869  18.774  14.007  12.689  0.3858 -0.2978 -0.0096
19609W        W35870  11.401   0.473  13.789 -0.1400 -0.0692  0.1966
19610W        W35871   9.620   2.275   4.223 -0.4099 -0.0508  0.4423
19611W        W35872   5.340  15.449   3.632 -0.2753 -0.0571 -0.0879
19612W        W35873  14.730   7.423   3.497 -0.0281  0.1120  0.0496
19613W        W35874  18.253   0.915   5.472  0.4386  0.2051  0.1684
19614W        W35875   8.681  12.602   1.694 -0.3889 -0.1424  0.0593
19615W        W35876   8.734   9.205   2.574 -0.0975  0.0908  0.0263
19616W        W35877   1.014   1.826   1.035  0.0179  0.0680 -0.2446
19617W        W35878  16.864  11.533  10.546  0.4573 -0.0849 -0.0604
19618W        W35879   5.672   5.351   4.426  0.1792  0.3801  0.0477
19619W        W35880   9.941  18.440   3.752 -0.0673 -0.1148  0.0233
19620W        W35881  16.548   2.037   3.209  0.4308  0.1699 -0.0713
19621W        W35882   6.631   1.880   3.179 -0.2976 -0.2969 -0.2327
19622W        W35883  14.080  11.620   2.115  0.1354 -0.2064 -0.0326
19623W        W35884  10.072   6.201   4.719  0.0838  0.2867  0.3115
19624W        W35885   5.738   2.479   0.641 -0.2628  0.1292 -0.1142
19625W        W35886  18.270   7.698  12.392  0.1411 -0.1090 -0.4069
19626W        W35887   1.200  12.110   1.703  0.0732  0.0911  0.2027
19627W        W35888  11.495   5.506   3.154 -0.0229  0.1511  0.2360
19628W        W35889   1.895  10.832  11.864 -0.0100 -0.1880 -0.1733
19629W        W35890   1.726  18.104  13.057 -0.0111 -0.0188  0.0585
19630W        W35891   9.356   8.482   0.936  0.0746  0.2033  0.1381
19631W        W35892  13.008  14.073   0.160 -0.0474 -0.0205 -0.0621
19632W        W35893  17.348  16.521   1.668 -0.0614  0.0806 -0.0611
19633W        W35894  19.037  10.867  13.689  0.2189  0.2545 -0.1436
19634W        W35895   4.731   2.609  13.115 -0.1294 -0.2857  0.0412
19635W        W35896  13.532  13.585   1.328 -0.2994 -0.3667 -0.4579
19636W        W35897  16.461  13.961  12.069 -0.2077 -0.3994  0.2293
19637W        W35898   7.095   7.453  13.472 -0.2589 -0.3241 -0.3464
19638W        W35899   4.954   1.800   2.331  0.0170 -0.4113 -0.2488
19639W        W35900   0.023  11.144  13.418  0.2742  0.1521 -0.2855
19640W        W35901  11.525  17.496  12.935 -0.2180 -0.0196  0.2560
19641W        W35902   7.636  18.448   3.420  0.1670 -0.0777  0.1649
19642W        W35903   9.256  17.063   2.967  0.1348  0.1793 -0.1690
19643W        W35904   5.685   4.519   1.881 -0.1913  0.0794  0.0576
19644W        W35905   6.722   2.961  12.822  0.3831 -0.0766  0.1113
19645W        W35906   6.836  11.290   3.428  0.6251 -0.0467 -0.1383
19646W        W35907  12.270  12.149   0.897 -0.0436  0.0607  0.0409
19647W        W35908  16.360  16.258  14.494  0.2506  0.1617 -0.1835
19648W        W35909  11.462   4.815  14.491  0.1699 -0.0045  0.1033
19649W        W35910   4.464   3.283   2.454  0.0716 -0.0921 -0.1764
19650W        W35911  11.357  12.494   3.355  0.2456 -0.1942  0.0729
19651W        W35912  16.564   1.263  10.022 -0.2240 -0.2565 -0.0179
19652W        W35913   3.852   6.412   2.867 -0.0364  0.0207 -0.1970
19653W        W35914  10.924  16.313   0.596 -0.2261 -0.0746 -0.1730
19654W        W35915  14.307  19.318   5.195  0.0235 -0.1267  0.1379
19655W        W35916  16.627   7.031  11.751 -0.0712 -0.0899  0.0686
19656W        W35917  16.245  16.074   0.702 -0.0942 -0.0661 -0.1634
19657W        W35918  16.824   0.591   5.010 -0.1372  0.2766  0.0580
19658W        W35919   1.262  19.324   4.847  0.0893 -0.0528  0.0367
19659W        W35920  18.964  11.385   1.538  0.1771  0.2393 -0.2464
19660W        W35921  14.443   6.950  14.085 -0.0548  0.2409 -0.0510
19661W        W35922  13.668   8.175  10.354  0.1973 -0.1047  0.1917
19662W        W35923  17.046   8.356  14.246  0.2626  0.1607  0.2106
19663W        W35924   1.291  14.446   5.298  0.5196 -0.0736  0.1553
19664W        W35925  15.671   4.558  12.214  0.0377 -0.2586 -0.3055
19665W        W35926   1.144  17.433  12.703 -0.1229  0.1048  0.1438
19666W        W35927  13.848  13.126  10.897  0.1361  0.0923 -0.0838
19667W        W35928  13.639   6.173  10.369  0.1698  0.0203 -0.1503
19668W        W35929  15.720   9.900  14.389 -0.1072 -0.2898 -0.2530
19669W        W35930  11.380   6.146   0.890 -0.0149  0.1515 -0.3443
19670W        W35931  18.492   5.999   2.822 -0.1129  0.2139 -0.0773
19671W        W35932  18.334  13.695  13.905  0.0404  0.1454 -0.0456
19672W        W35933  10.703  10.323  12.377 -0.0362 -0.1583  0.1335
19673W        W35934  18.096  11.803  10.999  0.0750 -0.0561  0.0428
19674W        W35935   1.907   1.802   0.762  0.0015 -0.1039  0.0387
19675W        W35936   9.796   6.798  12.949  0.1836  0.1584 -0.1068
19676W        W35937  16.728  15.960   0.662 -0.1428  0.3360  0.0117
19677W        W35938   5.264   4.616  14.094 -0.3714 -0.2882 -0.0036
19678W        W35939   7.247  16.754  13.444 -0.0757  0.0402 -0.0675
19679W        W35940   4.187  11.022   3.573 -0.0718 -0.2157  0.0227
19680W        W35941   1.668   5.342   4.427  0.3708 -0.1631  0.3281
19681W        W35942   6.609  16.652  11.837  0.3549  0.0320 -0.3958
19682W        W35943   6.670   5.407  13.960  0.1491  0.2753 -0.1009
19683W        W35944   2.244   0.843   3.776  0.0203 -0.1266  0.1595
19684W        W35945  15.739   1.361   4.350 -0.0732 -0.2558 -0.1290
19685W        W35946   6.561   7.282   2.000  0.0164  0.1260  0.1140
19686W        W35947   6.198  16.720  14.308 -0.4019 -0.0927  0.0079
19687W        W35948  14.913   3.925   3.745  0.3257 -0.0451 -0.1134
19688W        W35949  13.744  11.106   2.199 -0.0018  0.0474 -0.2237
19689W        W35950   8.831   7.045  14.176  0.3178  0.2189  0.1177
19690W        W35951   1.921   1.498   2.212  0.0722 -0.7540  0.1365
19691W        W35952   2.923  17.495   1.136 -0.2146  0.1776  0.1236
19692W        W35953  12.218   7.821   0.356 -0.3461  0.1567  0.1788
19693W        W35954   2.296   0.370   3.928 -0.1414 -0.0498  0.2221
19694W        W35955   2.230   7.766   3.364  0.1862  0.1259 -0.2240
19695W        W35956  13.998   0.517  11.925  0.3681 -0.1308  0.2965
19696W        W35957   6.118  13.234   4.090 -0.2575 -0.0857  0.0070
19697W        W35958   9.779  17.838   4.068 -0.1119 -0.1406 -0.2668
19698W        W35959  10.205  10.375  14.088 -0.1334 -0.3236 -0.0695
19699W        W35960  10.318  13.180  11.654  0.0675 -0.1381 -0.1321
19700W        W35961   0.970  12.459   1.299  0.2577 -0.0574 -0.0661
19701W        W35962   2.991  18.918   0.367  0.2995 -0.2030  0.1558
19702W        W35963   6.180  14.108   1.075 -0.0970  0.1947  0.0324
19703W        W35964   9.986   3.893   3.956  0.0594 -0.2010 -0.0918
19704W        W35965  16.563   4.749   0.201 -0.1717  0.2203  0.1556
19705W        W35966   0.432  18.016   4.972 -0.0048 -0.0404  0.1592
19706W        W35967   7.786   6.756   2.171  0.0057 -0.3206 -0.2934
19707W        W35968   5.037  12.974   2.520  0.4020  0.1342 -0.3021
19708W        W35969   4.111   3.345   0.471  0.0570  0.3323 -0.1456
19709W        W35970   3.339  11.926  11.058 -0.4452  0.1060 -0.2116
19710W        W35971   9.606  12.879  14.032  0.1006  0.2749  0.2158
19711W        W35972  12.258   2.003   1.523 -0.0246  0.1036 -0.3585
19712W        W35973   6.697   9.824   3.616 -0.0907  0.0491  0.0860
19713W        W35974   1.806  14.008   1.608  0.0569  0.0181  0.0457
19714W        W35975  11.625  15.243  11.074  0.2015  0.0896  0.1453
19715W        W35976  18.802   3.916   2.898  0.1161  0.0357  0.5507
19716W        W35977   8.923  18.045  13.208 -0.0411 -0.0453  0.0097
19717W        W35978   9.016   7.894  14.613 -0.0286  0.2055  0.1918
19718W        W35979  12.965   0.671  12.154  0.2907  0.2416  0.0185
19719W        W35980  18.084   7.063  13.248  0.0732 -0.2324 -0.0642
19720W        W35981   1.991   7.441  13.544  0.2852 -0.3155  0.3894
19721W        W35982   0.264   8.516  10.901 -0.6466  0.3342  0.2512
19722W        W35983  11.591  14.288  10.918  0.0676 -0.3224 -0.1649
19723W        W35984   9.861  16.850  11.042 -0.0236 -0.2750 -0.1580
19724W        W35985  12.170   9.233   4.092 -0.1244  0.0284  0.0847
19725W        W35986  14.939   7.423   1.675  0.0316  0.2542 -0.1092
19726W        W35987   1.608  13.046  12.685  0.3635 -0.1076 -0.0397
19727W        W35988   8.622  19.045  11.736 -0.1794 -0.3129  0.0721
19728W        W35989  11.019  19.004   1.057  0.2867  0.0954 -0.1547
19729W        W35990  11.525   3.599  14.641 -0.0392 -0.3026 -0.0328
19730W        W35991   5.519  10.616  11.187 -0.0802 -0.0666  0.1962
19731W        W35992   8.620   1.470   3.454  0.0528 -0.3673  0.0101
19732W        W35993  14.100   4.046  11.170  0.0644  0.3294  0.0913
19733W        W35994  17.040   2.107   5.341 -0.0464 -0.0593 -0.0463
19734W        W35995   6.598   1.174   4.386  0.2242 -0.1487  0.1549
19735W        W35996   1.797   9.781   2.543  0.4990 -0.0625 -0.0007
19736W        W35997  16.736   0.700  14.194  0.0672 -0.2524 -0.0622
19737W        W35998   5.942   6.036  11.195  0.2071 -0.1524  0.1266
19738W        W35999  18.090  11.385   2.503 -0.0719  0.0869  0.0735
19739W        W36000   9.644  18.046  10.099 -0.0171  0.1942 -0.5720
19740W        W36001   1.791  18.713  11.240 -0.3460  0.0052  0.0912
19741W        W36002   5.598  13.363   4.168 -0.0754 -0.0502  0.1543
19742W        W36003  15.300  13.001  12.956  0.1599  0.1004 -0.4335
19743W        W36004  13.693  13.077  10.364 -0.0199 -0.2296 -0.0478
19744W        W36005   5.919   3.693   3.449 -0.2221  0.2625  0.1196
19745W        W36006   7.561  16.134   1.215  0.2589  0.0362  0.3040
19746W        W36007  17.583   7.514  11.655  0.2735 -0.0134 -0.0113
19747W        W36008   4.737   3.229  13.771  0.1867 -0.0954  0.2348
19748W        W36009   3.031   0.476  13.754  0.0287 -0.0448 -0.3104
19749W        W36010  11.225  12.736   0.346 -0.0905 -0.0486  0.3360
19750W        W36011   6.519  10.301  10.378  0.0539  0.0832 -0.2938
19751W        W36012  13.524  11.643   2.162  0.1029  0.1949 -0.1566
19752W        W36013  17.504  13.486   4.087  0.3559 -0.0890 -0.2562
19753W        W36014   1.430  18.704   2.281  0.0407 -0.0534  0.1445
19754W        W36015   3.322  10.950  14.620  0.0256 -0.1934  0.1386
19755W        W36016  16.296  10.499  14.035 -0.3108 -0.1478 -0.0513
19756W        W36017  17.022   5.337   1.740 -0.0501  0.0746 -0.1095
19757W        W36018  15.270  10.186  14.031 -0.3289  0.2465 -0.0715
19758W        W36019   3.692   8.167  13.921 -0.2549 -0.3283  0.2162
19759W        W36020  19.239   2.921  14.660 -0.0345 -0.0626 -0.1362
19760W        W36021  14.619  10.542   0.668 -0.0227  0.1635  0.0483
19761W        W36022  18.365   2.642  11.054  0.0309  0.0407 -0.2451
19762W        W36023  17.422  13.366   4.615  0.0301  0.0591  0.3541
19763W        W36024   8.678   5.853   2.717  0.0492  0.3180 -0.1239
19764W        W36025   3.085  12.362  13.935 -0.2029 -0.0262  0.2021
19765W        W36026  12.949   2.503   2.725 -0.1644 -0.2160 -0.0822
19766W        W36027  11.313  10.032   1.603  0.1485  0.1980  0.1284
19767W        W36028  10.909  11.187  14.480  0.0502  0.1040 -0.0848
19768W        W36029  14.096  12.539   1.510  0.0752  0.3023 -0.0201
19769W        W36030   0.350   9.090  10.799  0.0385  0.0220 -0.2526
19770W        W36031   5.919  13.069  12.622  0.2932 -0.0626  0.0259
19771W        W36032  13.007   2.577   1.272  0.1036  0.0067 -0.1053
19772W        W36033   6.238   4.565   1.296  0.1916 -0.0805  0.0991
19773W        W36034   8.379  17.135  10.388 -0.5866 -0.2860  0.2701
19774W        W36035  10.229   1.307   3.428  0.1440 -0.1914  0.0219
19775W        W36036  17.173   0.456  11.514 -0.3090  0.0953 -0.2174
19776W        W36037   0.727   9.501   0.563  0.0323  0.2502 -0.3152
19777W        W36038   7.914  15.424   0.037  0.2145 -0.0465  0.2199
19778W        W36039  18.160   5.493  12.249  0.0903  0.1426 -0.1124
19779W        W36040   6.216   3.226   4.352  0.1654  0.0524  0.1538
19780W        W36041   3.480  19.315  11.525  0.0808  0.0056 -0.3198
19781W        W36042  11.796  11.323   2.334 -0.1188  0.0324  0.2746
19782W        W36043   0.610  16.563   4.049  0.0934 -0.1049  0.0730
19783W        W36044   1.684  15.037   1.625  0.2116  0.3224 -0.0500
19784W        W36045  13.814   8.448   3.381 -0.1807 -0.2126 -0.1979
19785W        W36046   3.623  12.615   0.437 -0.0009 -0.1413  0.1711
19786W        W36047   0.115  18.443   9.631 -0.2413  0.0312 -0.2159
19787W        W36048  11.257  18.377  12.011  0.3907 -0.2142  0.2427
19788W        W36049  15.866   9.883  11.787  0.0128  0.0027 -0.0480
19789W        W36050  15.773   3.587   4.556  0.0285 -0.0221  0.0023
19790W        W36051  10.245   3.520   2.937  0.1275  0.0875 -0.1604
19791W        W36052  14.023   6.019   9.602  0.1414  0.3051  0.0147
19792W        W36053  18.963   8.583  14.381 -0.0111  0.1338 -0.4251
19793W        W36054  10.818  13.258   2.128  0.0780  0.2216  0.0913
19794W        W36055  18.261   2.910  11.536  0.2335  0.3524  0.2191
19795W        W36056  17.710  10.962   9.454  0.2158 -0.0252  0.2138
19796W        W36057  15.197   9.979   2.217  0.1444  0.0530 -0.0656
19797W        W36058  15.394  18.783  10.103 -0.2417  0.2053 -0.0947
19798W        W36059  14.326   2.121  10.993 -0.1759  0.1247 -0.1779
19799W        W36060  10.513  13.198   1.298  0.0887 -0.1948 -0.0233
19800W        W36061  18.757   8.416   3.989 -0.0130  0.0383  0.1841
19801W        W36062   1.592   2.068   3.678 -0.3537  0.4506 -0.0133
19802W        W36063  13.701  13.651   3.529 -0.0568 -0.1438 -0.1239
19803W        W36064  18.847   1.970   2.099 -0.2237  0.0782 -0.1825
19804W        W36065   6.092   0.464   4.490  0.0994 -0.2022 -0.1158
19805W        W36066  11.569  10.763   3.081  0.2258  0.0240  0.0930
19806W        W36067  11.016  13.334   1.269  0.0996 -0.0325  0.0476
19807W        W36068   0.979  10.111   1.531  0.1750  0.0237  0.4291
19808W        W36069  10.676   2.506  14.313  0.1676 -0.3267  0.1547
19809W        W36070  13.103  10.428   1.659 -0.0302 -0.1503  0.2300
19810W        W36071  19.004   0.309  14.762 -0.0658 -0.1349 -0.0245
19811W        W36072  13.419   5.368  10.679 -0.1381 -0.1087  0.0620
19812W        W36073   8.212  11.384  13.495 -0.0225 -0.3903  0.0861
19813W        W36074   0.946   9.925   3.296 -0.1175  0.0983  0.1236
19814W        W36075   4.576   4.268  13.617 -0.2034  0.1837  0.1115
19815W        W36076   3.440   0.545  13.429  0.0387  0.1072 -0.0211
19816W        W36077  19.429   0.393   4.803 -0.1510  0.3062  0.4017
19817W        W36078   5.451  12.555   1.711 -0.4919  0.2416  0.1434
19818W        W36079   9.919  15.354   4.792  0.1501 -0.0496  0.0955
19819W        W36080   0.476  15.401   2.165 -0.1164  0.1261  0.0294
19820W        W36081   8.853   8.984   3.073 -0.2761 -0.3908  0.1484
19821W        W36082  15.007   8.811  12.299 -0.3731 -0.0548  0.1738
19822W        W36083  16.905   0.599   0.094  0.1401  0.0165 -0.2998
19823W        W36084  16.042   7.639  14.425 -0.0966  0.0535 -0.0648
19824W        W36085   9.699   7.397   0.153  0.0075  0.0919 -0.0910
19825W        W36086   6.262  15.489  13.962  0.0351  0.1708  0.1430
19826W        W36087   6.220   9.188  13.356  0.0462 -0.2945  0.1609
19827W        W36088   5.282  12.924  13.263 -0.1111  0.1527 -0.0108
19828W        W36089  11.304  13.455  11.837  0.1093 -0.3649  0.0197
19829W        W36090  11.472  18.024   2.507  0.0970 -0.0502  0.0045
19830W        W36091  17.535   2.892   2.395 -0.0208  0.3682 -0.0016
19831W        W36092  10.892  11.801   2.178  0.2337 -0.1047  0.3602
19832W        W36093   3.834   4.590  13.843  0.1074 -0.0790 -0.1504
19833W        W36094   2.495  18.984   3.385  0.2805 -0.1074 -0.2097
19834W        W36095  13.583   1.673  10.557  0.1403  0.1813  0.2179
19835W        W36096   4.501  15.588  14.220  0.2464  0.0114  0.3480
19836W        W36097   2.177   9.077  10.298  0.0693 -0.1288 -0.1137
19837W        W36098   8.931  14.184   3.858  0.2330  0.1141 -0.0379
19838W        W36099   9.948  17.347  11.171  0.4666 -0.1783 -0.2412
19839W        W36100  10.746   4.120   2.866  0.2389 -0.0833 -0.2190
19840W        W36101  14.255   7.501   3.963 -0.1365 -0.2697  0.0094
19841W        W36102   3.724  10.664   2.745  0.3353  0.2350  0.1715
19842W        W36103  15.355  18.425  13.814 -0.0214 -0.2967 -0.1066
19843W        W36104   7.532   4.735   2.941  0.1414  0.0240 -0.0463
19844W        W36105   2.793  12.183  12.881  0.0718  0.1736 -0.2523
19845W        W36106   4.137   5.430  11.202  0.2776  0.0469  0.2053
19846W        W36107  11.067  10.770   4.955 -0.1368  0.0078  0.4739
19847W        W36108   2.311  13.750  13.752 -0.3129 -0.0460  0.0399
19848W        W36109   2.956  13.374   4.800 -0.4862 -0.2346 -0.4049
19849W        W36110  16.737   3.404  14.526  0.2922  0.2054 -0.1213
19850W        W36111  19.187  16.962   3.984 -0.0629 -0.2777  0.1905
19851W        W36112  12.629  12.118   0.039  0.0330 -0.2417 -0.3637
19852W        W36113  14.028   7.873  13.611 -0.1440 -0.2253  0.1208
19853W        W36114  14.630   7.236   1.021  0.0059  0.3061 -0.3898
19854W        W36115  16.927  19.243   2.422  0.2161  0.0533  0.4994
19855W        W36116   3.839   4.682  12.217  0.0602 -0.1237  0.0358
19856W        W36117   8.485   7.566   9.461  0.2943  0.1712 -0.0366
19857W        W36118   3.369  16.250  14.849  0.5072 -0.3606 -0.0437
19858W        W36119  18.473  12.386  12.210 -0.2507  0.2223 -0.1666
19859W        W36120   4.733   9.635  13.897  0.1020  0.2448 -0.2527
19860W        W36121  13.630   2.595  11.664  0.2309 -0.1871 -0.0758
19861W        W36122   2.720  15.546  12.567  0.0019 -0.2604 -0.0989
19862W        W36123   0.700   2.466  13.469 -0.3791 -0.1252  0.2200
19863W        W36124   3.968  18.342   1.034  0.2145  0.0775  0.0060
19864W        W36125  17.592   0.747  11.714  0.0431  0.1904 -0.4786
19865W        W36126  11.584   4.977   2.947 -0.3897 -0.3546  0.0653
19866W        W36127   2.966  17.372   3.400 -0.1463 -0.1576  0.1237
19867W        W36128  10.641   4.579  14.151  0.2876  0.4068 -0.0232
19868W        W36129  15.305   8.589   4.890  0.0762  0.1727 -0.0089
19869W        W36130   3.212  17.837  12.254 -0.1753 -0.0857  0.4670
19870W        W36131   1.626  18.464  11.710  0.1519  0.1503  0.3254
19871W        W36132   4.925   7.137  14.252  0.2035 -0.1350  0.3865
19872W        W36133   9.949   6.915  10.137  0.1008  0.3272  0.2162
19873W        W36134   5.307  11.170  14.033 -0.0869  0.0648 -0.1633
19874W        W36135  10.236  18.595  13.289  0.1600 -0.0067 -0.0757
19875W        W36136  15.162  18.191  12.729 -0.2068  0.1123  0.0640
19876W        W36137   0.709   4.493   0.659  0.0634  0.0964  0.4814
19877W        W36138   7.345   2.999  14.671  0.0225 -0.1390 -0.0861
19878W        W36139  11.983  16.224   4.746 -0.0472  0.0916  0.2167
19879W        W36140   5.372   6.248   2.161  0.1388  0.2570 -0.0281
19880W        W36141  14.426   6.070   9.882  0.0363 -0.1918 -0.0744
19881W        W36142  10.577  17.621   5.340  0.2244 -0.1580  0.2597
19882W        W36143  12.092  14.363  13.183  0.0586  0.1452 -0.2244
19883W        W36144  12.154   7.813  14.416 -0.1875  0.2827  0.7568
19884W        W36145  15.910  13.497  11.287 -0.1011 -0.0650  0.0271
19885W        W36146  18.976   4.368  13.849 -0.1387  0.1854 -0.0760
19886W        W36147  18.698   6.022  13.208 -0.1110  0.1955 -0.2961
19887W        W36148  16.415  12.809  10.571 -0.1718  0.2408 -0.0084
19888W        W36149  18.476   0.848  11.125  0.0653 -0.0054 -0.4121
19889W        W36150   8.315  18.462   5.284  0.1646  0.1277  0.0555
19890W        W36151  19.419   5.678   0.003 -0.1424 -0.1977  0.2012
19891W        W36152   3.280   7.787  12.619 -0.2982  0.0107 -0.4674
19892W        W36153  18.674   1.204  11.592  0.0351 -0.0243 -0.2043
19893W        W36154  13.835   7.050  13.900 -0.1905 -0.0257 -0.1977
19894W        W36155  12.513   9.080  13.834 -0.2909  0.1716  0.2288
19895W        W36156   1.988   9.429   0.152  0.1349 -0.0099  0.1139
19896W        W36157  11.075   3.289  12.016 -0.1415 -0.2797 -0.1982
19897W        W36158  10.437   1.586   0.266  0.1301  0.1063  0.0441
19898W        W36159   0.971  14.596   0.363 -0.3242 -0.0386 -0.1023
19899W        W36160   5.460   6.077  13.051 -0.2644  0.0898 -0.1201
19900W        W36161   7.208  12.558  12.547 -0.0376  0.0754 -0.0686
19901W        W36162   3.400   4.463   4.954  0.2714 -0.0808 -0.0635
19902W        W36163   5.236  19.254   0.230 -0.1120 -0.2007  0.1164
19903W        W36164   5.995   4.750  10.060  0.2811  0.3227  0.0841
19904W        W36165   3.308  11.395   0.044 -0.0854  0.1406 -0.1760
19905W        W36166   0.496   3.191  10.635 -0.0067 -0.1818  0.2334
19906W        W36167   4.830   5.382   5.084 -0.1118 -0.2261 -0.2892
19907W        W36168   3.116   1.479  14.355 -0.1079  0.3204 -0.4361
19908W        W36169  14.240  16.070   0.407 -0.2888  0.2077 -0.1189
19909W        W36170   9.767   3.150   3.025  0.0234 -0.0200  0.2455
19910W        W36171  17.822  12.885  13.623  0.3260 -0.0756 -0.0361
19911W        W36172   7.881   7.656  11.401 -0.0582 -0.3798  0.3044
19912W        W36173   3.710   1.692   2.341 -0.2882  0.1092 -0.0595
19913W        W36174   4.373  19.328   5.659 -0.1317  0.0501  0.4086
19914W        W36175   1.322  17.804   5.440  0.2677 -0.0626  0.2009
19915W        W36176  11.173   4.758   2.492 -0.0259 -0.0851 -0.2874
19916W        W36177   4.404  14.726   1.815  0.1227  0.1633  0.2088
19917W        W36178   0.048   2.712  11.940 -0.0369 -0.1307  0.3163
19918W        W36179   2.170  17.359  11.302 -0.2791 -0.0142  0.2658
19919W        W36180  15.417   8.699  10.651  0.3191 -0.1154  0.0779
19920W        W36181  18.622   0.805   0.971 -0.4412 -0.2169 -0.0486
19921W        W36182  15.467   7.937  11.831 -0.0402  0.1171  0.3668
19922W        W36183   2.627  16.214  13.155 -0.0985  0.3938 -0.2617
19923W        W36184   7.153   7.936  14.497 -0.3468 -0.1226 -0.0703
19924W        W36185   8.586   1.294   2.834  0.0272 -0.0581 -0.0120
19925W        W36186  10.184  11.036  11.881 -0.0348 -0.0327 -0.1216
19926W        W36187   4.835  15.489  13.763 -0.3395  0.2365  0.2097
19927W        W36188   5.380  13.303   0.385  0.1814 -0.1975 -0.3970
19928W        W36189   9.233   2.927   2.143  0.0988 -0.2420  0.0062
19929W        W36190  17.603   7.815  13.916 -0.3154 -0.0463 -0.0093
19930W        W36191   0.995   7.410   2.908 -0.3085 -0.2190 -0.0370
19931W        W36192   5.768   5.463  12.874 -0.2768 -0.1315 -0.0647
19932W        W36193  10.120  14.026   1.032  0.0823 -0.0435  0.0228
19933W        W36194  18.079   7.600   0.725  0.1003 -0.3706  0.2613
19934W        W36195   7.148  18.648  11.231  0.1116  0.1205 -0.1078
19935W        W36196  19.253  16.636  10.356 -0.2013 -0.0487  0.1093
19936W        W36197   7.100   0.440   0.189  0.0499 -0.0226  0.1079
19937W        W36198   6.124  13.025   4.744 -0.4253  0.3463 -0.0001
19938W        W36199  15.520   3.769  14.741  0.0953  0.3557  0.2145
19939W        W36200   5.833  12.223   4.339 -0.0124  0.1402  0.0977
19940W        W36201   9.376  15.753  10.812 -0.0326 -0.1091 -0.0718
19941W        W36202   8.805   4.415   0.418  0.0723  0.2201 -0.0999
19942W        W36203  10.984   8.392  13.651  0.1554 -0.1053  0.0387
19943W        W36204   6.774   8.937  13.104 -0.0975  0.3187  0.3242
19944W        W36205   0.697  17.367  11.815 -0.1577 -0.4647  0.1399
19945W        W36206  15.326  14.577   5.175 -0.0027 -0.3150  0.1194
19946W        W36207   8.074   8.121   4.941 -0.1696  0.2103  0.4662
19947W        W36208  19.024   4.020   0.577  0.2071  0.1317  0.0311
19948W        W36209  13.670   1.873   2.403 -0.0137  0.1654 -0.2797
19949W        W36210   6.531   5.404   2.472 -0.0066  0.0537  0.2614
19950W        W36211   0.711  14.081  10.737 -0.0496  0.0364  0.0180
19951W        W36212   0.906   2.698   4.188 -0.1071  0.3945 -0.0820
19952W        W36213   5.057   0.835  11.992  0.2295  0.4478  0.0994
19953W        W36214   4.633  17.317   3.984  0.0980  0.2715  0.1081
19954W        W36215   7.464   0.378   1.795 -0.0172  0.5318  0.0188
19955W        W36216  11.290   4.414   1.543 -0.0666  0.1756  0.4265
19956W        W36217  17.308   9.795  12.753 -0.0769 -0.2479  0.1901
19957W        W36218   0.340   9.474   0.996 -0.0648 -0.0243 -0.0798
19958W        W36219  16.773   1.222  12.176  0.1986  0.0183  0.0718
19959W        W36220   8.076  11.997   4.935  0.1061  0.2509 -0.1092
19960W        W36221   0.433   1.643   3.914 -0.1484 -0.1919  0.0833
19961W        W36222   0.369   3.323  11.879  0.0116 -0.0545 -0.0100
19962W        W36223  17.868  14.600   3.347  0.1658  0.3060  0.1184
19963W        W36224   9.217   8.437   2.474  0.2732  0.0550 -0.0111
19964W        W36225   5.376  17.943   2.190  0.0640 -0.2563  0.4388
19965W        W36226  14.043   4.022   1.398 -0.0655  0.0783 -0.0434
19966W        W36227   3.949   3.523  11.008  0.2975  0.5062 -0.4800
19967W        W36228  19.237   9.255  13.686 -0.0755 -0.2587 -0.0821
19968W        W36229  14.204  13.385   1.418  0.0945 -0.0880  0.2362
19969W        W36230  11.913   7.803  14.845  0.0660 -0.0800  0.2543
19970W        W36231  18.742   5.496  11.442 -0.1394  0.3971  0.0385
19971W        W36232   2.444   9.174   4.395 -0.1035  0.0464  0.4560
19972W        W36233  14.035  14.343   5.431 -0.1082 -0.0965 -0.0058
19973W        W36234  10.964   4.843   3.619  0.1143 -0.1513  0.2281
19974W        W36235  11.114  18.695   4.379 -0.1385  0.0768  0.0558
19975W        W36236   3.674  12.801   4.921  0.1036 -0.0689 -0.1241
19976W        W36237  18.548  11.091  11.487  0.0953 -0.3694 -0.0609
19977W        W36238  15.096   2.496   0.128 -0.1848  0.0598 -0.1551
19978W        W36239   1.731  13.072   2.420 -0.1869 -0.4512 -0.3481
19979W        W36240   7.568  13.533  10.564  0.0571 -0.1255  0.1408
19980W        W36241  13.265   4.282   4.926  0.1138  0.1058 -0.0218
19981W        W36242   4.401   5.253   4.624  0.1167  0.2225  0.2163
19982W        W36243  19.125  12.506   1.694  0.2989  0.1988 -0.3552
19983W        W36244   4.285  17.100  12.101  0.0774 -0.0755 -0.0364
19984W        W36245   3.728  16.468  12.084 -0.0305 -0.1418 -0.0373
19985W        W36246  19.244  14.346  10.837 -0.2131  0.1756 -0.1257
19986W        W36247   8.661  18.974   0.599  0.2894 -0.0872  0.3580
19987W        W36248   7.087   2.879   9.900 -0.0191 -0.1760 -0.1740
19988W        W36249   1.288  15.529   3.999 -0.0366  0.0530  0.4523
19989W        W36250  13.895  10.333  12.333  0.1306  0.1196 -0.1182
19990W        W36251   3.868  15.536  13.435  0.0996 -0.0686  0.1016
19991W        W36252   3.613   2.466   2.809 -0.1024  0.1739  0.1980
19992W        W36253   1.347  17.267  13.107  0.0197  0.2627 -0.0721
19993W        W36254  11.226  11.139   3.204  0.3108 -0.0892  0.1295
19994W        W36255   4.362   8.677   1.646 -0.3185 -0.0405  0.0759
19995W        W36256  12.104   3.753  14.880 -0.2868  0.1975 -0.2217
19996W        W36257  18.874  15.522  10.787  0.3594  0.0553  0.2894
19997W        W36258   0.823   9.737  11.321 -0.0614 -0.0889  0.1468
19998W        W36259  18.831   0.261   4.196 -0.0011 -0.4700  0.1618
19999W        W36260   1.491  13.274  13.440 -0.0415 -0.0071  0.0574
20000W        W36261  10.742  13.454  13.429 -0.1576  0.0373 -0.0530
20001W        W36262   8.278  11.843   1.321  0.0692 -0.0040  0.1335
20002W        W36263  13.685   3.292   1.628  0.0830  0.0162 -0.0404
20003W        W36264   9.782  10.118   2.177 -0.2150  0.1154 -0.2561
20004W        W36265  18.151  16.384   1.211 -0.1400 -0.0744 -0.0442
20005W        W36266  19.230  12.019   5.653 -0.0004 -0.2992 -0.2897
20006W        W36267   9.457   9.089   1.754 -0.0447  0.0411 -0.2144
20007W        W36268   3.158   8.308  11.736 -0.3811  0.1206 -0.2566
20008W        W36269   9.599   3.511   3.392  0.3227  0.1371 -0.1856
20009W        W36270  18.959  17.564  10.077  0.0293 -0.2278  0.0958
20010W        W36271  17.367  10.639   4.859 -0.3773  0.0835  0.3001
20011W        W36272   8.018  15.872  12.329  0.0195  0.2518  0.3295
20012W        W36273   2.926   8.057   3.796 -0.2586 -0.1275  0.3115
20013W        W36274   9.414   1.341   1.631  0.2909 -0.2498  0.1913
20014W        W36275  18.252   2.891  12.398  0.0355  0.1403 -0.1564
20015W        W36276  16.224   9.968  12.752  0.1663 -0.0781  0.0917
20016W        W36277  13.413   0.908   0.285 -0.0699 -0.0751 -0.0268
20017W        W36278  10.510   4.528   9.970  0.0165 -0.0285 -0.0493
20018W        W36279  15.223   2.816  12.013 -0.1694 -0.1431  0.1842
20019W        W36280   7.377  11.449  11.151 -0.3156 -0.1515  0.0200
20020W        W36281   0.519  17.305   2.111  0.1999  0.1045  0.1585
20021W        W36282   8.812   6.624  11.303  0.2243  0.2237 -0.0054
20022W        W36283  12.577  17.825  11.675 -0.0068  0.0458  0.2062
20023W        W36284   4.113  16.911   1.057  0.2217  0.1684  0.0096
20024W        W36285   2.682  11.717  10.939  0.1015  0.0397  0.0011
20025W        W36286   1.070   2.794  13.465  0.0500 -0.2756 -0.1673
20026W        W36287   4.976  13.270  13.384 -0.1846 -0.3124  0.0246
20027W        W36288   6.549   0.539   0.148 -0.1549 -0.0986  0.0438
20028W        W36289  16.424   9.969   9.759  0.0679 -0.0235 -0.4071
20029W        W36290   8.852   5.554   1.094 -0.0185  0.4211  0.0096
20030W        W36291  16.366   2.967   3.399  0.0304  0.0636  0.3756
20031W        W36292   0.700   0.465   4.133  0.2376  0.0600  0.1409
20032W        W36293  11.918   8.228   3.952  0.0763  0.3486 -0.2598
20033W        W36294   5.282  16.176   4.363 -0.3492 -0.0694 -0.1714
20034W        W36295   6.934   7.522   2.473 -0.5034  0.2035  0.0236
20035W        W36296   8.425   9.486  13.624 -0.0726  0.1245 -0.0633
20036W        W36297   2.737  15.632  12.052  0.1422 -0.0168  0.1182
20037W        W36298   5.278   5.389   2.239  0.0712 -0.3498  0.2789
20038W        W36299   6.785  16.447   3.492 -0.0391 -0.0349  0.3749
20039W        W36300   3.935   8.868   1.896  0.1283 -0.2615  0.1353
20040W        W36301  14.853  15.645   0.107 -0.0042  0.0625  0.0292
20041W        W36302   8.557   6.666   2.082 -0.0573 -0.2088 -0.0808
20042W        W36303  13.248   9.381   2.481  0.0210 -0.0976 -0.3924
20043W        W36304   0.188   8.478   0.675 -0.0433  0.4233  0.0076
20044W        W36305  14.185  12.058   4.998 -0.1546  0.2834 -0.1295
20045W        W36306  19.356   9.868   0.694 -0.5253  0.1198  0.3875
20046W        W36307   2.486   2.736  12.010  0.0460  0.1717  0.0882
20047W        W36308  11.064  10.869  13.635  0.1374  0.2146 -0.1694
20048W        W36309  19.339  13.379   3.245  0.0221  0.1198  0.0488
20049W        W36310   6.804   2.530   0.267 -0.2348 -0.0378 -0.2658
20050W        W36311  17.193   0.131   2.013  0.1309 -0.0685 -0.2097
20051W        W36312   7.558  10.895  13.876  0.0011 -0.4251 -0.1070
20052W        W36313   6.655  16.103   0.605 -0.3320 -0.0708  0.1311
20053W        W36314   7.713  17.058  12.143 -0.2829  0.1768 -0.0779
20054W        W36315  19.235   6.654  10.819 -0.1289  0.0730  0.2361
20055W        W36316  16.307  16.776  12.239 -0.0127 -0.1802  0.1881
20056W        W36317   4.945   8.713  12.801  0.2836 -0.1094  0.1348
20057W        W36318  15.045  15.879  14.562  0.1876 -0.1914 -0.3146
20058W        W36319  17.529   8.799   2.156  0.0533  0.0018  0.0183
20059W        W36320  17.670  17.217   3.725 -0.3830  0.2216  0.0838
20060W        W36321   5.040   4.889   3.366  0.0428  0.0162  0.1242
20061W        W36322  18.816   7.419  12.911 -0.0168 -0.2910 -0.3850
20062W        W36323   4.552  11.799   4.752  0.2568 -0.0666 -0.1811
20063W        W36324   4.683   3.972   1.850  0.2162  0.0897  0.1511
20064W        W36325  14.535   8.849   2.885  0.0545  0.3548  0.2023
20065W        W36326  12.033   7.955  10.232 -0.2844 -0.1169 -0.0710
20066W        W36327  18.608   2.391  10.711 -0.2313 -0.0088  0.0466
20067W        W36328   0.349   0.765   4.596  0.1085 -0.2432 -0.0149
20068W        W36329  14.173   1.562  14.642 -0.2070  0.0207  0.1140
20069W        W36330  17.092   4.523   4.072 -0.3805 -0.1116 -0.2077
20070W        W36331  16.766  14.927   0.639 -0.2690  0.3029 -0.0442
20071W        W36332   7.522  16.694   5.393 -0.2614 -0.3056  0.3603
20072W        W36333   1.615   4.029  12.609  0.1211 -0.1717 -0.1025
20073W        W36334   5.115  12.757  12.842  0.2463 -0.0296 -0.1240
20074W        W36335  13.478  12.150   2.210 -0.0470  0.1557 -0.2655
20075W        W36336   7.713   5.751  11.521  0.1151  0.0869  0.1907
20076W        W36337   0.561   9.109   3.806  0.0239  0.0493 -0.3127
20077W        W36338  12.133   2.727  14.704  0.1247  0.3611 -0.0254
20078W        W36339  17.830   3.661  14.471  0.1052  0.2704 -0.0167
20079W        W36340  15.639  11.888  12.516  0.0578  0.0957  0.1058
20080W        W36341   6.077  16.765  13.767  0.2713 -0.1478 -0.1575
20081W        W36342  11.393  11.663   3.176  0.3297  0.0142 -0.1708
20082W        W36343  12.080  18.550  13.688 -0.0535  0.1046 -0.0194
20083W        W36344  16.690  16.290  10.742  0.0173  0.0730 -0.1364
20084W        W36345   3.793   3.592   1.813 -0.1703 -0.2050  0.0294
20085W        W36346  13.374  19.118  13.851 -0.1206  0.0907 -0.2554
20086W        W36347  17.061  14.549   2.694  0.4754 -0.1652 -0.0686
20087W        W36348   0.240   9.788   2.085 -0.4082 -0.0794 -0.2304
20088W        W36349   2.392   3.738   5.674 -0.1134  0.0692 -0.0279
20089W        W36350  10.227   8.317   4.013 -0.1919  0.1034  0.1961
20090W        W36351  18.954   1.934  14.657 -0.0200 -0.0502  0.0357
20091W        W36352  13.482  14.100   2.677 -0.1548  0.3044 -0.2213
20092W        W36353  16.249  12.499   3.310 -0.0938 -0.2303 -0.0465
20093W        W36354   2.117  10.699   2.716 -0.0656  0.2819 -0.1184
20094W        W36355  10.381   3.010   3.063  0.1598  0.1643 -0.0019
20095W        W36356   6.000  14.900  11.862 -0.3250  0.1803  0.3698
20096W        W36357  11.746  19.016  11.643  0.0048 -0.2600 -0.1064
20097W        W36358   2.125   4.147   2.467  0.1405 -0.0467 -0.0770
20098W        W36359  15.014   2.907  11.490  0.0336 -0.4340 -0.4348
20099W        W36360   8.229   5.549  13.444 -0.0615 -0.0075  0.0827
20100W        W36361   5.000   7.086   1.919 -0.1427 -0.0085  0.3066
20101W        W36362  12.678   2.834  10.959  0.1828 -0.0786  0.1705
20102W        W36363   0.436  11.614   0.209 -0.1760  0.2768 -0.3189
20103W        W36364  17.707  14.695  13.188 -0.2870  0.1331 -0.0468
20104W        W36365   8.051  15.903   1.017 -0.1588 -0.2557  0.3722
20105W        W36366  18.452   8.177   2.075  0.0170 -0.1017 -0.0551
20106W        W36367   8.010  13.520   1.494 -0.0759 -0.0800  0.5434
20107W        W36368   9.456  18.699  11.874 -0.3008  0.0571 -0.0639
20108W        W36369  10.498  15.800   0.816  0.0623  0.3136 -0.1009
20109W        W36370   7.266  18.437   1.738  0.1457 -0.0546 -0.3317
20110W        W36371  10.004   2.193   4.538  0.0201 -0.1873 -0.3047
20111W        W36372  18.389  12.947   4.581 -0.0631  0.0812 -0.0647
20112W        W36373   1.997   0.195  11.767  0.1517  0.0687 -0.1475
20113W        W36374  18.586  14.563   5.023  0.2767  0.0464  0.0672
20114W        W36375  16.815   6.112   5.331 -0.0495 -0.2228 -0.0767
20115W        W36376   7.298   6.698  12.689 -0.0002 -0.1687 -0.0430
20116W        W36377   0.456  11.660  11.289  0.3489 -0.1417 -0.2534
20117W        W36378   5.413  15.292   1.881  0.3912 -0.1169  0.2018
20118W        W36379  10.990  15.691  11.386 -0.4075  0.0725  0.0495
20119W        W36380   1.380   5.972   2.284 -0.1325 -0.2763 -0.0621
20120W        W36381  13.918   0.753   4.547 -0.1039 -0.2056 -0.0912
20121W        W36382  16.841   7.109   3.943  0.2323 -0.1626 -0.0755
20122W        W36383   6.721   7.940   2.627  0.1731 -0.2159 -0.0894
20123W        W36384   1.699   8.505   0.947 -0.0832 -0.2611  0.1974
20124W        W36385  16.757   4.089   4.081 -0.0115  0.0205 -0.1320
20125W        W36386   5.671   7.284  12.036 -0.2545  0.0888 -0.0752
20126W        W36387  18.946   2.540   1.772  0.1731 -0.2216 -0.0318
20127W        W36388   3.114  17.943  14.778  0.2921  0.0351  0.0089
20128W        W36389   2.984   7.656  14.642 -0.1020 -0.0200  0.1418
20129W        W36390   9.710   7.524   4.092 -0.0769  0.0345  0.2342
20130W        W36391   1.161   7.273   4.392 -0.0096  0.1658  0.0619
20131W        W36392  11.556  17.218   1.719  0.1725  0.1985 -0.0117
20132W        W36393   4.501  14.242  12.419  0.1926  0.0447 -0.4346
20133W        W36394   3.417   5.248  14.192  0.1932 -0.3916 -0.1948
20134W        W36395  10.589   5.629   2.145 -0.4555 -0.2556  0.0548
20135W        W36396   1.037  13.868   2.931 -0.0895 -0.1564 -0.0205
20136W        W36397  13.932   5.689   3.728  0.1385  0.4567  0.1800
20137W        W36398  13.052  10.857  10.517  0.1476 -0.0058 -0.2304
20138W        W36399  14.708  11.511  12.471 -0.1341 -0.1201 -0.0370
20139W        W36400   2.187   0.760   5.218  0.1002 -0.0013 -0.1352
20140W        W36401  12.249   9.857  12.640  0.0999  0.0238  0.0485
20141W        W36402  19.234   2.933   4.327 -0.0266 -0.0046 -0.0083
20142W        W36403   9.309   1.180  10.627  0.2151  0.0539 -0.2535
20143W        W36404  11.034  13.498   4.946 -0.2341  0.0604  0.0996
20144W        W36405  10.305  14.420  13.850 -0.1244 -0.1284  0.0882
20145W        W36406   2.314   5.328   1.091 -0.0196 -0.1284  0.0262
20146W        W36407  15.401   8.078   1.247 -0.0140 -0.0552 -0.3447
20147W        W36408  16.801  13.709   2.424  0.0343  0.0407  0.2260
20148W        W36409   0.584   5.625  10.536  0.2697 -0.1526 -0.1048
20149W        W36410  16.424  10.444   1.755 -0.0008  0.0338 -0.0410
20150W        W36411  13.620  12.259  11.352  0.1119 -0.0106  0.2206
20151W        W36412  17.970   1.423  14.565  0.0276 -0.3296 -0.0626
20152W        W36413   8.552   6.318   2.523  0.1093  0.1236  0.0617
20153W        W36414  14.181  13.669  13.446  0.0452  0.1582 -0.1567
20154W        W36415   5.251   5.088  13.404  0.0522  0.3344  0.3045
20155W        W36416   1.801   0.583  12.045  0.1081  0.1070  0.0770
20156W        W36417  11.085   6.454   3.365 -0.2196 -0.0170 -0.3229
20157W        W36418  16.390  19.021  14.610  0.1084 -0.1728 -0.1192
20158W        W36419  11.852   6.411   2.658  0.1002 -0.1172 -0.1122
20159W        W36420   3.823   9.971  12.704  0.0409 -0.4148  0.0995
20160W        W36421  15.750   3.585   4.016 -0.0046  0.1348  0.0701
20161W        W36422  15.300   9.072   0.320 -0.2190  0.1736  0.0333
20162W        W36423   2.081  11.889  13.734  0.0504 -0.0141  0.1866
20163W        W36424  14.169   2.257  14.182  0.0837  0.1116 -0.0478
20164W        W36425  12.400  10.359  12.737  0.2087  0.1908 -0.2742
20165W        W36426   2.785   9.946   5.243 -0.2277  0.0132  0.0322
20166W        W36427   6.651   0.880  10.810  0.3150 -0.1107 -0.1213
20167W        W36428   6.446  11.473  13.935  0.0025  0.1178  0.0113
20168W        W36429   1.986   5.147  11.979  0.0487  0.0211  0.1395
20169W        W36430   4.091   9.830   4.398  0.5423 -0.1368  0.0762
20170W        W36431  16.748   7.442  10.237  0.3037 -0.2547  0.0094
20171W        W36432   1.534  18.225   2.119 -0.0372 -0.2840  0.2609
20172W        W36433   8.326  16.085   3.182  0.2442  0.0934  0.1566
20173W        W36434   9.598   1.712   3.195  0.1415 -0.2888  0.0938
20174W        W36435   6.216  18.127  13.109 -0.2205  0.1067  0.1757
20175W        W36436   9.705   2.093  10.587 -0.1850  0.2109 -0.0277
20176W        W36437   4.156  18.329   0.009  0.0310 -0.1432  0.1342
20177W        W36438   7.854   6.674  12.665 -0.0202  0.0868  0.3252
20178W        W36439   1.553   5.556   2.093  0.2096  0.1203 -0.3009
20179W        W36440  17.579  14.838  12.635  0.1000 -0.1807  0.1172
20180W        W36441  10.110  17.761  12.616  0.2831 -0.3013  0.0968
20181W        W36442  18.864  17.154  12.284  0.1927  0.1421  0.0314
20182W        W36443   8.148   6.822  14.644 -0.1287  0.2198  0.0469
20183W        W36444  14.881   0.229  13.517  0.0849  0.1836 -0.1528
20184W        W36445  15.554  16.189  12.345  0.2688 -0.1495 -0.0373
20185W        W36446  12.598  11.110   1.205 -0.3824 -0.2531  0.0472
20186W        W36447  16.348   6.232   4.541  0.1303 -0.1650  0.2860
20187W        W36448  19.185  10.131   4.088  0.0556  0.0375 -0.1479
20188W        W36449  15.985  10.848   1.497  0.0077  0.4541  0.1397
20189W        W36450   8.433  17.541  11.591 -0.1207 -0.0559  0.0176
20190W        W36451  17.560   0.487   5.651 -0.2052 -0.0132 -0.2220
20191W        W36452  13.724  15.452   1.068 -0.1261 -0.1187 -0.0013
20192W        W36453   6.013   1.188   3.389  0.0894 -0.0377 -0.1915
20193W        W36454   7.160  18.853  13.821 -0.1103  0.0465 -0.1175
20194W        W36455  17.762  12.200   5.376  0.2276 -0.1067 -0.2965
20195W        W36456  12.671   5.907  10.255 -0.0035  0.0227 -0.1105
20196W        W36457  17.869   0.091  14.864  0.3305  0.1305 -0.2203
20197W        W36458   3.649   2.932   4.743  0.1546 -0.2760 -0.0921
20198W        W36459   1.386  13.263   0.137 -0.4318  0.2050  0.1651
20199W        W36460  14.094  15.965   4.013 -0.0668 -0.1227 -0.2759
20200W        W36461   7.348  14.504  10.789  0.1437  0.1504  0.2060
20201W        W36462  12.862   6.448  11.146  0.3702  0.3319 -0.2262
20202W        W36463   4.432   1.300   0.411  0.1524 -0.0895 -0.1807
20203W        W36464   7.662  16.428  13.674  0.0625  0.0442  0.0683
20204W        W36465  10.817   1.270  14.543  0.2566 -0.0370  0.1883
20205W        W36466   2.997  10.417   3.490 -0.1304  0.0950  0.0747
20206W        W36467   7.557  14.044  11.129 -0.1344 -0.3723 -0.0395
20207W        W36468  13.997   3.580  13.545  0.0400 -0.3056 -0.2819
20208W        W36469  14.437  15.311   2.625  0.0464  0.2800 -0.1002
20209W        W36470   2.508  18.274  11.220  0.1511 -0.2149 -0.0611
20210W        W36471  14.330  15.189  14.289 -0.1299 -0.0108 -0.5559
20211W        W36472   6.098  10.825   0.198 -0.0503  0.3295  0.1495
20212W        W36473   7.079   8.968   1.038 -0.2655 -0.2881  0.0659
20213W        W36474  16.933   4.783  11.133 -0.4967 -0.3401 -0.0114
20214W        W36475   2.647   9.711  12.681  0.1285  0.0950  0.1746
20215W        W36476  18.583   1.129   1.380 -0.0032  0.0099  0.3421
20216W        W36477   8.758   9.670   3.051 -0.1721 -0.3445 -0.0756
20217W        W36478   6.792   8.211  11.591  0.4788  0.0441  0.0754
20218W        W36479   2.800  10.733   1.393  0.0211  0.3315 -0.1571
20219W        W36480   9.119  19.220  14.680  0.3293 -0.2384 -0.2581
20220W        W36481  13.115   7.677  12.272 -0.0058  0.0608  0.3030
20221W        W36482  12.533   8.756   0.505 -0.0580 -0.2137  0.0127
20222W        W36483  17.384   5.610  12.595  0.0813 -0.2389 -0.1922
20223W        W36484   1.154  12.882  10.653  0.2555  0.0287 -0.0924
20224W        W36485   9.622   1.556   9.256  0.0694  0.1270 -0.0864
20225W        W36486  14.660  14.231  13.471 -0.1486  0.2234 -0.4329
20226W        W36487  17.492   8.946   0.867  0.0556  0.3299  0.2489
20227W        W36488   5.232  18.052  10.643 -0.0294  0.1662  0.1906
20228W        W36489   9.518  16.616   0.112  0.0309 -0.0996  0.4829
20229W        W36490  14.683   8.483  12.845 -0.0155 -0.2382 -0.0513
20230W        W36491   0.229   7.230   0.587  0.1706 -0.0719 -0.2112
20231W        W36492  18.429   9.644  11.639 -0.0540  0.3438 -0.0595
20232W        W36493  12.007   6.195  12.660 -0.0354  0.0820 -0.1883
20233W        W36494   8.659  17.786  14.201  0.1001 -0.1984  0.0082
20234W        W36495  16.332  17.523   3.064 -0.0273 -0.3203  0.0877
20235W        W36496   9.585   2.807  14.525 -0.1579 -0.0340 -0.3334
20236W        W36497   4.955  12.416   5.005  0.0445 -0.0931  0.1637
20237W        W36498   4.866   4.527  11.785  0.2429  0.0553  0.0776
20238W        W36499  18.059  10.643  14.696 -0.0477  0.0271  0.1163
20239W        W36500   9.452   7.700  14.424  0.1057 -0.0830  0.0941
20240W        W36501  12.488  15.028  14.493 -0.0690  0.4636  0.1648
20241W        W36502  19.422   4.187   4.926  0.1782  0.3529 -0.1688
20242W        W36503  16.596  18.542  14.619 -0.3720  0.3427  0.1174
20243W        W36504  17.443  13.060  14.354  0.1132 -0.0347  0.1092
20244W        W36505   5.822   6.372   0.316  0.2112  0.4510 -0.2027
20245W        W36506   6.558   3.629  11.071  0.1310  0.1199  0.0223
20246W        W36507  11.954  14.223   1.748 -0.4307 -0.3193  0.2955
20247W        W36508   9.723   3.283   3.880  0.2073 -0.1802  0.1025
20248W        W36509  12.437   5.293   4.146  0.4657  0.1609 -0.0655
20249W        W36510   4.887   7.449   0.245  0.0945  0.0976  0.1049
20250W        W36511   4.606  18.145   1.695 -0.3295 -0.2643  0.1953
20251W        W36512   1.747  19.350   0.292 -0.1330 -0.1303  0.0936
20252W        W36513  13.514   3.659   3.932  0.1753  0.0968  0.1028
20253W        W36514   5.092  15.029   4.941 -0.0491  0.1778 -0.0579
20254W        W36515  10.319   0.418   4.530  0.2686 -0.0897 -0.1520
20255W        W36516  16.932   2.603   0.877 -0.1041  0.1500  0.0774
20256W        W36517   4.436  14.556   2.714 -0.0166  0.0068 -0.1960
20257W        W36518   0.222   5.920  10.941  0.1586 -0.0324 -0.1965
20258W        W36519   3.915  17.179   5.586  0.1242  0.0574 -0.0728
20259W        W36520   2.608  18.133  14.764  0.3115  0.2062 -0.2895
20260W        W36521  15.637   6.499   4.235 -0.0914  0.1336 -0.0466
20261W        W36522   5.779   0.063  13.756  0.0765  0.0058  0.1819
20262W        W36523  14.815  10.094   2.494 -0.3334  0.0282  0.1048
20263W        W36524  18.090   1.954  11.406 -0.2352  0.2165 -0.1363
20264W        W36525   0.466  12.944   3.049 -0.0854 -0.1799 -0.1297
20265W        W36526  16.510   6.572   0.067  0.0322  0.1814  0.1178
20266W        W36527  11.071   6.189   5.590 -0.3316  0.1319 -0.3451
20267W        W36528  13.442  10.770   3.438 -0.1309 -0.0936 -0.0247
20268W        W36529   4.498  14.441  12.964  0.0469 -0.1192  0.0200
20269W        W36530  16.154  11.057  14.877  0.1645 -0.0944 -0.2848
20270W        W36531   4.785   3.454   3.713  0.1321 -0.0403  0.0135
20271W        W36532  14.378   9.906  13.195 -0.3121  0.4457 -0.1220
20272W        W36533   3.844  15.443   1.989  0.0080 -0.0736  0.0461
20273W        W36534   8.519  11.342  12.086  0.3692  0.0466 -0.1955
20274W        W36535  13.004  10.894   3.726  0.0537  0.0154  0.2544
20275W        W36536   7.312  11.497   2.767 -0.0581  0.0418  0.2106
20276W        W36537   3.106  16.487  13.354  0.2368 -0.0423  0.1367
20277W        W36538  18.391  18.192   5.884  0.0998  0.1502 -0.0566
20278W        W36539  13.408   4.764   0.533 -0.0627 -0.0343 -0.1177
20279W        W36540   2.228   8.891  14.701 -0.0044 -0.0703 -0.2162
20280W        W36541  14.230   5.637   2.994  0.0634 -0.1529 -0.1514
20281W        W36542  14.711   9.363  13.227  0.4129 -0.0671 -0.1660
20282W        W36543  12.112   7.409   0.770 -0.1444 -0.0919 -0.0780
20283W        W36544   2.640   3.797   1.254 -0.1252 -0.0034  0.0447
20284W        W36545   8.598   8.436   1.821 -0.3034 -0.0498  0.1991
20285W        W36546  10.147   9.842   3.746 -0.1661  0.1832  0.0323
20286W        W36547  16.702   0.863  10.665 -0.3517  0.0468 -0.6148
20287W        W36548   5.644  17.419   3.776 -0.0972  0.2650 -0.0837
20288W        W36549   4.905   0.163   3.470 -0.0293  0.1967 -0.0384
20289W        W36550  12.283  15.587   4.759  0.0437 -0.0902  0.2513
20290W        W36551   0.949   0.040   1.814 -0.1722  0.0407  0.0984
20291W        W36552  11.396   1.056  13.404 -0.1609 -0.2420 -0.1613
20292W        W36553  18.724   9.997   1.886  0.0900  0.2962 -0.0404
20293W        W36554   3.337   2.457  14.591 -0.2630  0.6024 -0.2300
20294W        W36555   6.140   7.849  14.387  0.0313 -0.1050  0.0751
20295W        W36556   3.147  17.679  10.717 -0.0260 -0.2831 -0.2344
20296W        W36557  19.191   9.547   2.075 -0.0487  0.0846 -0.0862
20297W        W36558  16.492   1.747   1.052 -0.4296  0.0659 -0.3060
20298W        W36559   6.128  14.072   4.403  0.1687  0.2465 -0.0750
20299W        W36560  10.016   0.138   1.930 -0.0819  0.1029  0.1100
20300W        W36561  19.181   7.764  13.979  0.0707 -0.2209  0.1133
20301W        W36562  17.607  19.425   4.166  0.1520 -0.5441  0.0068
20302W        W36563  16.458  11.343   5.486 -0.1042 -0.1301  0.0740
20303W        W36564   2.457   6.455   1.449  0.1468  0.0260 -0.1307
20304W        W36565   8.898  18.174   3.266  0.0853  0.3846 -0.0895
20305W        W36566  11.797   7.630  12.253  0.1638  0.1450 -0.1612
20306W        W36567   3.422   5.841  12.678  0.4203  0.0682  0.2449
20307W        W36568   4.516  18.783  12.549 -0.0161  0.1512  0.1386
20308W        W36569   4.563  12.892  11.381 -0.1738 -0.2382 -0.1159
20309W        W36570  16.194   5.174   2.136 -0.0284  0.2050  0.1501
20310W        W36571  14.419  17.848   1.796  0.4251 -0.1047 -0.3093
20311W        W36572   4.686   4.775  14.687 -0.1727 -0.1309  0.1537
20312W        W36573  14.429  10.709  11.519 -0.1490  0.1322 -0.3748
20313W        W36574  14.669   6.608   2.793  0.1660  0.0521 -0.2479
20314W        W36575  12.846   4.987  13.232 -0.1692 -0.1033  0.0084
20315W        W36576   8.424   4.709   1.336  0.1214 -0.3135 -0.2502
20316W        W36577   6.594  14.943  11.319  0.0538 -0.0398 -0.2224
20317W        W36578  10.601  17.421  14.647  0.0651 -0.1882 -0.4042
20318W        W36579   6.789  16.822   0.299  0.1447 -0.1850  0.0102
20319W        W36580  10.517  11.433  11.250 -0.0144 -0.0988 -0.3266
20320W        W36581  11.523   4.703   0.674  0.1389 -0.0100 -0.1512
20321W        W36582  13.320  19.329  12.729  0.3180  0.2324 -0.2912
20322W        W36583  14.992   5.343   0.138  0.2211 -0.3421 -0.0501
20323W        W36584  19.213   6.509   4.446 -0.2565  0.1492 -0.2081
20324W        W36585  10.840   1.689  10.777 -0.1023  0.0410 -0.0646
20325W        W36586   7.586  12.870   4.302  0.4418 -0.2173  0.0258
20326W        W36587   9.397  11.717   3.102  0.1091 -0.1302 -0.3434
20327W        W36588   2.765   5.734   1.910  0.1838  0.1251  0.2909
20328W        W36589  12.333   7.850  11.926  0.2209  0.1609 -0.1120
20329W        W36590   7.847   5.698  10.660  0.0437  0.1205 -0.4821
20330W        W36591  15.545  11.841   2.087 -0.0081  0.0960 -0.0092
20331W        W36592   6.610  18.789   4.785 -0.2228  0.0099 -0.0936
20332W        W36593  14.600   2.014   2.763 -0.0533  0.1357 -0.1356
20333W        W36594   6.135  19.047   0.249  0.1978  0.1397 -0.1403
20334W        W36595  11.107   2.133  12.396 -0.3959 -0.3297  0.0058
20335W        W36596  10.401   9.505   1.503  0.0505  0.2092  0.0697
20336W        W36597  11.426   2.352  12.658  0.2050 -0.3522 -0.1534
20337W        W36598  10.945   7.388   3.657 -0.4486 -0.1905  0.5672
20338W        W36599  18.952   0.215   3.656 -0.0636  0.1321  0.0637
20339W        W36600  18.789   1.241   4.590  0.1792  0.1579 -0.2734
20340W        W36601  16.932   1.674   3.159 -0.0063 -0.1733  0.0349
20341W        W36602  16.601  14.419   2.972  0.0845  0.1057  0.1793
20342W        W36603  13.087  19.206   4.501 -0.2775 -0.2616 -0.2190
20343W        W36604  17.621  18.320  13.222  0.0799 -0.3095  0.0678
20344W        W36605  11.170  18.422   3.085  0.0444  0.0831 -0.0921
20345W        W36606  19.011  17.401  11.001 -0.0028  0.0765 -0.0355
20346W        W36607   7.562  15.352   4.410 -0.1444  0.1790  0.3496
20347W        W36608   0.463  12.033  14.661 -0.0327  0.0835 -0.2492
20348W        W36609   1.547   4.889  12.096 -0.0268  0.0245  0.1637
20349W        W36610   4.185   4.685   0.842 -0.1865  0.0083 -0.4611
20350W        W36611  13.224   9.305  12.330  0.1222  0.1464  0.2132
20351W        W36612  19.006   6.987  11.696 -0.2839  0.3126 -0.0236
20352W        W36613  15.650  14.511   2.390 -0.0432 -0.2096 -0.0504
20353W        W36614  13.252  15.504   0.272 -0.0895  0.1256  0.1514
20354W        W36615   9.520  15.265   0.978 -0.0202 -0.0144  0.0325
20355W        W36616  14.877  14.256  14.790  0.0049 -0.3888 -0.0694
20356W        W36617  16.100  14.418   0.568 -0.0687  0.1251  0.0169
20357W        W36618   2.139  16.648  13.948 -0.2433  0.1537 -0.0385
20358W        W36619  18.633  18.645   2.807 -0.2153 -0.1662  0.3020
20359W        W36620  12.916   9.866   1.204  0.2575 -0.0019 -0.0558
20360W        W36621  11.886  16.793   4.631  0.3644 -0.1782 -0.2742
20361W        W36622  18.442   0.612  12.730  0.4196 -0.0387 -0.0544
20362W        W36623   7.473   7.021  13.948 -0.4755  0.0021  0.1120
20363W        W36624   4.790   1.819   9.801 -0.0659  0.0751 -0.2225
20364W        W36625   6.610  11.257   5.374 -0.1892 -0.5149  0.1065
20365W        W36626   3.380  12.076   4.391 -0.0990  0.0785  0.2079
20366W        W36627   5.553   2.151  11.556 -0.2362  0.1648 -0.1507
20367W        W36628   6.458  10.580  11.611 -0.0649  0.0153 -0.1059
20368W        W36629  14.250   8.511   1.409  0.2302 -0.2101 -0.2025
20369W        W36630   1.036  16.211   2.145  0.1247 -0.1308  0.1866
20370W        W36631   0.296   0.183  12.557  0.2723  0.0391  0.1052
20371W        W36632   6.976  17.494   2.437  0.1639 -0.1796  0.0973
20372W        W36633   3.618   5.086   2.200 -0.1568 -0.0323  0.1931
20373W        W36634  16.308  15.948   1.382  0.0109 -0.1585  0.3339
20374W        W36635   8.577  10.477   1.917 -0.3638 -0.0431 -0.3986
20375W        W36636  12.427  10.211   4.988  0.2185  0.1516 -0.1875
20376W        W36637   8.706   6.535   3.959 -0.1330  0.1678 -0.0806
20377W        W36638   1.462   4.184  14.614  0.1152  0.1614 -0.1842
20378W        W36639   8.432  12.290  13.134  0.1171 -0.0342  0.1133
20379W        W36640  11.491   8.515   4.723  0.1203  0.0374 -0.2346
20380W        W36641  16.503  18.926  12.033  0.1965 -0.2263 -0.2598
20381W        W36642   7.730   3.517  11.650  0.2282 -0.0084  0.2185
20382W        W36643   5.609  10.850   0.257 -0.0724  0.1801 -0.0824
20383W        W36644   6.575   1.985   0.534  0.2942 -0.1977 -0.1967
20384W        W36645   8.682  11.162   0.664  0.3369  0.0304  0.2344
20385W        W36646   8.294  11.288   3.375  0.3917 -0.3939 -0.0254
20386W        W36647  10.523  13.549   0.001 -0.0735 -0.1501  0.1127
20387W        W36648  18.621  17.025   4.281 -0.0166 -0.0418  0.0107
20388W        W36649  11.183  13.746  14.657  0.2489  0.0821  0.0111
20389W        W36650  17.920  11.514   4.334  0.1619 -0.1171  0.0527
20390W        W36651   5.691   3.002  11.978 -0.2487  0.2401 -0.1680
20391W        W36652   8.043   8.085  11.581 -0.4091 -0.1689 -0.0918
20392W        W36653   9.442   3.380   5.687 -0.0211 -0.0749  0.2481
20393W        W36654   5.877  18.978   4.603 -0.0902 -0.0653  0.0479
20394W        W36655  12.838  11.016  14.049  0.1131 -0.0042  0.1183
20395W        W36656   9.670   7.041   4.274  0.1326  0.0901 -0.2621
20396W        W36657  11.331   8.989   3.638  0.2799 -0.3749 -0.1128
20397W        W36658   8.330   0.390  10.626  0.2684  0.0712  0.0224
20398W        W36659   0.266   8.322  11.408 -0.3081  0.3280 -0.2697
20399W        W36660   3.866  15.627  12.708  0.0735 -0.0987  0.1429
20400W        W36661  14.961   4.313   2.833  0.2858 -0.0264  0.4627
20401W        W36662   5.117   6.022  10.899 -0.2906  0.0001  0.2144
20402W        W36663  18.986   1.152   1.052  0.0594 -0.1068  0.0863
20403W        W36664   5.917  16.394  14.075 -0.0697 -0.0790  0.1059
20404W        W36665  18.481   1.269   0.889 -0.2454 -0.0974 -0.0266
20405W        W36666  14.628   6.953   3.219 -0.1967 -0.0570  0.0022
20406W        W36667   1.918  11.746  10.736 -0.2661 -0.3620 -0.1516
20407W        W36668  14.461  18.254  11.620  0.4210  0.0749  0.2447
20408W        W36669   5.067   2.288  14.235 -0.2901 -0.1188 -0.1855
20409W        W36670  16.061  11.672  13.387 -0.3657 -0.1533 -0.0300
20410W        W36671  14.983  11.691  13.362 -0.1833 -0.0699 -0.2087
20411W        W36672  16.775   6.353   1.994  0.0508  0.1384 -0.0629
20412W        W36673  15.980   0.063   2.283 -0.3251  0.0466  0.0564
20413W        W36674  14.913  16.361   1.944  0.3263 -0.1750 -0.0808
20414W        W36675   9.103   3.003   4.545  0.0366 -0.0365 -0.1181
20415W        W36676   3.868  12.639   3.075 -0.2012  0.3597  0.2218
20416W        W36677  13.457   6.069  12.610  0.2637  0.0652  0.0050
20417W        W36678   6.862  14.137   1.829  0.0870  0.4629  0.0275
20418W        W36679  16.216   3.486   0.049  0.2122 -0.0073  0.0267
20419W        W36680   1.365   6.477  14.827  0.0070 -0.0326  0.1245
20420W        W36681   3.110  16.985   2.071 -0.0152 -0.0782 -0.5201
20421W        W36682  14.211  11.670   8.746 -0.2273 -0.0296 -0.1546
20422W        W36683  16.199  11.166   3.907 -0.3659 -0.2212 -0.0265
20423W        W36684   4.765   9.566   0.495 -0.1878  0.1631 -0.1351
20424W        W36685  16.789   9.751  10.686 -0.0244 -0.0230 -0.1528
20425W        W36686   7.092   0.928  10.438 -0.0970  0.2210 -0.3488
20426W        W36687   2.495  15.487   5.162 -0.3644 -0.0034 -0.1141
20427W        W36688  13.069  19.151  11.270 -0.2185  0.1139  0.2409
20428W        W36689  12.771   0.891   9.961 -0.0864 -0.1858  0.3566
20429W        W36690  16.675  13.355   1.069 -0.0891 -0.1536  0.3724
20430W        W36691   9.229   8.828   3.352  0.1590 -0.4909 -0.1189
20431W        W36692  18.406  12.244  13.483 -0.0257 -0.1030  0.0747
20432W        W36693   4.886  18.177  10.998  0.0039  0.0596  0.1387
20433W        W36694  16.528  12.690   1.803 -0.3625 -0.0846  0.0160
20434W        W36695   5.062  18.544  10.409 -0.1868 -0.0934 -0.2480
20435W        W36696   1.504   7.243  13.526 -0.0724 -0.0230 -0.0719
20436W        W36697  11.117   4.596   2.996 -0.1686  0.1269 -0.0667
20437W        W36698   8.128   0.020   3.839  0.2679  0.0010  0.2264
20438W        W36699   1.624  16.124   3.991  0.1488  0.0998  0.1308
20439W        W36700   7.087   2.973   3.947 -0.0067  0.2575 -0.0809
20440W        W36701  17.167  12.297   0.738  0.0006  0.2124 -0.2413
20441W        W36702   8.525   1.322   1.793  0.1782 -0.2179 -0.2865
20442W        W36703  15.465   2.765  11.301 -0.2047  0.1886  0.0770
20443W        W36704  16.381   5.972  10.632 -0.0800 -0.0583  0.1860
20444W        W36705   4.290   7.223  11.028 -0.1846 -0.0023  0.1277
20445W        W36706   6.311   2.886  10.639 -0.2160 -0.0132 -0.1627
20446W        W36707   3.641  17.798  11.002 -0.2362 -0.0249 -0.0005
20447W        W36708   8.932   3.318  14.479  0.1229 -0.0968  0.1405
20448W        W36709  16.060  15.009  12.824  0.0394  0.0384  0.2350
20449W        W36710  14.148   2.149   0.674 -0.1487 -0.2433 -0.1533
20450W        W36711  16.385  12.080   1.475  0.0309  0.1208  0.0676
20451W        W36712   2.523  11.873  13.247 -0.4059  0.0988  0.0573
20452W        W36713  14.006   1.061   9.876  0.2099 -0.1527  0.1613
20453W        W36714   8.412   4.132  10.848 -0.2068  0.0019 -0.1555
20454W        W36715   6.254   2.419   4.017  0.0249  0.3058  0.3353
20455W        W36716   0.692   3.091  13.312  0.1070  0.0444  0.1857
20456W        W36717   9.918   3.908   2.243  0.1678 -0.1321  0.1188
20457W        W36718   7.798  14.579   1.330 -0.0934  0.2218 -0.3241
20458W        W36719   9.417  18.337   1.737  0.1625 -0.1944  0.0897
20459W        W36720   0.119   1.486   3.520 -0.0151  0.0569 -0.0734
20460W        W36721  14.601  10.350  11.223 -0.0079  0.1866  0.0585
20461W        W36722   5.782   2.338  13.435  0.0222  0.0936 -0.0486
20462W        W36723   6.302  18.230  12.644 -0.1677 -0.3760  0.0724
20463W        W36724  10.274  18.391   3.177  0.3985 -0.0864  0.2444
20464W        W36725   5.801   1.996  12.463  0.1541  0.0624  0.1873
20465W        W36726  19.189   0.583  13.322 -0.0124  0.2320  0.0151
20466W        W36727   5.699   8.572   3.784 -0.0781 -0.1656  0.0741
20467W        W36728  16.783  17.332  10.253  0.1257  0.1953  0.0808
20468W        W36729  19.115  12.484  14.004  0.0701  0.3583  0.0457
20469W        W36730  14.935  14.449   4.544  0.0656 -0.0674 -0.1198
20470W        W36731  14.149   4.777  13.372 -0.0178 -0.1033 -0.0917
20471W        W36732   7.829   9.637  13.183  0.1150  0.0356 -0.0656
20472W        W36733  15.089  18.958   3.624 -0.0662 -0.1348 -0.0191
20473W        W36734   3.045  14.253   5.333  0.1956 -0.0844 -0.3008
20474W        W36735   3.277  11.001  10.861 -0.0704 -0.0630  0.1619
20475W        W36736  10.823   9.736  12.112  0.1424 -0.0520 -0.1541
20476W        W36737  18.017  17.535  14.349  0.4447 -0.1619 -0.0756
20477W        W36738  18.837   3.544  11.465  0.0720  0.2009  0.0436
20478W        W36739   1.585  13.228  10.658  0.5186 -0.1888 -0.3118
20479W        W36740  12.725   3.036   1.140  0.2152 -0.0204  0.1009
20480W        W36741  17.257   0.471   0.497  0.0349 -0.2357  0.2735
20481W        W36742   3.043  15.341   1.225 -0.0505 -0.2015 -0.0297
20482W        W36743   9.234  16.204   2.031  0.0279 -0.0183 -0.1050
20483W        W36744   5.850   8.786  10.605 -0.3926 -0.0584 -0.0287
20484W        W36745  14.121  10.856  10.784 -0.0191  0.3097  0.0065
20485W        W36746  19.053   5.224   3.505 -0.1105 -0.0557 -0.1105
20486W        W36747   9.468  15.672  12.460 -0.3258 -0.0909  0.0396
20487W        W36748  19.115   0.538   2.994  0.0781 -0.2127 -0.0226
20488W        W36749   7.492  16.179   4.533 -0.1597  0.0942 -0.3837
20489W        W36750   4.109  16.869  10.831 -0.1714 -0.1151  0.2072
20490W        W36751  17.640  12.354   3.647 -0.2593  0.1171  0.3917
20491W        W36752  13.130  13.021   3.355  0.0717 -0.0877 -0.0127
20492W        W36753  18.874  11.929   1.391 -0.0964 -0.3037 -0.1030
20493W        W36754   8.740  11.282  11.650  0.5355 -0.0858  0.1831
20494W        W36755   0.669   8.011  13.167  0.1181 -0.0103 -0.0184
20495W        W36756   7.142   7.337   0.730 -0.0624  0.1123  0.0739
20496W        W36757   2.027  17.250  11.816  0.0087 -0.3591  0.1895
20497W        W36758  16.288  13.370  10.178  0.4015  0.1398 -0.2517
20498W        W36759   9.839   5.233   1.870 -0.0237 -0.2252  0.3059
20499W        W36760  14.075   5.315  12.786 -0.2114  0.1238 -0.1536
20500W        W36761  18.710  18.847   4.396  0.0462 -0.2371 -0.0691
20501W        W36762   8.359   9.018  13.754 -0.0968 -0.2617 -0.1416
20502W        W36763   7.200  10.156  10.559  0.1887  0.1777 -0.0183
20503W        W36764  14.558  15.965  14.794  0.1494  0.4675 -0.0086
20504W        W36765   0.187  12.959   0.220  0.1836 -0.0971 -0.2280
20505W        W36766   6.101  18.000  11.237  0.0240  0.1104  0.1602
20506W        W36767   5.070  13.934   0.307  0.1041  0.1143 -0.2002
20507W        W36768   8.953   1.857   5.226  0.0280  0.2901 -0.0052
20508W        W36769   5.302   3.431   2.010  0.1203  0.0689  0.0320
20509W        W36770  16.719  10.226   0.061 -0.0657 -0.3186 -0.0522
20510W        W36771   5.281   4.161  12.310 -0.0710 -0.1466 -0.0630
20511W        W36772   0.706   6.164  10.851 -0.0532  0.0956  0.0901
20512W        W36773   5.958   3.959  12.817  0.2782  0.1544 -0.0233
20513W        W36774  10.554  12.880   3.970 -0.0297  0.0171  0.1218
20514W        W36775   4.567   9.637  11.766  0.2507 -0.5371 -0.1000
20515W        W36776   4.845  15.646   3.249 -0.1179 -0.0684 -0.4088
20516W        W36777   8.598  14.728  12.105  0.1699 -0.1280 -0.2082
20517W        W36778  13.902  11.470  13.794  0.0417  0.0694  0.1671
20518W        W36779   1.105  12.857   0.203 -0.0577  0.0301  0.0180
20519W        W36780  16.413  17.425   1.955 -0.0421  0.0709  0.2377
20520W        W36781   8.453  14.163   1.974  0.0988 -0.3428  0.2192
20521W        W36782   2.063  19.380   2.595 -0.2756 -0.0775  0.0787
20522W        W36783  12.655  17.418   1.692  0.1790  0.1883 -0.1830
20523W        W36784   5.672   1.265  11.087 -0.4095  0.2794 -0.2065
20524W        W36785  11.418   0.103   0.329  0.2080 -0.0160 -0.2471
20525W        W36786   0.183   1.149  12.982 -0.1122  0.3282  0.0714
20526W        W36787  14.857  14.188   3.220  0.1544 -0.2868 -0.4383
20527W        W36788   9.117  19.304  10.192 -0.0001 -0.1550 -0.0045
20528W        W36789  15.407   3.012  14.575  0.0787 -0.1816 -0.2325
20529W        W36790   2.254  14.358   4.182  0.2313  0.1169  0.0773
20530W        W36791  19.069  13.645  13.319  0.0108 -0.3758 -0.0469
20531W        W36792   4.438  14.621   3.269  0.2031  0.0022  0.5564
20532W        W36793   1.654   8.252   0.410  0.0304 -0.0264 -0.1144
20533W        W36794   8.721   9.519  13.224  0.0678 -0.0447  0.1538
20534W        W36795   3.570  12.546  11.870 -0.0151 -0.1677 -0.1922
20535W        W36796   2.635   7.612  13.068 -0.1351 -0.1600 -0.1581
20536W        W36797  14.338  19.391  13.481 -0.3987 -0.2373 -0.2210
20537W        W36798   5.052  18.431   4.690  0.0904 -0.2137 -0.1865
20538W        W36799  18.915   3.905   1.530  0.0051 -0.3765 -0.1417
20539W        W36800   5.672   2.349  12.112  0.2319  0.0077  0.0223
20540W        W36801   7.819   5.010   1.911  0.3587  0.0647  0.0394
20541W        W36802  17.707   1.741   2.573 -0.0047 -0.2166  0.1253
20542W        W36803   4.266   5.694   0.735  0.1065  0.1186  0.2027
20543W        W36804  15.910  17.928  10.331  0.2698 -0.0439 -0.2115
20544W        W36805   8.253   0.294  12.155  0.1301  0.2337  0.3114
20545W        W36806  15.322   3.291   0.077 -0.1059  0.1480  0.0022
20546W        W36807  13.183  13.988   3.262 -0.3088  0.1401 -0.1324
20547W        W36808  17.033   4.084  14.693  0.1595  0.0209 -0.0754
20548W        W36809  11.018   3.345  14.703  0.1098  0.1687 -0.1959
20549W        W36810   2.841   5.808  11.528  0.0375  0.1207  0.1110
20550W        W36811   3.814   2.635   4.268 -0.0660  0.4150 -0.3074
20551W        W36812  10.396  15.087  12.992  0.3214 -0.1519  0.2145
20552W        W36813   9.410   3.539   1.026  0.2965  0.1025  0.1842
20553W        W36814  11.659   4.931   0.186  0.2600  0.1528 -0.1852
20554W        W36815  17.716  13.312  13.941 -0.2818 -0.1580  0.1517
20555W        W36816   6.022   6.229   0.766  0.1040  0.0365 -0.0864
20556W        W36817  14.581   8.560   4.402  0.4437  0.2827  0.4048
20557W        W36818  13.936  10.550   1.844  0.3327 -0.4245  0.1264
20558W        W36819   8.262   6.681   3.889  0.2497 -0.1081 -0.0669
20559W        W36820  11.119   5.849   2.122 -0.0640  0.1399 -0.0451
20560W        W36821   9.829  15.736   4.043  0.2033  0.0639 -0.0065
20561W        W36822   6.435  18.749   1.128 -0.2790  0.4238 -0.0416
20562W        W36823  18.481  11.132  14.250 -0.0918 -0.1414 -0.0955
20563W        W36824  15.642  15.062  13.224 -0.1314  0.1733 -0.0600
20564W        W36825   6.581  14.304  13.960  0.1861  0.2017 -0.0500
20565W        W36826  10.068   8.631   4.924  0.1208 -0.0990 -0.1363
20566W        W36827   0.896  18.831  12.973  0.2776  0.0974 -0.1020
20567W        W36828  16.151   4.883   3.786  0.1026 -0.1322 -0.1069
20568W        W36829   1.492  13.621  14.713  0.4625  0.0130  0.5389
20569W        W36830   4.921   6.097  14.793 -0.0670  0.5716  0.3523
20570W        W36831  19.392  12.473   3.625  0.0794  0.4334 -0.0638
20571W        W36832   8.406   9.715   2.484 -0.1204  0.1527 -0.0303
20572W        W36833   3.467   1.184   1.873  0.3736 -0.1374  0.2193
20573W        W36834  14.222  10.497  10.018  0.0562  0.2481 -0.2910
20574W        W36835   1.899  17.157  10.489  0.2485  0.0413  0.0948
20575W        W36836   1.345   0.533   2.703  0.0030  0.4327 -0.0052
20576W        W36837   3.774   2.760   1.095  0.1641  0.0761  0.1256
20577W        W36838  18.738   8.122  10.796 -0.0091 -0.2195 -0.0989
20578W        W36839   4.054   6.623  13.246 -0.2472  0.2557 -0.2248
20579W        W36840  15.267  15.327  11.320 -0.2535 -0.0483 -0.1203
20580W        W36841  16.297  18.236   3.894 -0.0936 -0.1439  0.2279
20581W        W36842   9.686  13.162   0.698 -0.3531 -0.0561  0.0018
20582W        W36843   1.681  17.816  11.138 -0.0165 -0.1095  0.0712
20583W        W36844  10.036   5.875   1.393 -0.0788  0.0604  0.2300
20584W        W36845  11.604   4.958  10.725 -0.2833  0.0251 -0.1927
20585W        W36846   6.234   8.863  11.038 -0.0766  0.2051  0.2706
20586W        W36847   7.972  17.340   3.913  0.1696  0.2947 -0.1941
20587W        W36848   0.757   7.132  11.920 -0.0328 -0.2610  0.0542
20588W        W36849  11.718  17.632  10.516 -0.0019 -0.1709 -0.1055
20589W        W36850   6.763   2.618   4.719 -0.2997 -0.0032 -0.3569
20590W        W36851   8.655   6.449   1.144  0.0127 -0.2029 -0.2334
20591W        W36852   5.357  15.931   4.866  0.1029  0.2074  0.2197
20592W        W36853  15.157  16.078   0.520 -0.2812 -0.2122  0.3148
20593W        W36854   4.639  19.126  10.779  0.1423 -0.2993 -0.4186
20594W        W36855  12.991  16.125  11.557  0.0498 -0.0946  0.1709
20595W        W36856   8.312  13.712   4.524 -0.0025 -0.1384  0.0302
20596W        W36857   2.481   5.539   2.753  0.3408  0.2408  0.1645
20597W        W36858   5.807  11.595   0.828 -0.0085 -0.4227 -0.1304
20598W        W36859  19.365   6.267   5.090  0.2417  0.1803 -0.0516
20599W        W36860  12.075  11.409  10.686  0.0310 -0.4598 -0.2431
20600W        W36861  19.001   6.062  14.766 -0.1683  0.0017 -0.3151
20601W        W36862   7.498   6.244   0.692  0.2314 -0.2238 -0.3566
20602W        W36863   2.501   4.108  12.756  0.1078  0.0136  0.1727
20603W        W36864   3.462  14.005  11.855  0.1857 -0.1039 -0.4366
20604W        W36865   8.497   6.246  12.669 -0.3111 -0.0375  0.0142
20605W        W36866   2.928   1.055  10.832 -0.2886  0.1771 -0.1338
20606W        W36867  15.719  13.550   3.448 -0.0886  0.0003 -0.1308
20607W        W36868  12.503  10.973   3.926  0.2812  0.2166 -0.0564
20608W        W36869  16.227   7.730   1.347 -0.0130  0.3762 -0.2517
20609W        W36870  11.135  13.763  13.184 -0.0059 -0.0635  0.2248
20610W        W36871   3.062  14.476   2.111  0.0308  0.4077  0.1848
20611W        W36872   5.905  11.770  11.274 -0.1378  0.4019 -0.0404
20612W        W36873   3.318  17.782   5.218  0.0297  0.0731  0.3769
20613W        W36874   9.921  13.644  14.327  0.0326  0.2052 -0.1803
20614W        W36875   5.978   6.841   0.451 -0.3435  0.1829 -0.0679
20615W        W36876   0.409   2.948  12.139 -0.2967  0.2260 -0.0365
20616W        W36877  18.811   7.889  13.709  0.2923  0.0726 -0.0212
20617W        W36878   4.900   4.321  11.304  0.0018 -0.0925 -0.1513
20618W        W36879  14.968   9.557   3.992  0.1496 -0.1514  0.0838
20619W        W36880   1.650   8.729  11.936 -0.2247 -0.2670 -0.4185
20620W        W36881  17.372   7.371  14.040 -0.0022 -0.2069 -0.2989
20621W        W36882   0.691   5.395   1.765 -0.1517  0.1761  0.0626
20622W        W36883   9.629   1.179   5.427 -0.2532 -0.0386  0.1028
20623W        W36884  11.279  16.383   2.258  0.0448 -0.0711  0.0968
20624W        W36885   4.678  10.642   2.666 -0.1120  0.1809  0.2419
20625W        W36886   1.375   7.288  12.469 -0.0729  0.1351 -0.0846
20626W        W36887   3.071  15.455   0.722  0.0199 -0.0100  0.0756
20627W        W36888   6.425   5.723   0.008 -0.1698 -0.0795  0.3045
20628W        W36889  15.944   8.361   3.548 -0.0809 -0.3166 -0.0296
20629W        W36890   1.429   4.135   5.339  0.2525  0.1360  0.3880
20630W        W36891   8.822   0.493  10.553 -0.1041  0.1893 -0.2457
20631W        W36892   9.449   3.332  11.921  0.1502  0.1274  0.3417
20632W        W36893   5.150   6.681  11.501  0.1341 -0.3205 -0.2786
20633W        W36894   2.295   5.637  14.664  0.1318 -0.3943  0.1184
20634W        W36895  10.874   6.105   3.621  0.2694 -0.2249 -0.1321
20635W        W36896   8.948   5.058  10.990 -0.0497  0.0242 -0.0192
20636W        W36897   4.142   0.406  14.687  0.1938 -0.1330  0.4565
20637W        W36898   7.600  14.641   4.811 -0.1631  0.2200  0.2211
20638W        W36899   9.558   3.960   1.322 -0.1773  0.1144  0.0475
20639W        W36900  11.132   9.891   4.000 -0.0272  0.0746  0.1859
20640W        W36901  18.588  10.101  11.803  0.3665  0.1737 -0.1387
20641W        W36902   8.319  14.581   2.856  0.2281  0.3008 -0.0478
20642W        W36903   8.275   4.357  11.353 -0.0262  0.0201 -0.1769
20643W        W36904   3.008  16.786   5.358 -0.0257 -0.1335 -0.2397
20644W        W36905  10.806  14.369  12.512 -0.1895 -0.0991  0.0265
20645W        W36906   0.489   2.725  11.621  0.0106  0.0685  0.1231
20646W        W36907   9.281   6.876   2.317 -0.0331  0.3058 -0.2069
20647W        W36908  14.323  12.196  11.203 -0.2037 -0.1685 -0.3395
20648W        W36909  14.038  10.735  14.387  0.1408  0.2016 -0.0364
20649W        W36910  17.814   8.657   1.166 -0.0092  0.2013  0.1432
20650W        W36911   5.546  13.733   1.552 -0.2242  0.2098 -0.3303
20651W        W36912   9.323   8.948   1.142 -0.0147 -0.1526  0.1071
20652W        W36913   8.064   5.431  13.996 -0.3740 -0.0556  0.1681
20653W        W36914   1.014   3.070  14.720  0.2062  0.1847  0.2021
20654W        W36915  15.310   2.704   4.645  0.1405  0.1055 -0.1981
20655W        W36916  12.986  11.816   0.262  0.1285 -0.1492 -0.0104
20656W        W36917  13.908  13.862   4.400 -0.0225 -0.2433 -0.2125
20657W        W36918  14.425   0.586  12.149  0.1120 -0.0585  0.3089
20658W        W36919  16.290  16.768   2.467 -0.0949 -0.0254 -0.3551
20659W        W36920   2.404   3.859   3.223  0.0287  0.1517  0.0086
20660W        W36921  17.206   9.873  10.310 -0.0541 -0.0182 -0.3208
20661W        W36922  16.689  12.451   0.583 -0.0826 -0.4117 -0.1954
20662W        W36923   1.422   5.600   1.528 -0.0551 -0.3783  0.2472
20663W        W36924  15.311  12.061  11.048 -0.0684 -0.1227 -0.0475
20664W        W36925   6.048   2.061   0.794 -0.1913  0.1128 -0.0103
20665W        W36926   9.505   2.238  12.920  0.0226  0.1733 -0.2126
20666W        W36927  15.256  11.236   3.674 -0.1255  0.3998  0.2237
20667W        W36928   5.983   8.951   4.061  0.3353  0.0435  0.1079
20668W        W36929   0.674  14.176  14.397 -0.3203  0.0824 -0.1260
20669W        W36930  14.470   3.627   3.694  0.2330  0.2948  0.0378
20670W        W36931  14.142   6.457  14.749  0.0030 -0.1095  0.0539
20671W        W36932  17.349  14.223  12.956  0.0169 -0.1917 -0.1794
20672W        W36933   8.133   5.868   2.639 -0.1034  0.0943  0.1805
20673W        W36934   9.282  13.491  11.555  0.0933 -0.3486  0.2959
20674W        W36935  11.646  16.989  12.615  0.5051 -0.0144  0.0937
20675W        W36936   1.371   2.009   2.870  0.1255  0.3577  0.1634
20676W        W36937   5.603   7.508  12.486  0.2936 -0.1311 -0.3327
20677W        W36938  14.389  12.169   3.834 -0.0280 -0.1230  0.2758
20678W        W36939  13.377  12.121   3.064 -0.0481 -0.2756 -0.1891
20679W        W36940   8.135  18.840  13.975  0.0872  0.1081 -0.0543
20680W        W36941  19.015   2.235  12.360 -0.4600  0.0463  0.0654
20681W        W36942   9.695   2.542   9.216 -0.0846  0.1085  0.2559
20682W        W36943  15.699   4.254  14.883 -0.2280 -0.3785  0.0665
20683W        W36944   1.143   0.928   2.353  0.3026 -0.0670  0.2350
20684W        W36945  11.005   1.513   2.012 -0.0219  0.2176 -0.1442
20685W        W36946  19.210  16.216   2.730 -0.1219 -0.0411  0.2385
20686W        W36947  11.986   5.881   0.409  0.1044 -0.3559 -0.2345
20687W        W36948  12.555  12.634  14.883  0.2413 -0.3771 -0.3178
20688W        W36949  17.231  14.369   4.986  0.2126 -0.4077  0.2392
20689W        W36950   2.468  16.926  11.599 -0.0068 -0.1887 -0.1087
20690W        W36951   0.613   3.361  14.578  0.1186  0.3669 -0.2204
20691W        W36952   0.175   2.203  11.584  0.0549 -0.0719 -0.2185
20692W        W36953  18.664   6.002  14.156 -0.2935 -0.2367 -0.1851
20693W        W36954  19.330   8.500  13.069 -0.3273 -0.3091 -0.3034
20694W        W36955   6.583  14.094  12.999  0.1860 -0.3006 -0.0598
20695W        W36956  14.792   1.069  13.443  0.1900 -0.0007 -0.1190
20696W        W36957  10.127   8.898  12.310  0.1181  0.0868 -0.1683
20697W        W36958  17.066   4.067   2.819 -0.3611 -0.0822  0.1661
20698W        W36959  12.597   5.633   4.459  0.1074 -0.1197 -0.0109
20699W        W36960   4.534   9.572   4.042 -0.4684  0.1134  0.0759
20700W        W36961   8.350  18.328  13.710  0.1767 -0.0705 -0.0233
20701W        W36962   6.686   2.193   3.563  0.1412  0.2525 -0.0945
20702W        W36963  10.302   2.079  11.926 -0.1804 -0.0586 -0.1150
20703W        W36964   5.517   5.315  12.207 -0.0066 -0.0963 -0.0480
20704W        W36965  13.616   5.930   0.489 -0.0952  0.2119 -0.1974
20705W        W36966   2.866   9.005  10.091 -0.0103  0.0378  0.0727
20706W        W36967   4.121  14.897   5.801  0.1258  0.4547  0.0061
20707W        W36968  10.219  16.418   3.421 -0.0598 -0.1542  0.2740
20708W        W36969  16.058   6.513   0.332  0.0606  0.0210  0.0943
20709W        W36970  15.914  12.898   9.315 -0.0194  0.2941 -0.1993
20710W        W36971   4.465  12.260   4.774 -0.3113 -0.0793 -0.2647
20711W        W36972   9.474   7.211   3.791 -0.0749  0.2610 -0.1500
20712W        W36973  12.132   8.777  12.566  0.0594 -0.0869 -0.3725
20713W        W36974   3.260  14.942   1.970  0.0412  0.0758  0.0745
20714W        W36975   7.991  18.467  10.584 -0.1606 -0.1148 -0.0672
20715W        W36976   0.080  18.062   1.713  0.1066  0.0697 -0.1266
20716W        W36977  14.940   2.331  10.445  0.1560 -0.2260 -0.0079
20717W        W36978   0.955   2.305   3.871  0.1799  0.1791  0.0220
20718W        W36979  16.681  10.972   1.683  0.2469  0.0363 -0.3290
20719W        W36980   8.859   1.068   3.147  0.2215 -0.2022 -0.1492
20720W        W36981   4.388   0.515  14.139 -0.1599  0.1172 -0.5661
20721W        W36982   4.595  17.784  11.825 -0.0065 -0.0366 -0.3513
20722W        W36983  13.705   1.562   3.755 -0.1937 -0.1549  0.1102
20723W        W36984  17.568   4.245   1.760  0.0451  0.2584  0.0020
20724W        W36985   8.520  11.750  13.625  0.0223  0.1448 -0.0069
20725W        W36986  17.797   5.630   3.910  0.1192  0.3165  0.1595
20726W        W36987   8.637  17.770   2.960 -0.1494  0.2344  0.3598
20727W        W36988   0.462   2.419  12.154 -0.0727  0.1341  0.2843
20728W        W36989   1.995   4.574  12.286 -0.3178 -0.0368  0.3005
20729W        W36990   1.576   8.045   5.028  0.1906 -0.3165  0.0575
20730W        W36991   2.766  18.479  12.247 -0.2080  0.3059  0.0038
20731W        W36992   0.215  10.358  11.261  0.3511  0.1560  0.3567
20732W        W36993  18.800  12.949   0.075 -0.1271  0.2148  0.1721
20733W        W36994  14.514  11.786  14.860 -0.0197  0.3258  0.1298
20734W        W36995  18.612  15.009   2.737  0.0752  0.2412  0.0148
20735W        W36996  11.465   0.356  12.225  0.0950 -0.0524 -0.1102
20736W        W36997  16.764   9.667   4.436 -0.1663 -0.0213  0.0152
20737W        W36998   9.449   4.301  10.580  0.0167 -0.2506  0.4082
20738W        W36999   4.756   6.676   1.290 -0.1870  0.1139 -0.6619
20739W        W37000  16.175  10.188  13.655  0.0554  0.0762 -0.1339
20740W        W37001   1.477   2.469   3.063 -0.2078  0.2839  0.1158
20741W        W37002   1.422   8.242   1.235 -0.0112 -0.0408  0.0699
20742W        W37003  18.467   3.779   1.713  0.2304  0.2568 -0.4116
20743W        W37004   1.570  13.199   0.576 -0.0068  0.0370 -0.1797
20744W        W37005  19.129   8.042  12.230 -0.1150 -0.2335 -0.2090
20745W        W37006   8.380   8.170  14.676  0.1428  0.1920 -0.2056
20746W        W37007   4.029   8.016   2.344  0.3353  0.1668  0.2315
20747W        W37008  18.460  15.351  14.118  0.0094  0.2438  0.2629
20748W        W37009   2.967  12.951   5.478 -0.2215  0.1786  0.0375
20749W        W37010   4.656  12.499  11.065  0.2199 -0.0829  0.2920
20750W        W37011   1.599   8.363   4.262  0.1889 -0.0445 -0.1163
20751W        W37012  18.728   1.900   2.963  0.2559  0.1953 -0.0652
20752W        W37013   4.073  13.239  14.541  0.0798 -0.3242  0.2207
20753W        W37014   8.135  11.981  14.621  0.1446  0.0057 -0.1827
20754W        W37015   3.557  14.277  13.940 -0.0766  0.0848 -0.0922
20755W        W37016  11.156   6.994  12.744  0.1715 -0.1102  0.3229
20756W        W37017   2.839  14.376   2.963 -0.3232 -0.0588 -0.0285
20757W        W37018  19.323  10.318   5.404  0.1375  0.1210  0.0177
20758W        W37019  11.112  17.490   1.295 -0.2824 -0.1066 -0.2512
20759W        W37020   8.306  14.049   4.051  0.1270  0.1521  0.1621
20760W        W37021  11.491   5.770  14.277  0.1363 -0.1099 -0.0900
20761W        W37022   9.457   2.527   3.424  0.1879 -0.0340  0.2487
20762W        W37023  11.924   5.139   1.674 -0.0813  0.2673 -0.0949
20763W        W37024  13.239   9.494   1.375 -0.1156 -0.1568 -0.1657
20764W        W37025  13.823  19.094   2.000 -0.1511  0.1956  0.0807
20765W        W37026   6.863   9.016   2.816 -0.0805  0.0748  0.2689
20766W        W37027   5.609  15.841  14.020  0.1318 -0.0772  0.2211
20767W        W37028  14.592  13.944  10.242  0.1125 -0.0493 -0.0719
20768W        W37029   5.646  18.187   1.472  0.1290  0.1311  0.2832
20769W        W37030  12.996  17.970   2.324  0.0860  0.0992  0.0126
20770W        W37031   5.651   1.328   1.084 -0.1199  0.0854 -0.0150
20771W        W37032  17.197   4.979   1.394 -0.0196  0.2416 -0.1540
20772W        W37033   4.423  11.066   2.843  0.0820  0.0203 -0.0493
20773W        W37034   8.545   0.701   4.955  0.2162 -0.2913  0.0341
20774W        W37035   3.483  14.549   1.754  0.0439  0.0169 -0.0781
20775W        W37036  17.235   3.835   3.917  0.1047  0.2480 -0.1555
20776W        W37037   4.678  18.225   3.017  0.1388 -0.1532  0.0856
20777W        W37038  15.587  15.706   0.843  0.1265 -0.2076 -0.3569
20778W        W37039  10.873  14.793  12.767 -0.0152  0.2795  0.0509
20779W        W37040  16.077   5.722  14.647  0.3618  0.0768 -0.1438
20780W        W37041  18.121   0.206  12.625  0.0405 -0.1316  0.1207
20781W        W37042   9.084  17.502   1.719  0.1265 -0.0713 -0.4617
20782W        W37043  10.404   7.062   2.158  0.1481 -0.2797 -0.1728
20783W        W37044   4.437   7.693   2.770 -0.1420 -0.4321 -0.0803
20784W        W37045  10.400  13.524  14.272  0.0723  0.3086  0.0176
20785W        W37046   9.170  16.443  10.281  0.1232 -0.1948 -0.0848
20786W        W37047  11.956   4.590  12.211  0.0531 -0.0634  0.0125
20787W        W37048  11.582   2.466   3.729  0.1494  0.0527  0.2218
20788W        W37049  19.337  13.518  14.529 -0.1772  0.0701 -0.1024
20789W        W37050   2.530  15.696   2.959 -0.2804  0.1740 -0.0910
20790W        W37051   6.379  15.409  11.188  0.0012  0.3275 -0.4030
20791W        W37052   1.454   7.503   0.591 -0.1256 -0.3225 -0.0030
20792W        W37053  17.839  10.202   4.199  0.0014 -0.0726 -0.1180
20793W        W37054   1.955   0.779   4.755 -0.1040 -0.1312  0.2798
20794W        W37055  18.003  13.113   1.823 -0.2929  0.1849 -0.1164
20795W        W37056  15.800  14.603   3.436  0.0314  0.0871  0.3771
20796W        W37057   9.225  13.802  13.623 -0.3239 -0.2359 -0.0195
20797W        W37058   6.948   7.735   4.534 -0.1999 -0.2379  0.0315
20798W        W37059   5.338  16.820  13.222  0.2661  0.0104 -0.0962
20799W        W37060   4.959   5.345   2.623 -0.0658 -0.0040  0.1657
20800W        W37061  12.110   9.275  11.594 -0.0670  0.0322  0.2967
20801W        W37062   6.829   4.430   2.033  0.2948  0.1264 -0.0435
20802W        W37063   4.363  19.282  12.787 -0.1589  0.2623 -0.1362
20803W        W37064   4.677   2.869  14.495  0.3156 -0.2268 -0.0056
20804W        W37065  12.889  10.887  11.083 -0.0798  0.0266 -0.0499
20805W        W37066   4.402   6.338   3.063 -0.2557 -0.3144 -0.1184
20806W        W37067  12.113  15.436   0.267  0.1184  0.0551 -0.0384
20807W        W37068  16.471   4.580  13.212 -0.2009  0.2454  0.2211
20808W        W37069  18.245   8.452   4.046  0.0015  0.5403  0.3502
20809W        W37070  16.729  14.849  12.776 -0.1585 -0.0473  0.3562
20810W        W37071  16.311  15.673   4.153 -0.1905  0.1660 -0.1080
20811W        W37072  16.212   2.258  10.962  0.2368  0.0553  0.1033
20812W        W37073  12.427  10.423   2.601  0.1236 -0.3926 -0.1143
20813W        W37074   6.892  12.850   3.798 -0.1854 -0.2630 -0.0864
20814W        W37075   6.591   0.629   4.180  0.1223  0.1643  0.0115
20815W        W37076  10.977   8.137  11.092 -0.1500  0.1675  0.0176
20816W        W37077  10.378   5.308  12.992 -0.3276 -0.1833  0.1360
20817W        W37078  12.465   3.150  10.609  0.1846  0.1863  0.3187
20818W        W37079   9.592   8.992  13.326  0.0118 -0.0920 -0.0759
20819W        W37080  18.386  12.845  11.635 -0.0395 -0.3461 -0.1279
20820W        W37081   0.533   2.789   2.047  0.1576 -0.0230  0.3024
20821W        W37082  17.791  11.752   2.357 -0.2038  0.2269  0.2600
20822W        W37083   5.015  19.429   1.687  0.0761  0.1086  0.0319
20823W        W37084   1.678  13.504  12.863 -0.0836  0.1366 -0.3582
20824W        W37085   6.598   3.231  14.112 -0.3218 -0.0029 -0.1500
20825W        W37086   4.008  16.641   5.595  0.4240 -0.1423  0.0207
20826W        W37087  15.763  10.287  14.114 -0.0557 -0.0034 -0.3327
20827W        W37088   4.591  15.071   1.444  0.2943 -0.1188 -0.2946
20828W        W37089   0.370  14.039   2.151 -0.0829  0.1470 -0.5408
20829W        W37090   4.867  10.604  14.749 -0.1529  0.2978 -0.0174
20830W        W37091   1.146  18.583  12.016 -0.3272 -0.1384 -0.0203
20831W        W37092  16.205   6.918   0.701  0.0547 -0.3008  0.2206
20832W        W37093  15.372   1.774   1.751 -0.1514 -0.2290 -0.0474
20833W        W37094  13.810  12.951  12.379  0.0955 -0.2019  0.0276
20834W        W37095  18.550   9.149  11.511 -0.1433  0.0980 -0.0887
20835W        W37096   5.684  13.177   0.021 -0.1079  0.1360  0.0496
20836W        W37097   5.506   4.543  12.009 -0.1195  0.5094  0.0628
20837W        W37098   9.539   5.654   0.639 -0.3278  0.1772 -0.1321
20838W        W37099   5.098  12.919  11.347 -0.3275  0.0036 -0.0461
20839W        W37100  17.047  15.309  13.062 -0.2730 -0.3746 -0.1427
20840W        W37101   0.870  17.744   0.845 -0.0625  0.2502  0.1710
20841W        W37102   8.993  17.430  11.552  0.1106 -0.0008  0.0134
20842W        W37103  11.052   9.550  13.272 -0.1201  0.0711 -0.1289
20843W        W37104   0.433  15.669   1.148 -0.2656  0.0521  0.0599
20844W        W37105   0.244  15.101  11.126  0.0302  0.0264 -0.0304
20845W        W37106   6.116  11.414  13.055  0.1699  0.0124  0.0719
20846W        W37107   9.229  13.175   0.565  0.1679  0.1650  0.2959
20847W        W37108   9.953  16.043   1.036  0.2489  0.0510 -0.0053
20848W        W37109  14.128  15.295  12.829  0.0384 -0.1291 -0.2035
20849W        W37110   1.860  17.124  14.718 -0.1982 -0.2402  0.3715
20850W        W37111   2.537  11.016  13.916  0.0800 -0.2144  0.2027
20851W        W37112   2.550  10.980  10.179 -0.2589 -0.1056 -0.3901
20852W        W37113   1.722  18.545  12.242  0.1589  0.0494  0.2184
20853W        W37114   7.065   9.134   3.783 -0.0895  0.0974  0.0707
20854W        W37115   1.187  13.308  10.912 -0.0100  0.2135  0.1880
20855W        W37116   3.495   1.104  12.767  0.1194  0.0169  0.1338
20856W        W37117   7.697  18.117  10.797  0.0360  0.1110  0.3006
20857W        W37118   9.628   4.459  13.215  0.1021 -0.0615 -0.0461
20858W        W37119  12.841  18.609  14.390  0.0243 -0.0490  0.2268
20859W        W37120  15.744  13.464  10.809  0.2920  0.5178  0.2523
20860W        W37121   7.201   6.521   4.893  0.3483 -0.2009  0.1972
20861W        W37122   5.440   2.865   3.775  0.2054  0.1488 -0.1214
20862W        W37123  16.726   6.733   2.405 -0.3469 -0.2993 -0.0781
20863W        W37124   5.209  16.796  12.400  0.4375 -0.2488  0.2661
20864W        W37125   4.620  14.362  13.657 -0.2122 -0.0876 -0.2644
20865W        W37126   0.274   1.782  12.890  0.1548 -0.2346 -0.0404
20866W        W37127  10.595   0.022  10.389  0.1286  0.3544  0.0188
20867W        W37128   2.797  18.828   4.567 -0.0045 -0.2306  0.1763
20868W        W37129   8.529  18.502  11.616 -0.2206 -0.2749 -0.2164
20869W        W37130  12.264   3.489   3.598 -0.1674  0.1305 -0.0872
20870W        W37131   1.587  17.145   1.346  0.0334 -0.2248  0.1101
20871W        W37132  16.624  15.846  14.548  0.2699  0.1732 -0.3026
20872W        W37133   9.880   3.462   1.997 -0.0509 -0.0670 -0.2703
20873W        W37134   9.934  15.185  14.497  0.0979 -0.0136 -0.4535
20874W        W37135  11.222  14.197   0.027 -0.2714  0.3466  0.2134
20875W        W37136  18.700   5.060   3.094  0.1586  0.4724  0.2511
20876W        W37137  14.630  15.926  13.076 -0.2567 -0.1089 -0.0445
20877W        W37138   8.382  12.794   9.924  0.1794 -0.0503 -0.2980
20878W        W37139  14.766  13.014  13.132 -0.1480  0.1017 -0.1378
20879W        W37140  18.569   4.450   0.384 -0.1793  0.1266  0.2383
20880W        W37141  13.737  15.634   0.448  0.1499 -0.1547 -0.1714
20881W        W37142   1.742   3.347  13.058  0.1729  0.1564 -0.4089
20882W        W37143   6.162  12.012  11.917 -0.3978 -0.1318  0.0600
20883W        W37144  13.058   7.649   2.735 -0.4445 -0.1333 -0.1741
20884W        W37145  14.724  13.537   4.486 -0.1358 -0.7390 -0.1898
20885W        W37146   2.432   7.782  13.574  0.0499 -0.0022 -0.0479
20886W        W37147   9.851  16.793  13.656 -0.0209  0.2022 -0.3253
20887W        W37148   9.185   1.401   3.386 -0.1475  0.2264 -0.1947
20888W        W37149  13.544   3.832   2.574  0.0069  0.4262 -0.1459
20889W        W37150   0.422   9.846   3.316 -0.1385  0.1190 -0.2435
20890W        W37151  18.357  13.704   4.495  0.0309 -0.1053  0.0474
20891W        W37152   2.547  11.989  11.925  0.1328  0.2763 -0.0454
20892W        W37153   3.305   2.163   3.451 -0.1079  0.0693 -0.0573
20893W        W37154  11.018   5.876  12.834 -0.0089 -0.1614  0.0808
20894W        W37155  18.044  14.610   4.966 -0.1109 -0.4357  0.0439
20895W        W37156   6.017  15.306  13.526  0.3040  0.0307 -0.0065
20896W        W37157   2.751  12.190   3.411  0.0871  0.1049 -0.0417
20897W        W37158   6.353   6.488   4.144 -0.4103 -0.0138  0.0762
20898W        W37159   0.466   4.442   1.046 -0.1952 -0.1179  0.0879
20899W        W37160  11.819   6.493   2.138 -0.3015 -0.0002 -0.4875
20900W        W37161  14.002  18.534  13.201  0.1649  0.2364  0.0734
20901W        W37162  13.979  16.273   4.392  0.3301  0.1746 -0.0189
20902W        W37163   1.604  15.431   0.475  0.0510 -0.2021 -0.4383
20903W        W37164   6.126  12.704  13.509  0.1192 -0.1640 -0.4150
20904W        W37165  13.597  10.334   0.117 -0.1259  0.0872 -0.1680
20905W        W37166   9.279  16.491   1.613 -0.3063 -0.2458  0.0915
20906W        W37167   1.796  12.499   0.700  0.4536 -0.2570  0.0596
20907W        W37168  15.605   0.916   2.840 -0.0169  0.0566 -0.2839
20908W        W37169  19.352   9.988   1.246  0.2291 -0.1510  0.1843
20909W        W37170   1.065   7.473   2.396 -0.4164 -0.0920  0.2083
20910W        W37171  14.187  18.957   4.118 -0.3524  0.0027  0.1041
20911W        W37172   2.028  18.606   4.193 -0.1902  0.2882 -0.1288
20912W        W37173   7.203   8.913   0.586  0.1342  0.0896  0.3740
20913W        W37174  11.726   5.912   1.380 -0.2221 -0.0859 -0.1470
20914W        W37175  18.273   2.382  11.512 -0.0327  0.2827  0.1881
20915W        W37176  13.128   7.856  14.253  0.1120  0.0205  0.2719
20916W        W37177   8.281  13.357  14.547 -0.1539  0.2016  0.0189
20917W        W37178  14.395  14.198   0.102  0.0070 -0.2430 -0.3112
20918W        W37179   1.140   6.461   1.370  0.1902 -0.2264 -0.1333
20919W        W37180   3.797   8.170  14.530 -0.0384  0.2824 -0.0656
20920W        W37181  15.225   1.337   4.393  0.2999  0.2274 -0.0390
20921W        W37182   6.402   0.038   2.176  0.2817 -0.3188  0.3724
20922W        W37183  11.292  12.509  11.830  0.1778  0.0812 -0.1509
20923W        W37184  19.344  15.110   4.095  0.0129  0.0373  0.1339
20924W        W37185  19.392   6.584  14.571  0.1560  0.0291  0.0286
20925W        W37186  11.112   8.904  14.500 -0.1780  0.1066 -0.3229
20926W        W37187  17.172  16.674  11.404  0.1863  0.0420  0.1026
20927W        W37188  14.554  18.019  13.514 -0.1102 -0.1177  0.1291
20928W        W37189   2.818   9.419   5.333  0.2597 -0.0008 -0.0197
20929W        W37190  10.261   6.186   4.181  0.1602 -0.1049  0.1978
20930W        W37191  11.108  19.345  10.931 -0.0677 -0.3368 -0.0696
20931W        W37192   4.103  12.610   0.334 -0.0733 -0.2403  0.0184
20932W        W37193   2.938  10.201  11.343  0.1784 -0.1651  0.0449
20933W        W37194  10.612   8.333  12.804 -0.0609 -0.1095  0.0081
20934W        W37195   7.043  17.549  11.499  0.3273  0.2727  0.0310
20935W        W37196   8.526  11.472   1.011 -0.4541 -0.0176 -0.6411
20936W        W37197   2.626  13.661   1.121  0.2012  0.2693 -0.1466
20937W        W37198  10.441  11.945   5.124 -0.0166  0.2383 -0.1540
20938W        W37199   0.838   6.621   0.577  0.4339 -0.0431  0.3876
20939W        W37200   2.737   7.766   1.653 -0.3000  0.1911  0.0481
20940W        W37201   0.178   6.218   1.502 -0.0339  0.0847  0.2455
20941W        W37202  14.362  15.666  13.504 -0.2565 -0.1128  0.0132
20942W        W37203   8.223  14.238   0.498 -0.1308 -0.4639 -0.0761
20943W        W37204   4.996  10.095   4.464 -0.2190 -0.0930  0.1758
20944W        W37205   1.983   0.950  10.701 -0.1485  0.0664 -0.3576
20945W        W37206   3.253  12.343  10.303 -0.3068  0.3365  0.1300
20946W        W37207  10.427   1.906  12.572  0.0129  0.2531  0.4499
20947W        W37208   9.401  15.193  13.529 -0.0505  0.1088 -0.0678
20948W        W37209  11.254  18.233  13.291  0.3116  0.3584 -0.0134
20949W        W37210   0.463   9.807  13.479 -0.3516 -0.0423 -0.0647
20950W        W37211   2.240  17.353   3.189  0.3304  0.2128  0.0366
20951W        W37212   6.611  13.316   4.008 -0.0228  0.2796  0.4065
20952W        W37213   2.172  16.024   2.657  0.0347  0.0108 -0.0601
20953W        W37214   2.228   1.900  12.751 -0.0280  0.1984 -0.0046
20954W        W37215  11.815   3.059  13.013 -0.0117 -0.0873 -0.1748
20955W        W37216  18.778  18.831   3.898 -0.0610 -0.0109 -0.1646
20956W        W37217  18.412  17.847  12.758  0.0948  0.0114  0.1438
20957W        W37218   6.693  13.736  12.682 -0.3135  0.0743  0.1228
20958W        W37219  18.291   9.116   4.385 -0.1474 -0.2205  0.1051
20959W        W37220  18.679  10.284  10.464  0.0923 -0.3291  0.0486
20960W        W37221   8.699  14.964   3.999 -0.3473  0.0994  0.2583
20961W        W37222  15.966   5.209   1.544  0.0243  0.1820 -0.5155
20962W        W37223  14.069   1.236   4.473 -0.0517  0.3685  0.1101
20963W        W37224   7.069  11.995  14.285 -0.4904  0.0991 -0.2504
20964W        W37225  17.588  14.078  12.433 -0.1630  0.3900  0.0743
20965W        W37226  13.736   1.345  13.923 -0.3352 -0.1688 -0.1779
20966W        W37227   2.163  13.347   4.259  0.3053  0.0124 -0.0043
20967W        W37228  16.099   6.649  13.596  0.1091 -0.2681  0.2660
20968W        W37229  17.690  15.746   0.603 -0.2104 -0.0918  0.2124
20969W        W37230  16.376  12.961  12.170  0.2649  0.2286 -0.2201
20970W        W37231  10.556  12.676   2.687  0.1220  0.2754  0.1721
20971W        W37232   1.817  14.524   1.059  0.0020 -0.0740 -0.1690
20972W        W37233   1.356   4.389   2.894 -0.1087 -0.0125 -0.4236
20973W        W37234  18.887  13.676  14.315 -0.1852 -0.0949  0.1031
20974W        W37235  19.431   0.244   5.702  0.4875  0.0364 -0.0310
20975W        W37236  11.538   4.519   9.230 -0.0189  0.0579  0.0793
20976W        W37237  15.258  12.960  11.306  0.2482  0.1456  0.0301
20977W        W37238   9.715  17.628   1.159  0.0671  0.0980 -0.1120
20978W        W37239   0.672  11.389   4.691 -0.0635  0.0332 -0.0619
20979W        W37240   4.163  18.327   3.228 -0.0143 -0.0847 -0.3961
20980W        W37241  11.100  10.213  11.977 -0.1555 -0.0194 -0.0492
20981W        W37242   8.861  18.244  11.938  0.0567 -0.1554  0.1083
20982W        W37243   0.065  13.900  11.497  0.1567 -0.2175  0.0532
20983W        W37244  14.517  18.898  12.647  0.0895 -0.1013  0.0003
20984W        W37245   7.354   9.991  14.850  0.0244  0.0830 -0.2857
20985W        W37246  12.691   0.623  10.597  0.3764  0.3236 -0.1126
20986W        W37247  11.505  14.245   3.353 -0.0486  0.2509  0.0041
20987W        W37248   4.772  17.018  12.149  0.2280  0.2325 -0.0449
20988W        W37249  14.792  17.471   9.752 -0.0664 -0.0630 -0.0287
20989W        W37250   3.348   5.656   2.236  0.0635  0.1499  0.1786
20990W        W37251   3.095  18.081   2.845 -0.2228 -0.2282  0.0347
20991W        W37252  14.274  15.812   5.007 -0.2760 -0.1886 -0.0852
20992W        W37253  16.530   3.512   3.285 -0.0982  0.0742  0.0009
20993W        W37254   9.511  17.428  13.931  0.1512 -0.1289  0.0117
20994W        W37255   2.331  16.047   3.220  0.1210 -0.1160 -0.1119
20995W        W37256   7.592  14.629  14.762 -0.3452 -0.2010 -0.2739
20996W        W37257   6.862   4.475  10.597  0.1102 -0.0587  0.1678
20997W        W37258  14.326   7.823   2.189  0.0745 -0.1027 -0.0900
20998W        W37259  17.287   9.325   0.551 -0.4049 -0.3305  0.1094
20999W        W37260  15.888   2.979  13.728 -0.1847  0.2179 -0.2165
21000W        W37261   2.791  15.488   0.119  0.0360  0.0855  0.2287
21001W        W37262  10.857   9.953   1.413 -0.2447 -0.0809  0.2043
21002W        W37263   1.540   6.199   0.508  0.0451  0.0184 -0.1302
21003W        W37264   7.092  14.000   4.530 -0.2847  0.0006  0.3270
21004W        W37265  18.416  14.969   2.234 -0.0623 -0.0503 -0.2979
21005W        W37266   1.788  17.068   3.380  0.0963  0.3776 -0.0078
21006W        W37267  15.082   9.024  10.875  0.0467 -0.1388 -0.2815
21007W        W37268   0.889  13.616  12.260  0.0968 -0.3783 -0.1292
21008W        W37269  11.486  15.778   2.986 -0.2905  0.1438 -0.0454
21009W        W37270  12.471  15.881   0.641  0.0083 -0.2142 -0.0201
21010W        W37271   6.511   4.739   4.335 -0.2925  0.3013  0.1877
21011W        W37272   8.572   3.031  10.365  0.0925  0.0346  0.0216
21012W        W37273   0.023  15.219   1.839 -0.3123 -0.0589 -0.1184
21013W        W37274  10.517   5.220   5.550 -0.1334  0.0042  0.0604
21014W        W37275   8.316  12.223   3.536 -0.0216 -0.2712 -0.1006
21015W        W37276   9.037  13.210   5.328  0.1326  0.1569 -0.1837
21016W        W37277   6.912   2.057  11.809 -0.1760 -0.1198 -0.0007
21017W        W37278   2.957   2.342  11.110 -0.5165 -0.2167 -0.4857
21018W        W37279   4.196   0.122   4.125 -0.0102  0.0168 -0.2426
21019W        W37280   1.292  17.526   1.544  0.0439 -0.0959  0.4459
21020W        W37281  19.238  12.586   4.303  0.2963 -0.0198 -0.1119
21021W        W37282   0.647  12.661  10.922  0.0923 -0.1060  0.1490
21022W        W37283   3.732  14.369  13.496 -0.1273  0.0376 -0.1737
21023W        W37284   4.904  15.632   3.745 -0.0914  0.0405  0.0955
21024W        W37285   1.486   5.398  11.801 -0.2436  0.2710 -0.1581
21025W        W37286   6.854  11.500  11.222 -0.1316  0.0355 -0.0618
21026W        W37287  12.371  11.699   0.303 -0.1335  0.2922  0.1203
21027W        W37288   6.412   4.780  13.297 -0.2098 -0.0662 -0.3201
21028W        W37289   7.072  10.189   2.231  0.0503  0.0220 -0.2056
21029W        W37290   4.768   2.320   1.310 -0.0612 -0.0752 -0.1122
21030W        W37291   7.539   1.731  14.325  0.2429 -0.1033  0.0015
21031W        W37292  10.246  17.151  11.897  0.0466  0.0311  0.0193
21032W        W37293   8.050   0.739  12.883  0.2344  0.3607  0.1745
21033W        W37294  16.784   9.731  11.927 -0.0055 -0.1007 -0.0898
21034W        W37295  13.492  10.848   0.052  0.0813 -0.2358 -0.2539
21035W        W37296   2.312   5.122   3.027  0.1371  0.0272  0.0543
21036W        W37297   0.227   7.419  13.812  0.0478  0.1224  0.2667
21037W        W37298  15.322  15.460  14.883 -0.1424 -0.1807  0.0337
21038W        W37299   9.058   4.589   3.902 -0.1422  0.1680 -0.0932
21039W        W37300  16.689   0.819   2.585 -0.1260  0.1929  0.2320
21040W        W37301  11.749  12.620  13.326  0.0718  0.0098 -0.2475
21041W        W37302  17.431   9.284   3.191  0.1732 -0.1645  0.1438
21042W        W37303  13.748   7.029  11.682  0.3704 -0.4114 -0.0440
21043W        W37304   3.223  15.243   3.117 -0.0897 -0.0079 -0.1117
21044W        W37305   4.666  19.167   1.910  0.1901 -0.4104  0.4779
21045W        W37306  17.854   8.336  12.272 -0.1341  0.1963  0.2707
21046W        W37307   9.185   3.902   4.272 -0.1009  0.0335 -0.0493
21047W        W37308  17.282   9.408   1.559  0.4939  0.1019 -0.2007
21048W        W37309   3.817   1.343   3.584  0.3282 -0.0532  0.0163
21049W        W37310   7.788  10.033   0.397 -0.2490 -0.2037 -0.0217
21050W        W37311  10.099  12.449  11.152  0.2765  0.2658 -0.0492
21051W        W37312   7.442  16.703  13.033 -0.1934 -0.0130  0.1305
21052W        W37313   3.953  10.787   1.463 -0.0041 -0.0568  0.1649
21053W        W37314   5.671   2.940  12.751 -0.2967 -0.0298  0.1184
21054W        W37315   8.238   5.886  14.120 -0.2891 -0.0100 -0.3213
21055W        W37316  14.711  14.549   4.104  0.1202  0.1830  0.1294
21056W        W37317   4.882   1.662  11.322  0.0748  0.0003  0.0473
21057W        W37318   3.150   0.311  14.797  0.3471  0.2911  0.1034
21058W        W37319   6.515  17.343  13.034  0.4903 -0.0073 -0.4604
21059W        W37320   3.106   5.222   0.599 -0.0192 -0.4125  0.0751
21060W        W37321  13.098   6.155   2.045  0.1326  0.0810 -0.0784
21061W        W37322  19.290   1.901   1.817  0.0607 -0.0710 -0.2201
21062W        W37323  18.221   1.341   1.794  0.0854  0.1030  0.0170
21063W        W37324   7.882  19.443   4.764  0.0493  0.1390  0.1324
21064W        W37325  14.715  12.842   2.054 -0.0754 -0.0020  0.1999
21065W        W37326  14.066  15.079   4.459  0.0757  0.2347  0.0670
21066W        W37327  15.292   0.908  11.817 -0.1121  0.2060 -0.1584
21067W        W37328   9.351  14.616   2.772 -0.1144  0.0757 -0.2777
21068W        W37329   9.580  12.958   1.622 -0.0859 -0.3690 -0.0346
21069W        W37330  13.257   1.794  13.142  0.0498  0.0274 -0.0326
21070W        W37331  10.071  12.152   2.970  0.0467  0.0660 -0.0973
21071W        W37332   8.310  14.228   1.053 -0.1066 -0.4081 -0.2385
21072W        W37333  11.800  17.004   0.826  0.0456  0.1457 -0.0183
21073W        W37334   7.181  16.025  12.892  0.0455  0.1718 -0.0084
21074W        W37335   5.352   5.917   1.297 -0.0245 -0.4444  0.2962
21075W        W37336   4.194  10.494   2.722  0.1340 -0.3829 -0.6091
21076W        W37337   3.475   0.071  14.414  0.0805  0.1555 -0.2380
21077W        W37338   2.943   3.950   1.735 -0.2078  0.1866  0.0229
21078W        W37339  11.592   2.600   1.542 -0.0242  0.6111  0.0789
21079W        W37340   3.765   6.119  10.726 -0.0434 -0.2840 -0.0310
21080W        W37341   8.824   5.819  10.473 -0.1025  0.0333 -0.1669
21081W        W37342  10.483  10.116  11.759 -0.1292  0.0665  0.1013
21082W        W37343  16.614  19.313  11.681 -0.0519  0.4086  0.3326
21083W        W37344   6.405  11.331  11.094  0.3863  0.0207  0.2217
21084W        W37345   6.171  16.685   4.084 -0.0594  0.1342 -0.0259
21085W        W37346   9.640   0.522   1.574  0.0660 -0.1866 -0.0196
21086W        W37347   4.969  11.964  11.741 -0.3971 -0.0979 -0.0575
21087W        W37348  12.425  17.527  11.253 -0.4764 -0.2080 -0.1288
21088W        W37349  18.041  15.177   0.527 -0.2926  0.0581  0.1604
21089W        W37350   4.528  10.570   4.671  0.1059 -0.1815 -0.4363
21090W        W37351  10.212  17.220  12.834  0.1782 -0.1184 -0.0588
21091W        W37352  17.115   6.088   2.407 -0.2264 -0.1033 -0.0076
21092W        W37353   4.542  11.577  10.860 -0.3818 -0.1406 -0.3716
21093W        W37354   5.574   4.836   0.694 -0.1982  0.0080  0.0883
21094W        W37355  13.970   2.093  13.366 -0.2367  0.0324 -0.3045
21095W        W37356   5.440   1.310   5.940  0.0510 -0.1438  0.1496
21096W        W37357  13.641  13.138   3.242  0.2710 -0.2400 -0.1042
21097W        W37358  19.018  10.874  10.150 -0.0133 -0.2259 -0.0852
21098W        W37359  14.667   9.262  10.924 -0.0767  0.0231  0.2189
21099W        W37360   2.622   1.272   2.945 -0.1368  0.0987 -0.0970
21100W        W37361   5.815   3.253   0.791  0.1772  0.4698  0.1124
21101W        W37362   6.456   4.347  10.908 -0.2900 -0.3363  0.0704
21102W        W37363  10.819  13.863   0.219 -0.2093 -0.1626 -0.2618
21103W        W37364  17.815   0.627  14.066 -0.0186  0.0556  0.0655
21104W        W37365   4.398  11.732  10.402  0.1542 -0.0769  0.0033
21105W        W37366   2.146  14.123  11.598  0.0363 -0.0138  0.0978
21106W        W37367   2.310   3.307   1.997  0.2110  0.0391  0.2933
21107W        W37368   5.079  10.341   4.903  0.0472  0.0806 -0.1647
21108W        W37369   1.480   2.854  13.834  0.1646  0.0088  0.4922
21109W        W37370   1.030  18.902   5.079 -0.0189  0.1747  0.2774
21110W        W37371   4.094   3.106  12.069  0.0577 -0.0521 -0.1959
21111W        W37372  14.606  16.686   4.498 -0.2509  0.0797  0.1763
21112W        W37373  11.436  14.682  13.762  0.3998 -0.2216  0.0794
21113W        W37374   8.922  16.794  13.149 -0.5452  0.0206  0.0888
21114W        W37375   5.439   7.511  11.559  0.1127  0.2686 -0.0921
21115W        W37376  17.545  15.368  12.604  0.1372  0.2846  0.3173
21116W        W37377  12.648   5.265   0.034  0.1090  0.0094 -0.2376
21117W        W37378  10.700  15.339   3.831  0.0619  0.0940 -0.0342
21118W        W37379   7.213  16.502  13.884 -0.1946  0.3811  0.2919
21119W        W37380   9.240  19.439   4.866 -0.2786 -0.1916 -0.1885
21120W        W37381   4.365  16.562  12.889  0.1456 -0.1178 -0.0728
21121W        W37382  14.926   3.875   0.884 -0.1795  0.1066  0.1439
21122W        W37383   6.244   7.022   2.517 -0.2608 -0.1373  0.2152
21123W        W37384  12.404   0.262   4.346  0.1297  0.1194 -0.0655
21124W        W37385   3.242  10.502  11.593  0.1200  0.1917  0.0291
21125W        W37386   6.642  17.122   2.594  0.2466  0.3497  0.0359
21126W        W37387   6.386   2.641   3.085 -0.2728 -0.0204  0.1526
21127W        W37388  15.814   6.423  13.118  0.1156  0.0470  0.0776
21128W        W37389  11.683   8.183  10.472 -0.0799 -0.1780  0.0640
21129W        W37390  15.953   7.437  12.947 -0.2171 -0.0727 -0.3065
21130W        W37391   3.412  18.109  14.393  0.0206 -0.0240  0.2433
21131W        W37392   5.740  12.547  10.537  0.0802 -0.0858  0.0633
21132W        W37393   3.216   2.023   1.317  0.0172  0.0509 -0.3044
21133W        W37394  16.646   7.393   3.263 -0.0731 -0.1111 -0.0240
21134W        W37395   1.188   9.689   0.332  0.0702  0.0861  0.1592
21135W        W37396  16.194  17.587  14.521 -0.0822  0.1243 -0.0052
21136W        W37397  17.530   6.680   0.446  0.1371  0.0120 -0.0189
21137W        W37398   4.357   2.020   9.975  0.0988 -0.3492 -0.1048
21138W        W37399  11.070   8.359   5.008 -0.0265 -0.1319  0.3152
21139W        W37400   0.789   9.758   2.222  0.0347 -0.1501  0.0651
21140W        W37401   3.503   8.047   2.264  0.2764  0.0249  0.0392
21141W        W37402  13.636  14.928   2.920 -0.0275 -0.0129 -0.2383
21142W        W37403  11.833  18.667   2.458 -0.0912  0.1178 -0.1833
21143W        W37404   5.653   4.125  10.720 -0.1881  0.0533  0.0929
21144W        W37405  15.420  12.174   0.263 -0.1477  0.3467 -0.0307
21145W        W37406   3.710  14.130   1.547 -0.3562  0.1169 -0.0427
21146W        W37407  14.912   5.925  14.547  0.2846  0.2769 -0.2371
21147W        W37408  10.964   8.839  10.691 -0.1311  0.0865 -0.0896
21148W        W37409   4.532   6.698   2.573 -0.1407  0.0917 -0.0551
21149W        W37410  13.810   7.973   3.428 -0.1027 -0.1033 -0.1200
21150W        W37411  14.991  17.112   0.768  0.3206  0.1676  0.0940
21151W        W37412   9.181  19.297   1.213 -0.0783  0.3195 -0.2684
21152W        W37413   9.607   9.225  14.359 -0.0079 -0.6128 -0.1736
21153W        W37414   7.319  15.531   9.542 -0.3149  0.1243 -0.0370
21154W        W37415   4.941   2.439   1.810 -0.2759  0.2829 -0.1720
21155W        W37416   5.656   6.325  12.319 -0.0090  0.2060  0.0563
21156W        W37417  18.564   3.416   0.821  0.0008  0.0612 -0.0777
21157W        W37418  10.404  11.643   2.001  0.1436 -0.1842 -0.2841
21158W        W37419  16.660   8.084  14.841  0.0970 -0.1220  0.1625
21159W        W37420  16.083   7.597  11.264 -0.2659 -0.0352 -0.3669
21160W        W37421  19.229  13.382   4.455 -0.0138  0.4076 -0.2086
21161W        W37422   1.920  17.156  13.067 -0.3597  0.1537 -0.1039
21162W        W37423  18.454   9.239   2.496 -0.0524  0.1055 -0.0853
21163W        W37424   2.675  11.084   3.955  0.1116  0.0357  0.0463
21164W        W37425   8.515  16.503  13.067 -0.1257 -0.3378 -0.3926
21165W        W37426  12.571   6.641  14.037  0.3387  0.0138 -0.0697
21166W        W37427   7.579   5.510  11.013  0.1150 -0.0764 -0.0877
21167W        W37428   5.593   0.686   2.253 -0.3835 -0.1759 -0.2793
21168W        W37429   1.995   0.791  13.716  0.3038 -0.1487  0.2055
21169W        W37430   5.773   0.980   2.569  0.0549 -0.0150 -0.0969
21170W        W37431  14.309  15.087  12.396 -0.0334  0.1308 -0.1371
21171W        W37432  18.150   3.815  14.811 -0.1914 -0.0623 -0.1198
21172W        W37433   5.182   9.849  13.758  0.1530 -0.0708 -0.2202
21173W        W37434  16.205  10.831  11.690 -0.0417  0.2691 -0.0504
21174W        W37435   3.687   3.390   3.093  0.0302 -0.0380  0.0549
21175W        W37436  12.737  14.366   4.775  0.0600  0.0023  0.0057
21176W        W37437   0.315  10.397  12.583  0.2541  0.1065 -0.2588
21177W        W37438  18.161  11.912   0.352 -0.2681 -0.0418  0.1467
21178W        W37439  13.208   3.971   1.298  0.3428  0.0564  0.0472
21179W        W37440   0.390  16.032  11.720  0.2387  0.0469  0.1841
21180W        W37441  17.701   1.417  13.073  0.3208  0.2995 -0.1715
21181W        W37442  12.927   0.976  13.548  0.1515  0.0844  0.1080
21182W        W37443  19.349   3.986  13.657  0.1249 -0.2711 -0.0731
21183W        W37444   8.883  10.663   1.489 -0.3522 -0.0746  0.0683
21184W        W37445   5.495  17.677   1.458  0.3017 -0.1505  0.0922
21185W        W37446  15.791  17.567  12.334  0.1063  0.0260 -0.0002
21186W        W37447   9.135  17.793  13.659 -0.2726 -0.3008  0.0059
21187W        W37448  15.393   5.225  11.800  0.0118  0.3944 -0.2648
21188W        W37449   2.120   2.063   3.945  0.1611 -0.1495  0.1198
21189W        W37450  11.332  14.718   3.870  0.0390 -0.1453  0.2419
21190W        W37451   1.009   2.908   1.285 -0.1576 -0.1670  0.2942
21191W        W37452   9.254   2.126   5.582 -0.0960  0.3302  0.4990
21192W        W37453   2.740   6.033  14.132 -0.3037 -0.0593  0.1359
21193W        W37454  16.037   5.010   4.490 -0.1154  0.3871  0.2668
21194W        W37455   0.810   5.693  12.559 -0.1323 -0.1400 -0.0632
21195W        W37456  17.655  15.249  14.509 -0.0682  0.2566 -0.0229
21196W        W37457   7.053  17.261   1.358  0.2868  0.2349  0.0954
21197W        W37458  10.479   0.995  10.600 -0.0616  0.0662 -0.1638
21198W        W37459   9.497  12.570  10.477  0.2498  0.0119  0.0207
21199W        W37460  10.098  18.415  10.783  0.3787  0.1577 -0.0027
21200W        W37461  15.474   3.309   2.951  0.0850 -0.0657 -0.1287
21201W        W37462   2.150   8.262  12.995  0.0076 -0.3125  0.1949
21202W        W37463   3.769  18.613  14.612 -0.1531  0.0140  0.2640
21203W        W37464  15.400  11.426   1.163 -0.2568 -0.2566 -0.2319
21204W        W37465  16.866  10.716  11.987 -0.2030 -0.1898 -0.0667
21205W        W37466   4.998   5.156  12.801  0.0566  0.0769 -0.0838
21206W        W37467   3.375  18.467   0.479  0.2016 -0.3373 -0.1737
21207W        W37468   1.410   2.773   4.595 -0.2603 -0.1744  0.1684
21208W        W37469  14.898   5.102  14.006 -0.0616  0.0471  0.3838
21209W        W37470   6.419  16.019  13.620 -0.3768 -0.1083 -0.0122
21210W        W37471   9.172  16.872   0.590 -0.0629 -0.6138  0.0064
21211W        W37472   2.864   4.747   4.233 -0.3127  0.1152  0.1712
21212W        W37473   5.835   3.818   0.707 -0.1543 -0.0990 -0.1946
21213W        W37474   7.966   9.746  13.653 -0.1774 -0.0355 -0.2426
21214W        W37475   2.926   6.484  13.815  0.2229  0.2255 -0.0110
21215W        W37476   6.263   5.368   1.256 -0.1536 -0.1370  0.2705
21216W        W37477   4.417   1.488  13.934 -0.1642 -0.0462 -0.1029
21217W        W37478   6.925   4.623   5.581  0.1951  0.0547  0.1463
21218W        W37479   7.416   7.822   1.351  0.0230 -0.0206 -0.0365
21219W        W37480   4.129   1.997  14.490  0.1708 -0.0388  0.0357
21220W        W37481   1.798  13.590   3.297  0.2428 -0.0507  0.3281
21221W        W37482   8.026  11.651   4.085  0.2542 -0.0194 -0.3340
21222W        W37483  15.129   8.379  12.573 -0.0239  0.2432 -0.0638
21223W        W37484   2.653  14.691  13.422 -0.4058 -0.0154 -0.4075
21224W        W37485   4.076   2.931   1.867  0.1218  0.1004 -0.2383
21225W        W37486   8.321   8.377   2.295 -0.1422  0.3553  0.3166
21226W        W37487  11.257   3.636  14.232 -0.2346  0.0289  0.0352
21227W        W37488  18.544  16.278   4.488  0.3113  0.0299  0.0144
21228W        W37489  13.245  13.828   4.021 -0.0261 -0.1913 -0.2030
21229W        W37490   6.314   5.066  11.728  0.1966  0.0130  0.0325
21230W        W37491   6.531   8.493   3.317  0.1040  0.0752  0.1693
21231W        W37492  11.498   7.573   1.827  0.3007 -0.0373 -0.0571
21232W        W37493   1.372  13.671   0.720 -0.2271 -0.0268  0.1787
21233W        W37494   7.245   0.890  13.435  0.2260 -0.0920 -0.0115
21234W        W37495   0.775   8.865  13.693  0.0142  0.1160 -0.0985
21235W        W37496   6.145  17.445   1.850  0.0748 -0.1640 -0.3331
21236W        W37497  15.937  17.870   4.048 -0.1165 -0.2726  0.2548
21237W        W37498   2.189   6.152  12.888 -0.0457  0.0842 -0.0625
21238W        W37499   8.690  17.788   1.088  0.0517 -0.1163  0.1416
21239W        W37500  18.840  10.865   2.269 -0.0964 -0.2083  0.1303
21240W        W37501   4.641   2.304   2.951 -0.1006  0.0067 -0.0644
21241W        W37502   8.952  15.371  14.636  0.0886 -0.2704 -0.1859
21242W        W37503  15.051   1.648   3.149 -0.0872  0.0440  0.1885
21243W        W37504  12.996  12.849  11.912 -0.0104  0.3758  0.0089
21244W        W37505  11.561   3.511   1.795 -0.3125 -0.1428 -0.0415
21245W        W37506   1.964   1.561   1.216  0.1538  0.2206  0.0204
21246W        W37507  14.041   1.180   3.966  0.1427 -0.3072 -0.0364
21247W        W37508   6.521   7.599  13.298  0.3799  0.0841  0.0918
21248W        W37509  13.818   4.397  13.041 -0.2673 -0.0945  0.2105
21249W        W37510  17.201  19.436   0.780  0.2135  0.0351  0.2039
21250W        W37511  10.028  11.721  14.442  0.0907 -0.1581 -0.1272
21251W        W37512  10.418   2.552  10.057  0.1343  0.0457 -0.0371
21252W        W37513  10.446  11.361   2.913 -0.1160 -0.1949 -0.2946
21253W        W37514   6.865   1.432  10.133 -0.0824 -0.0622 -0.4557
21254W        W37515  13.767  15.238   9.706 -0.4692  0.0641 -0.1331
21255W        W37516   0.074   6.585  12.680 -0.2378 -0.0314 -0.1023
21256W        W37517   6.119   5.894   0.436  0.1349 -0.1258 -0.0693
21257W        W37518   2.977  13.302  10.380 -0.1902 -0.0828  0.2146
21258W        W37519   7.224   7.819   0.798 -0.2676  0.0205  0.2605
21259W        W37520  17.824   4.118   1.287  0.2976 -0.1954  0.1800
21260W        W37521  11.540   8.527   0.794  0.1066  0.2641 -0.2751
21261W        W37522  12.901   1.325   5.329  0.0198  0.0819 -0.0404
21262W        W37523  15.851  11.491   2.372  0.2741  0.0219  0.2581
21263W        W37524   1.778  17.129   5.747 -0.0443  0.0559  0.5077
21264W        W37525   3.694   3.650   0.263 -0.2991  0.0351  0.3144
21265W        W37526   6.177  17.385  12.014 -0.0033  0.2750 -0.1385
21266W        W37527  16.814   4.986  13.248  0.0726  0.0880 -0.0661
21267W        W37528  11.936  18.856   0.901 -0.1416  0.0949 -0.0777
21268W        W37529   1.006  10.861  10.005 -0.2525  0.0805 -0.1905
21269W        W37530   0.868  15.494  14.725  0.4906 -0.0228 -0.1429
21270W        W37531   2.147   2.024   4.547  0.1677  0.2473 -0.2819
21271W        W37532  18.889   8.409  11.962 -0.0371 -0.0048 -0.0185
21272W        W37533   9.797  17.606   0.010 -0.0916 -0.0148  0.2363
21273W        W37534  10.494  18.552  10.496  0.2952  0.0648 -0.0894
21274W        W37535   9.545   4.457  14.544  0.2255  0.1782  0.0017
21275W        W37536   5.780  14.194  12.761  0.1798  0.0973 -0.2216
21276W        W37537  11.123   6.120  14.329 -0.5344 -0.1022  0.1887
21277W        W37538   9.664   6.368   3.433  0.0105 -0.0017  0.0352
21278W        W37539   9.751  10.233   4.355 -0.2441 -0.1890  0.4568
21279W        W37540   1.550  15.879  11.264 -0.0743  0.1090 -0.2474
21280W        W37541  14.313   3.641  14.062  0.4556  0.4493  0.0329
21281W        W37542  14.908   3.712   4.309  0.1233  0.3334  0.2212
21282W        W37543  12.974  14.303   2.985  0.1440  0.2393 -0.0774
21283W        W37544  18.052  19.268  13.217  0.2111 -0.2994  0.1269
21284W        W37545   5.243   3.071   0.995  0.0554  0.0870 -0.2330
21285W        W37546  15.474   8.563   2.275 -0.1861 -0.0734  0.0041
21286W        W37547  14.803   2.282   4.732 -0.1721  0.1959 -0.3438
21287W        W37548  16.462  16.541   2.922 -0.0853 -0.2983 -0.1710
21288W        W37549   1.717   3.530  12.553 -0.0001 -0.2973  0.0929
21289W        W37550   4.450   7.852  11.894  0.1272 -0.1872 -0.0333
21290W        W37551  15.453  16.385  11.452  0.0994 -0.2766  0.0802
21291W        W37552  16.607  16.577   3.943  0.0975 -0.0520  0.2873
21292W        W37553  16.675   4.642  13.626  0.4369 -0.1171  0.3244
21293W        W37554  19.263  16.427   1.385  0.5259  0.3197  0.2318
21294W        W37555  14.655  19.253   3.028 -0.0766 -0.0099  0.0083
21295W        W37556   4.404  15.924   0.867 -0.1881  0.1941 -0.0312
21296W        W37557   4.078  10.279   1.188  0.2522  0.0479  0.0092
21297W        W37558  12.947   7.174  10.194  0.3098  0.2817  0.0313
21298W        W37559   5.349  18.345   0.719  0.0279  0.1804 -0.0497
21299W        W37560  13.167  10.174  11.904  0.3267  0.2523  0.0633
21300W        W37561   6.246   1.726  10.356  0.1805 -0.1537 -0.1684
21301W        W37562   9.874  16.606   3.830 -0.3701  0.0035  0.1927
21302W        W37563  16.517  14.867  11.645 -0.0839  0.4279  0.1304
21303W        W37564  18.651   9.600   2.231 -0.1186 -0.1563  0.2063
21304W        W37565   2.963   6.590  10.919  0.1568 -0.0538  0.2338
21305W        W37566   5.321   1.520   2.559 -0.1532 -0.2036 -0.1015
21306W        W37567  18.254   6.185  12.916 -0.2321 -0.2960 -0.0794
21307W        W37568  15.619  11.557  13.065 -0.0910 -0.0688 -0.0435
21308W        W37569  13.976   3.094  12.485 -0.0977 -0.2121 -0.1940
21309W        W37570  12.575  11.591  12.221  0.0636 -0.1165 -0.1190
21310W        W37571  12.646  18.553  11.077 -0.3002 -0.0467  0.0159
21311W        W37572   8.215   2.229   0.638 -0.3708  0.3643  0.0363
21312W        W37573   6.434   6.982  12.770  0.1798 -0.2621  0.1677
21313W        W37574  11.328  15.410  14.489  0.3350  0.0089  0.0863
21314W        W37575   0.722   2.913   5.285 -0.1355 -0.0102  0.0207
21315W        W37576  12.849   1.815  14.114 -0.0166 -0.0130  0.2197
21316W        W37577   2.160   4.696   2.491 -0.2447 -0.0748  0.0102
21317W        W37578  15.286   6.619  13.510  0.1614  0.3055  0.0394
21318W        W37579   1.648   6.886   0.820 -0.1612 -0.1434 -0.1928
21319W        W37580   7.252   9.340   2.476  0.1961  0.2806  0.2229
21320W        W37581   5.064   3.195  14.557 -0.0775 -0.1795  0.1215
21321W        W37582   4.837  12.923   1.213 -0.1960  0.0695  0.1123
21322W        W37583  15.455  10.677  14.042  0.0623  0.0321  0.0523
21323W        W37584  16.010  17.707   2.620 -0.0125 -0.3335  0.1588
21324W        W37585  11.745  18.972  13.722  0.2382  0.0231 -0.0273
21325W        W37586   9.276   2.151  11.602  0.0774 -0.1594  0.0284
21326W        W37587   8.395  13.332  11.622 -0.1082 -0.1570 -0.1146
21327W        W37588   4.055  17.514   6.005  0.2083  0.1430  0.1765
21328W        W37589   6.743  16.381   0.006  0.2374  0.0677  0.2568
21329W        W37590   3.130   2.462  13.203  0.1956  0.4548 -0.1896
21330W        W37591  13.291   3.615  13.195 -0.1453 -0.0835  0.5687
21331W        W37592   5.663   8.338   1.191  0.0243 -0.0110  0.3073
21332W        W37593   4.101   4.421  13.435 -0.0015  0.0984  0.1287
21333W        W37594  17.140  15.217  10.039 -0.3866  0.0086 -0.0678
21334W        W37595   3.091  10.562  10.972 -0.2481  0.0182 -0.4115
21335W        W37596  16.754  17.152  12.005  0.0566 -0.2076  0.1173
21336W        W37597   2.609  13.435   2.584  0.3191  0.1929  0.0791
21337W        W37598   8.835  11.970   2.299 -0.0468  0.2244  0.0458
21338W        W37599   6.968  16.134   1.514  0.0461  0.3712  0.0650
21339W        W37600  18.971  17.095   2.405  0.0946  0.0123  0.2573
21340W        W37601   6.892   2.621  13.111 -0.1762  0.0074 -0.1479
21341W        W37602  17.937   1.837  12.272 -0.0034  0.0661 -0.2575
21342W        W37603  13.304  18.937  10.509  0.0959 -0.1059  0.0560
21343W        W37604   7.216   6.660  14.601 -0.0490 -0.0055  0.2386
21344W        W37605   2.436   9.281   2.969 -0.0887 -0.2583 -0.0758
21345W        W37606  18.082   1.127  13.040 -0.2441  0.0547  0.0983
21346W        W37607   3.122   1.217   0.841  0.1330 -0.2940  0.1018
21347W        W37608  13.885   8.912   0.464 -0.0941  0.2298  0.1343
21348W        W37609  17.655   8.642   9.803  0.0010 -0.1688 -0.2122
21349W        W37610  12.669   6.779  10.868 -0.1873 -0.1325 -0.1578
21350W        W37611   9.275  11.451   3.760  0.1651  0.2585 -0.0649
21351W        W37612   5.321  12.977   1.568 -0.0780  0.0759  0.0054
21352W        W37613   3.205  17.086  11.274 -0.3286 -0.3364 -0.2600
21353W        W37614   8.304   3.784  12.055 -0.1939 -0.0754 -0.0594
21354W        W37615  17.861   5.220  12.645  0.1070 -0.0849 -0.1686
21355W        W37616  12.788   2.570   9.891 -0.2616 -0.2477  0.2564
21356W        W37617   0.578   9.356   2.479 -0.0702 -0.0668  0.2216
21357W        W37618  10.010  13.902   3.200  0.1000 -0.1619  0.0356
21358W        W37619   5.943  13.972   3.566 -0.0945 -0.3459  0.0003
21359W        W37620   9.789  14.858   2.578 -0.1026  0.1036 -0.1771
21360W        W37621  12.393  19.310   3.345  0.1149 -0.0594 -0.3533
21361W        W37622   4.165   0.099   1.124 -0.0010 -0.1433 -0.2430
21362W        W37623   4.229   8.693  13.116 -0.3210  0.0839 -0.3535
21363W        W37624   4.992   9.487   4.334 -0.0068  0.1276  0.1072
21364W        W37625   5.155   2.753  12.887  0.1886 -0.0563 -0.0261
21365W        W37626   2.418  17.296   4.746  0.1008  0.0507  0.0711
21366W        W37627   3.637  19.106   4.210 -0.2064 -0.1466 -0.0971
21367W        W37628   8.139   3.046   0.305  0.1196  0.2053 -0.0627
21368W        W37629   4.658   7.111   1.554 -0.0129  0.1103  0.1175
21369W        W37630   9.594  18.161   4.525 -0.0353  0.2063  0.2227
21370W        W37631  11.177  14.745  13.230  0.0836 -0.1008  0.2698
21371W        W37632   0.210  11.528  11.782 -0.3795  0.1159  0.0741
21372W        W37633   8.610  17.046   2.783  0.0313  0.3951 -0.4104
21373W        W37634   1.944   5.581  12.705  0.0386  0.3922  0.0270
21374W        W37635   0.426   2.881   2.559  0.4005 -0.3929  0.0780
21375W        W37636  10.666  15.991   3.845 -0.2726 -0.1126  0.0447
21376W        W37637  14.796   6.453  13.316 -0.1017 -0.1992 -0.1193
21377W        W37638  16.959  11.140   3.123  0.0698 -0.1439  0.0189
21378W        W37639  17.963   4.873  14.321  0.0209  0.2461 -0.0313
21379W        W37640   6.187   7.977   2.806 -0.1977  0.0263  0.0075
21380W        W37641  19.236   8.491   4.302 -0.2376 -0.2290  0.2058
21381W        W37642  14.249   7.442  10.567 -0.1240  0.1930  0.2198
21382W        W37643   3.704   2.157   3.938 -0.0427  0.1083  0.4642
21383W        W37644   1.028   3.748   4.259  0.3140  0.2013 -0.3501
21384W        W37645  16.880  16.149  14.223 -0.1736  0.0289  0.2496
21385W        W37646  16.658   8.013   3.620 -0.1362 -0.1633  0.3321
21386W        W37647   9.310  14.087  10.520  0.0073  0.1257  0.4310
21387W        W37648  13.650   2.330  14.289  0.2068  0.0513 -0.0471
21388W        W37649  15.069  15.993  12.811  0.0902 -0.2378  0.1635
21389W        W37650   8.568   6.402  13.722  0.0601 -0.0098  0.3843
21390W        W37651  13.882  12.482  10.989  0.1077  0.0001  0.0447
21391W        W37652  15.736   0.390  10.669  0.2423  0.2119 -0.0806
21392W        W37653  16.950  19.193   1.212  0.3427  0.0476 -0.2128
21393W        W37654   5.640  11.214  12.353  0.0525 -0.0711  0.1159
21394W        W37655  11.698  11.608   2.735 -0.3652 -0.1493  0.0336
21395W        W37656  10.563  14.746  12.291 -0.2883  0.1440 -0.1100
21396W        W37657  15.824   9.658   0.563 -0.2863 -0.3177  0.1249
21397W        W37658  13.383   6.532   5.304 -0.2086 -0.2689  0.3896
21398W        W37659   7.418  17.893   4.074 -0.1738  0.2277  0.0497
21399W        W37660   3.666   5.704   1.681 -0.0119  0.3575  0.0817
21400W        W37661   8.000  17.702  11.112  0.0013 -0.1519 -0.0769
21401W        W37662  16.197  13.106  14.692 -0.0625  0.1225  0.1045
21402W        W37663  12.136  14.554   2.711  0.0063  0.0478  0.2502
21403W        W37664  14.881  15.596  13.429  0.0978  0.0564 -0.3602
21404W        W37665  12.485   6.869   5.005  0.1364 -0.0403  0.2169
21405W        W37666  18.424   2.062  12.475 -0.0235  0.2386 -0.1749
21406W        W37667  13.067  11.321   5.459  0.1129  0.0079 -0.0676
21407W        W37668  10.053   2.323  14.610  0.0058 -0.2655 -0.0054
21408W        W37669   0.103   3.967   3.701  0.1514  0.2149  0.1698
21409W        W37670   3.536  14.328  12.630 -0.0665  0.0888  0.1336
21410W        W37671   0.911   3.576   0.038 -0.3804  0.0616 -0.1806
21411W        W37672   6.383  17.330   0.368 -0.2872  0.0007 -0.1608
21412W        W37673   3.096  10.439   1.045  0.2092  0.2250  0.2956
21413W        W37674  13.131  17.490  14.715 -0.0303 -0.2876  0.1644
21414W        W37675   1.082   4.615   5.548 -0.1817  0.2593 -0.2103
21415W        W37676  19.225   4.286   3.477 -0.3028 -0.2297  0.3004
21416W        W37677  15.192  15.796  12.365  0.0106 -0.0395  0.1221
21417W        W37678  11.339   6.540  14.518  0.2327  0.0736  0.0816
21418W        W37679   6.131   0.833   2.230 -0.0279  0.3349  0.1266
21419W        W37680   8.209  15.967   1.599 -0.2919  0.0051 -0.2114
21420W        W37681   9.885  17.980   0.321  0.1171  0.0590  0.2518
21421W        W37682  16.649  10.284  13.713 -0.0716 -0.0719 -0.0266
21422W        W37683  16.818  16.288  12.789 -0.1369 -0.0462  0.2965
21423W        W37684  11.558  11.460  10.841  0.2288  0.0161 -0.1070
21424W        W37685  14.475  14.352  11.326  0.1784 -0.0928 -0.0435
21425W        W37686  18.328   0.418   5.577  0.0539 -0.3036  0.0584
21426W        W37687   9.987  14.388   0.700  0.3099 -0.1119  0.3157
21427W        W37688  12.855   1.313  12.508 -0.5618 -0.0928  0.3539
21428W        W37689  10.039  11.032  13.596  0.1689 -0.3150  0.2486
21429W        W37690  14.738   0.528   4.707 -0.0846 -0.1729  0.0336
21430W        W37691   4.740  18.562   1.492 -0.0238 -0.0927 -0.1877
21431W        W37692   2.703  17.920   4.455 -0.0322  0.1310  0.1334
21432W        W37693  10.415   4.982   3.574  0.0518  0.0434 -0.0977
21433W        W37694  18.907   9.677  14.764 -0.0729  0.0013  0.1507
21434W        W37695   3.934   1.772   9.846  0.0460  0.0628  0.0766
21435W        W37696   2.938   9.984  13.114 -0.0249  0.0104 -0.2421
21436W        W37697  12.894  15.215  12.545 -0.1260 -0.1462 -0.1015
21437W        W37698  12.268  19.340  12.467  0.0332  0.1304  0.1208
21438W        W37699  17.279  17.941   0.776 -0.2502  0.0695  0.0666
21439W        W37700  11.538   2.392   3.259  0.0953  0.2603  0.0329
21440W        W37701   6.343  18.527  14.389 -0.0331  0.1223 -0.2922
21441W        W37702   6.218   9.436   2.956 -0.0299  0.4026  0.1405
21442W        W37703   3.468  14.057  10.732  0.2417 -0.2023 -0.2780
21443W        W37704   4.237   2.222   3.959  0.1864  0.1617  0.0671
21444W        W37705   2.935   3.881   2.923 -0.1708  0.0886  0.2064
21445W        W37706  11.979  10.335   4.141  0.1838  0.1421 -0.1238
21446W        W37707  18.961   2.159   5.120  0.0435  0.1108 -0.0803
21447W        W37708   7.784  10.561   2.681 -0.2348  0.0269  0.1205
21448W        W37709   7.520   0.345   4.691 -0.1177  0.1256  0.0015
21449W        W37710  16.885  13.137  12.131  0.0107 -0.2491 -0.0206
21450W        W37711   4.603  13.016   2.209 -0.1051 -0.1740 -0.1945
21451W        W37712  12.704  12.611   3.174  0.0910 -0.3577  0.0292
21452W        W37713   9.594   1.402  14.705  0.2329 -0.2640 -0.4659
21453W        W37714  11.013  10.567  10.979  0.0713 -0.1192  0.2544
21454W        W37715  14.799   0.435   4.114  0.2106 -0.1026 -0.3313
21455W        W37716  13.949   6.306   0.444 -0.3616 -0.0117 -0.2136
21456W        W37717  15.705   2.837   1.029  0.0694 -0.0066  0.0714
21457W        W37718  12.349  17.486   1.315  0.1474  0.1250 -0.0894
21458W        W37719   2.316  14.034   1.685 -0.2330  0.1473  0.3408
21459W        W37720  11.463  17.084   1.239  0.0176  0.2073 -0.3820
21460W        W37721  13.195  16.726   4.546 -0.0337 -0.5481  0.0545
21461W        W37722  18.991  18.984   2.332 -0.0756 -0.0639  0.3981
21462W        W37723  15.420   6.235   2.457  0.0883 -0.0872  0.1714
21463W        W37724   5.919  13.087   2.220  0.1550 -0.0402  0.3166
21464W        W37725  12.842   1.667   4.857 -0.1043  0.0621  0.3706
21465W        W37726  12.562   1.123  13.869  0.1695 -0.1048  0.1340
21466W        W37727   1.969   3.069  12.131  0.1399  0.0420 -0.1904
21467W        W37728  12.032   5.370   2.211 -0.2666  0.3071  0.1822
21468W        W37729   5.889   6.794  12.151  0.0188 -0.0199 -0.1732
21469W        W37730  18.535  12.844   1.091 -0.0214 -0.0846 -0.1627
21470W        W37731  14.289  10.116  14.729 -0.0488  0.0602  0.0670
21471W        W37732  15.485   5.302   1.373  0.0653 -0.2611 -0.3139
21472W        W37733   7.108  17.304   1.963  0.1168 -0.2410  0.3080
21473W        W37734  17.311   7.251   4.016  0.1379  0.2205  0.1222
21474W        W37735   1.688   3.435  11.970 -0.2986  0.4221  0.3572
21475W        W37736  18.282  17.571   3.023 -0.1220 -0.1440 -0.0208
21476W        W37737  13.439   1.055   5.453  0.0887 -0.1286  0.0035
21477W        W37738   2.028  12.926   1.297  0.2175 -0.2230  0.0541
21478W        W37739   3.287   9.216  11.633  0.0262  0.0077  0.0219
21479W        W37740  12.929  12.192   4.456 -0.0003  0.0041  0.0190
21480W        W37741   0.643  16.535   5.536 -0.1516  0.2158  0.2762
21481W        W37742  19.293   4.205   1.855  0.2021  0.0372  0.0531
21482W        W37743  13.960  10.909  11.342 -0.4575 -0.1473  0.3157
21483W        W37744  18.040  13.169  11.416 -0.2776 -0.0407  0.1810
21484W        W37745   2.510   4.656   6.074 -0.2717  0.0350 -0.0701
21485W        W37746   2.589   6.283  12.143 -0.0117  0.0302 -0.0985
21486W        W37747  10.135   2.730  14.202  0.0455  0.0787  0.1006
21487W        W37748   2.661   9.916   2.674 -0.0109 -0.0870  0.1779
21488W        W37749   8.613   3.802   1.188  0.1894  0.1386 -0.3595
21489W        W37750  16.054  10.317   4.459  0.0833  0.2804 -0.3738
21490W        W37751   1.593   0.208   0.851 -0.4054 -0.1118  0.1005
21491W        W37752   7.407  11.986   1.587  0.0515  0.1968  0.1670
21492W        W37753  16.786  11.830   3.670 -0.0288 -0.2733  0.3316
21493W        W37754  15.653   0.331   3.642  0.1887  0.3236 -0.0516
21494W        W37755  17.520  11.277   3.346  0.0981  0.3666 -0.2305
21495W        W37756  12.373   8.725  12.993  0.0508  0.1783 -0.2900
21496W        W37757   7.904   5.099  10.817  0.0842  0.1120  0.1685
21497W        W37758  11.668  10.562   3.802  0.1698  0.1923 -0.1610
21498W        W37759  11.308   3.567  10.656  0.3641 -0.2326 -0.1176
21499W        W37760  16.309  14.195  11.032 -0.1539 -0.1284  0.1880
21500W        W37761  14.156   2.604  13.599 -0.0488  0.1218  0.1646
21501W        W37762   0.804  16.891  11.582  0.0828  0.3079  0.5695
21502W        W37763   0.907   7.087  11.468 -0.2731 -0.0307 -0.0701
21503W        W37764  12.013   2.396   2.162  0.1563 -0.2360 -0.0394
21504W        W37765   4.445  12.544   4.322 -0.2640 -0.1654  0.1451
21505W        W37766   2.767  15.955  11.082 -0.0668 -0.2227 -0.4016
21506W        W37767  17.376  10.171   4.008 -0.3487  0.1229  0.0772
21507W        W37768   7.296  13.908  12.003  0.1695 -0.0281 -0.1297
21508W        W37769  18.451   7.705  14.268  0.1142 -0.0068 -0.3621
21509W        W37770  13.113   2.990  14.357  0.1081  0.4640 -0.0049
21510W        W37771  17.670   7.148  11.212 -0.1296 -0.2911 -0.1033
21511W        W37772   5.203  11.738  14.850  0.2011 -0.0303  0.2303
21512W        W37773   9.273  16.238   0.848  0.0230  0.1832  0.0238
21513W        W37774   4.160  11.914  12.353  0.2288  0.2682  0.0446
21514W        W37775  14.313  18.105   2.745 -0.1874  0.0203  0.2278
21515W        W37776   0.221  10.831  11.059  0.0909 -0.2171  0.0271
21516W        W37777  17.192  13.748  10.312 -0.1073 -0.1956  0.0653
21517W        W37778  18.940  16.534  12.031 -0.2730  0.1684 -0.0345
21518W        W37779   9.375   0.062  11.540  0.2251  0.2896  0.0523
21519W        W37780   9.036  12.111  14.779 -0.0909 -0.1994  0.2075
21520W        W37781   6.592  16.064   4.655 -0.2135  0.3613  0.1943
21521W        W37782   4.789   9.285   3.155  0.0584 -0.1307 -0.0367
21522W        W37783   2.176   3.848  11.174  0.1946 -0.0076 -0.1388
21523W        W37784   8.308   6.695  12.510 -0.0917 -0.0609 -0.0949
21524W        W37785   9.843  12.243  10.716 -0.0637  0.2440  0.1392
21525W        W37786   4.683   5.868  13.731 -0.2215 -0.0866  0.1283
21526W        W37787   6.249   2.267   1.301 -0.0574  0.0979 -0.2771
21527W        W37788  18.723   0.428  10.954 -0.2872 -0.2465  0.3511
21528W        W37789  12.879  12.215   2.909 -0.0707 -0.0025  0.0505
21529W        W37790  19.421   2.242   4.883  0.0665  0.0761 -0.0738
21530W        W37791   3.760  11.588  12.219  0.2576  0.1459 -0.3131
21531W        W37792   2.245  12.333  10.596  0.1669 -0.3419 -0.1181
21532W        W37793   2.124  11.024  12.671 -0.5019  0.2052 -0.0516
21533W        W37794   8.763  10.509  12.770  0.1031  0.0298 -0.1609
21534W        W37795   5.068   9.823   3.992  0.0649 -0.2506 -0.1489
21535W        W37796   1.941  13.591  10.464  0.3435  0.2541 -0.0585
21536W        W37797   2.845   0.436  12.218 -0.1316 -0.1930  0.0774
21537W        W37798   6.463  12.317   2.090  0.0875 -0.0039 -0.0809
21538W        W37799  13.131   5.396   2.597 -0.0778 -0.0843  0.1617
21539W        W37800  14.696   9.239   2.018  0.0060  0.0357 -0.1969
21540W        W37801  13.666  14.408  11.167  0.0524 -0.2797  0.1819
21541W        W37802  16.237  16.820   1.751  0.1300  0.0777  0.3313
21542W        W37803   2.898  19.337  12.080  0.0730 -0.0176 -0.2213
21543W        W37804   1.300  10.631   4.538  0.1332 -0.0835 -0.1163
21544W        W37805  12.090   1.264  14.071 -0.0874  0.0218 -0.0656
21545W        W37806  14.590  15.155   1.600  0.1556 -0.1498  0.0490
21546W        W37807   9.075   8.421   4.618 -0.2138  0.1396 -0.2188
21547W        W37808   5.770   9.202   9.502  0.1430 -0.1109 -0.0229
21548W        W37809   9.178   6.576   4.296 -0.3291 -0.0061  0.2167
21549W        W37810   1.912  13.658   3.850  0.0286 -0.2442 -0.2279
21550W        W37811   0.953  10.731  13.743  0.0316 -0.2121 -0.0826
21551W        W37812  15.351  10.121   1.349  0.0712 -0.1415 -0.0911
21552W        W37813   0.832  16.469  11.809 -0.1902 -0.0547 -0.4004
21553W        W37814  13.125  18.876  14.790 -0.1559  0.0324  0.0602
21554W        W37815   7.979   3.522  11.190  0.0803 -0.1911  0.0657
21555W        W37816   3.834  16.013  14.030 -0.0899 -0.2711 -0.2445
21556W        W37817  14.286  12.336  11.918  0.1574 -0.4810 -0.0519
21557W        W37818  17.424  14.412  13.713  0.2062 -0.0097  0.0787
21558W        W37819  19.048   6.809  12.142 -0.0895 -0.0334 -0.2459
21559W        W37820   3.808  18.762   5.566  0.0305 -0.0606 -0.0012
21560W        W37821   9.777  16.851  13.163 -0.0737 -0.1954  0.1049
21561W        W37822   7.086   2.328   3.875 -0.1857  0.0436  0.1337
21562W        W37823   0.176   2.011   5.299 -0.1949 -0.0673 -0.1574
21563W        W37824  13.916   2.799   1.795 -0.1456 -0.1469  0.3723
21564W        W37825   2.588   5.677  13.760  0.4368 -0.0278  0.1400
21565W        W37826  13.048  11.563  10.344  0.1217 -0.2543  0.1970
21566W        W37827   9.220   7.156   5.095 -0.0724 -0.0686  0.2492
21567W        W37828  10.868   4.987  13.015  0.0539 -0.0955 -0.2499
21568W        W37829  18.164  16.225  11.116 -0.1115 -0.2756  0.0475
21569W        W37830  13.793   7.380   0.318  0.0874  0.2680 -0.0406
21570W        W37831   9.965   4.085   4.384 -0.2192  0.1320  0.0835
21571W        W37832  12.686   3.263   1.611 -0.3894 -0.0561  0.2952
21572W        W37833   8.018  14.983  13.342  0.0307 -0.1924 -0.0132
21573W        W37834   7.766   0.476  14.268 -0.0748 -0.3744 -0.0837
21574W        W37835  11.734   8.672   2.252 -0.1330 -0.0768 -0.0095
21575W        W37836   0.552   6.440   2.669 -0.2436  0.0243  0.4241
21576W        W37837   8.056   4.899   5.470  0.1560 -0.0910  0.0647
21577W        W37838   4.009  18.010  10.566  0.0653  0.0068  0.0771
21578W        W37839  14.308  14.462   2.369  0.0082 -0.3498  0.4989
21579W        W37840  10.747   4.968   2.232  0.1541 -0.2879 -0.1115
21580W        W37841  15.604  14.578   0.473  0.2037  0.0747 -0.0177
21581W        W37842  11.050   3.874  11.086  0.0446 -0.2767 -0.4164
21582W        W37843  16.631  14.774  14.183  0.3254 -0.0948 -0.0691
21583W        W37844   7.769  13.263  12.498 -0.4968  0.0985  0.2183
21584W        W37845  14.917  10.784   4.409 -0.1607 -0.0675  0.0658
21585W        W37846   3.287   6.172   2.548 -0.2355  0.2145 -0.0718
21586W        W37847  12.377  12.033   1.783  0.1626 -0.2652  0.1945
21587W        W37848  13.578  15.838  13.900  0.3072  0.2453  0.4038
21588W        W37849   9.755   7.076  14.610 -0.1041 -0.1275  0.1257
21589W        W37850  18.227  11.284   2.981 -0.0612  0.0474 -0.1666
21590W        W37851   3.258   0.210   1.523  0.1666  0.0839  0.0595
21591W        W37852   3.655  10.912  14.290 -0.0212  0.1842  0.0954
21592W        W37853  11.275   1.016  14.686 -0.1605  0.0093 -0.1759
21593W        W37854   0.210  10.196   3.651 -0.2172  0.2301  0.2895
21594W        W37855  17.515   2.416  12.142  0.1649  0.3427  0.1261
21595W        W37856  18.707   1.601   3.703  0.0441 -0.1747  0.2194
21596W        W37857  17.304  18.782   3.161 -0.1034  0.5035  0.2620
21597W        W37858  15.089  19.395   1.030 -0.1551 -0.1204 -0.1071
21598W        W37859  17.393  15.892   1.154 -0.0351 -0.1653 -0.2337
21599W        W37860  18.517   4.663  13.520 -0.3407 -0.0167 -0.1068
21600W        W37861  18.005   7.263  11.658  0.0371 -0.0156 -0.0021
21601W        W37862   5.166   9.835  11.097 -0.0523  0.1670  0.0632
21602W        W37863   2.399  17.965  13.900 -0.1307 -0.3499  0.0482
21603W        W37864   1.972   3.480   4.132  0.3019  0.4094  0.2409
21604W        W37865   6.298   0.291   2.593  0.0906 -0.1203 -0.1561
21605W        W37866  17.794   2.975   4.523  0.2019  0.2071 -0.2017
21606W        W37867  14.600  13.436   2.555  0.1327  0.0254  0.1216
21607W        W37868  15.829  19.237   9.483 -0.0819  0.0772  0.1600
21608W        W37869  19.125   3.209   2.334  0.2076  0.1617 -0.0856
21609W        W37870  17.104   3.627   3.308 -0.2190 -0.3402 -0.1070
21610W        W37871   1.166  12.771   4.506  0.1441 -0.1358  0.1553
21611W        W37872  11.739   8.211   2.894  0.0546 -0.5673 -0.0577
21612W        W37873  11.199   2.012   0.714  0.1398  0.0869  0.1055
21613W        W37874  11.871  18.251   9.955  0.2940  0.3196 -0.0056
21614W        W37875   2.842   4.471   3.163 -0.2305  0.0504 -0.0235
21615W        W37876   0.630   9.890  13.894  0.1540 -0.2147  0.2572
21616W        W37877  17.035  15.509  14.707 -0.1319  0.0455 -0.1614
21617W        W37878   5.025   2.603  14.699 -0.1216 -0.2408 -0.2068
21618W        W37879  15.979   2.615   2.457  0.3370 -0.3121  0.2805
21619W        W37880   6.128  14.368   4.853 -0.1955  0.0998  0.3450
21620W        W37881  13.113  16.122   2.459  0.0618 -0.2654 -0.2847
21621W        W37882  12.635   4.516   1.892  0.0090 -0.3177  0.0871
21622W        W37883   1.185  13.622   2.063  0.3876  0.0152 -0.0726
21623W        W37884  10.912   7.876   1.074 -0.1006 -0.2336  0.0302
21624W        W37885   9.736   5.128  11.562  0.2599 -0.4839  0.1415
21625W        W37886   1.502  11.703   2.518 -0.0344  0.0748  0.0946
21626W        W37887  16.987   9.038  11.616 -0.0455  0.1348  0.1348
21627W        W37888   8.681  12.741  13.468 -0.1206 -0.2590  0.0088
21628W        W37889  13.666   2.614  13.364  0.1055  0.1232  0.1799
21629W        W37890  18.491  10.734  13.769 -0.1124 -0.0237  0.3267
21630W        W37891   1.327   9.054   1.714 -0.0083 -0.1702  0.1144
21631W        W37892   1.399  12.446  11.290  0.0080  0.0261 -0.2756
21632W        W37893   7.461   4.405   0.095  0.3697 -0.1629 -0.3527
21633W        W37894   0.877  15.632  13.337 -0.1516 -0.2031 -0.0248
21634W        W37895   3.585  19.268   5.430  0.3091 -0.1659 -0.2314
21635W        W37896  17.529  12.347  13.038  0.3460 -0.0179  0.2383
21636W        W37897  10.600  16.603  13.357 -0.0849 -0.1356 -0.0623
21637W        W37898  12.484   7.770   2.379 -0.0818  0.1503 -0.0535
21638W        W37899   1.590  13.534  13.918 -0.1953 -0.1310 -0.2681
21639W        W37900  16.801  11.390   3.992 -0.1295 -0.2547  0.1654
21640W        W37901   8.185   2.543   1.702 -0.3000  0.0913 -0.1224
21641W        W37902  18.031   7.813  11.454 -0.1849 -0.1232 -0.1625
21642W        W37903  17.917   8.498   0.215 -0.2162  0.0354 -0.3042
21643W        W37904   8.010   9.785  14.331  0.3586  0.2954  0.4347
21644W        W37905   5.582  17.034  10.459  0.1263 -0.3604 -0.2252
21645W        W37906   3.574   8.360   5.645 -0.1388  0.5691 -0.1737
21646W        W37907   2.188   1.169   5.501  0.1705 -0.0648  0.1150
21647W        W37908  16.996   3.456  14.074 -0.0578 -0.0982  0.1929
21648W        W37909  17.959  16.399   0.330  0.1416  0.2456  0.1077
21649W        W37910   5.767   0.782   0.958  0.0353  0.2064 -0.0249
21650W        W37911   8.080   6.420  13.849  0.1330 -0.1912  0.1034
21651W        W37912   4.866  18.459  11.482 -0.0751 -0.3462 -0.0679
21652W        W37913  14.931  12.656   0.358 -0.0051  0.1191  0.1054
21653W        W37914  18.389   0.956   4.241 -0.0834 -0.1220  0.0031
21654W        W37915  10.301  15.182  11.570  0.4726  0.1960 -0.1258
21655W        W37916   5.503   6.362   3.510  0.3403  0.2261  0.0917
21656W        W37917   0.150   0.214  13.572  0.0224 -0.3030 -0.1895
21657W        W37918   4.616  12.670  12.838 -0.1164  0.0784 -0.1369
21658W        W37919   5.262   0.842   0.492  0.0398 -0.0083 -0.4704
21659W        W37920   7.185   3.074   3.457  0.4006 -0.1595  0.0059
21660W        W37921   0.958  11.070   3.895 -0.0507  0.0600 -0.1771
21661W        W37922  12.490   5.570   1.832 -0.0954  0.1492  0.0297
21662W        W37923  15.034   6.504  10.484  0.0386  0.0109  0.0114
21663W        W37924   9.823   0.819  10.741  0.1043 -0.2478  0.2550
21664W        W37925   7.529   9.471  10.908 -0.0953 -0.2925  0.1180
21665W        W37926   3.214   7.020  10.975 -0.1234 -0.2559 -0.1424
21666W        W37927   1.660  16.677  14.523 -0.1386 -0.0318  0.0727
21667W        W37928   5.442   6.186  11.218  0.1735 -0.2672 -0.0297
21668W        W37929  10.863   7.907  13.770  0.0465  0.0960  0.3178
21669W        W37930  15.183  12.796  13.386  0.0444 -0.2011 -0.4052
21670W        W37931   4.866  12.900  10.003 -0.2595 -0.0657  0.0209
21671W        W37932  11.376  12.852   3.765  0.0466 -0.0194  0.2192
21672W        W37933  11.147   0.433  10.126  0.0039  0.3275 -0.0177
21673W        W37934   0.156   0.605  12.893  0.0855  0.0603 -0.1509
21674W        W37935  13.626  19.032   1.392 -0.1137  0.0565  0.1438
21675W        W37936  15.433  15.011   9.942 -0.3854  0.1616 -0.0611
21676W        W37937  15.350  13.853   2.072  0.1896  0.0077 -0.1285
21677W        W37938  11.834   1.276   0.879  0.1806  0.3328  0.4726
21678W        W37939  15.650   7.588  10.533  0.3393 -0.2087 -0.0325
21679W        W37940  18.159   9.852  12.068 -0.3094 -0.3622  0.0319
21680W        W37941  17.937  19.210  11.870  0.0368  0.1345 -0.1496
21681W        W37942  14.523  15.396   9.997 -0.1965  0.1963 -0.5398
21682W        W37943   6.565   1.778   2.521  0.2158  0.2008 -0.1872
21683W        W37944   8.249   4.481  13.463  0.1670 -0.2661 -0.0117
21684W        W37945  11.692  13.085   3.054  0.2373  0.0920  0.0600
21685W        W37946  16.017   5.774   0.298 -0.1063  0.0742  0.2146
21686W        W37947   0.751  11.488   3.974 -0.2176 -0.0619  0.3256
21687W        W37948   7.030   4.675   1.183  0.2704 -0.4321 -0.0013
21688W        W37949   3.878  17.378   4.473 -0.1654  0.0421  0.0381
21689W        W37950   4.068   3.697  12.333 -0.0206  0.0049  0.2444
21690W        W37951   9.155   9.268  13.376  0.0363 -0.0407  0.1336
21691W        W37952  17.014  12.944  12.770  0.1158 -0.2193 -0.4154
21692W        W37953   7.510   3.952  11.448 -0.4238 -0.0941  0.2389
21693W        W37954   5.771  16.619   5.447  0.0631  0.1480 -0.2187
21694W        W37955  12.236  18.343   2.502  0.0366  0.0820 -0.5229
21695W        W37956  14.468  17.389  13.648  0.1753  0.0644  0.0874
21696W        W37957   5.974  11.221   1.584 -0.3037 -0.1352 -0.0187
21697W        W37958  11.926   2.415  13.541 -0.0079 -0.1524 -0.0755
21698W        W37959  10.991  11.874   0.137  0.1364  0.0241  0.0011
21699W        W37960  16.540  12.863   2.402  0.1830 -0.0481  0.1283
21700W        W37961  18.335  13.011  12.521  0.0645  0.4595 -0.0107
21701W        W37962  12.957  15.086  11.613  0.0517 -0.2858 -0.1453
21702W        W37963   3.053   3.783   2.402 -0.1142 -0.0463 -0.0528
21703W        W37964  11.014   0.490   9.175  0.5145 -0.0872 -0.0261
21704W        W37965   4.608   0.837  13.204  0.0642 -0.3345  0.1324
21705W        W37966  14.480   2.270   3.523 -0.0298 -0.0631  0.0955
21706W        W37967   1.580   4.802   0.520 -0.1670  0.1906 -0.0970
21707W        W37968   8.256  16.358   0.183  0.6488  0.0225  0.1572
21708W        W37969   5.687  12.415   1.112  0.4707 -0.1506  0.1908
21709W        W37970  17.708   2.887   3.530  0.1992 -0.0262 -0.2305
21710W        W37971  10.894  13.016  10.210 -0.0399  0.2330  0.2430
21711W        W37972  10.453  14.603  11.413  0.0554 -0.0328  0.2589
21712W        W37973  12.396  10.060  11.198 -0.0126  0.2034  0.2282
21713W        W37974  13.120   5.399   1.666  0.0486 -0.1070 -0.2700
21714W        W37975   7.383   5.758  12.941 -0.1661  0.5056 -0.0576
21715W        W37976   1.307   2.665  10.986  0.1607  0.0014  0.0311
21716W        W37977   9.203   7.027  13.433  0.0989 -0.1430  0.2789
21717W        W37978  11.694  19.034   2.758  0.1689 -0.2005 -0.1081
21718W        W37979  15.012   6.761  11.319 -0.1439 -0.0809  0.1539
21719W        W37980  18.327   0.543   3.008  0.0973 -0.0239 -0.2221
21720W        W37981  13.056  12.963   0.601  0.2298 -0.0919  0.2889
21721W        W37982  12.475   3.132   4.896  0.0303 -0.4134  0.1845
21722W        W37983  13.604   8.009  12.372  0.1776 -0.0088 -0.2413
21723W        W37984   6.368   6.089   5.602 -0.0831  0.1636 -0.0215
21724W        W37985   3.278   5.735  13.233 -0.1136 -0.0323  0.0303
21725W        W37986  13.779  16.036  12.380  0.2456 -0.1467 -0.2155
21726W        W37987   6.007   7.548  13.315  0.2537 -0.0297  0.0180
21727W        W37988  17.984   0.058   2.347 -0.0812  0.0228 -0.0755
21728W        W37989   6.685   6.933   4.191  0.0257  0.2705 -0.3333
21729W        W37990   1.119   0.799   1.479  0.0517 -0.1525 -0.2026
21730W        W37991   9.976   7.965   4.386 -0.0650 -0.0011  0.2169
21731W        W37992   1.035  14.732  10.159  0.2893  0.1609 -0.6447
21732W        W37993  19.346  11.052   2.960 -0.2288 -0.0440 -0.0755
21733W        W37994  19.224  18.597  11.506 -0.0672  0.1051 -0.0335
21734W        W37995  13.753   3.197  10.142 -0.3251 -0.0666  0.1059
21735W        W37996  11.922  13.039  12.902 -0.1307  0.0830  0.1993
21736W        W37997  12.715  18.600   1.300 -0.2337  0.0153 -0.0211
21737W        W37998   9.569   0.028  12.587 -0.3842  0.2251 -0.2281
21738W        W37999   8.504  19.384  14.450  0.0451 -0.2527 -0.7773
21739W        W38000  14.076   0.317   5.331  0.2461 -0.0151 -0.2307
21740W        W38001  14.600  10.507  13.483 -0.0680 -0.0190  0.0426
21741W        W38002   1.025   6.273   3.150  0.0637 -0.1777 -0.3002
21742W        W38003  11.653  11.046   3.565  0.1318 -0.0470 -0.2161
21743W        W38004   5.831   2.725  10.738 -0.1301  0.1621  0.0733
21744W        W38005  16.437   2.059  11.500 -0.2669  0.1560  0.4213
21745W        W38006  13.898   5.928   4.292  0.0821 -0.0609 -0.0565
21746W        W38007   6.887   7.358  11.758  0.1359 -0.2195  0.1217
21747W        W38008  14.297  13.781  14.522 -0.1113  0.0527 -0.1193
21748W        W38009  16.858   9.313   4.003 -0.1721  0.1705 -0.1081
21749W        W38010  16.018  11.001  10.813 -0.0242 -0.1871 -0.0647
21750W        W38011   9.329  17.600  12.705  0.3346 -0.1463 -0.3816
21751W        W38012   6.972   0.341   4.132  0.0107 -0.1514 -0.2355
21752W        W38013   9.344   8.210   1.297 -0.1561  0.1985  0.1676
21753W        W38014  11.079  16.842  14.220 -0.2665  0.2350  0.0558
21754W        W38015   3.006  14.998   3.587 -0.0328  0.2700 -0.1181
21755W        W38016  19.160   3.445   0.626  0.1326  0.0642  0.0113
21756W        W38017   3.193   5.704   5.708 -0.2013  0.4189 -0.1894
21757W        W38018  15.260  10.715   1.930  0.1819 -0.0935 -0.1994
21758W        W38019   5.092   3.686  12.437  0.1265  0.1729 -0.0659
21759W        W38020   2.428  17.779   4.933 -0.1665 -0.1708  0.0127
21760W        W38021  13.422   0.865   2.198  0.2464 -0.2104  0.0181
21761W        W38022  19.035   9.131  11.304  0.1234 -0.1714 -0.2093
21762W        W38023   0.572  16.114   1.973 -0.0131 -0.2996 -0.1724
21763W        W38024   8.416  17.638   0.158 -0.0027 -0.0720 -0.2924
21764W        W38025  13.648  15.187  12.946  0.0604 -0.2583  0.5103
21765W        W38026   7.661  11.071  11.772  0.0213  0.0923 -0.2796
21766W        W38027   4.554   2.763  11.324 -0.1499 -0.1080  0.1290
21767W        W38028  14.225  13.512  12.977  0.2513  0.0566 -0.2421
21768W        W38029   8.131  10.267  14.148 -0.1324 -0.1229 -0.0391
21769W        W38030   6.602  15.202   3.742 -0.0642  0.0535 -0.0684
21770W        W38031  11.937   6.728  13.220 -0.0211  0.1717 -0.2577
21771W        W38032  11.424   0.607  10.553 -0.1649  0.0336 -0.2018
21772W        W38033   5.810  11.859  12.187  0.1616  0.1443  0.2412
21773W        W38034   0.700   0.076  11.199 -0.3065  0.0637 -0.0617
21774W        W38035   5.678  13.133  12.155 -0.0977  0.1324  0.4273
21775W        W38036  15.020  17.369   1.203  0.1212 -0.3121  0.0227
21776W        W38037  12.604   5.663   0.354  0.0044  0.0802 -0.1297
21777W        W38038  10.792  15.348  14.512  0.3020  0.1645  0.4362
21778W        W38039  14.314   0.688   4.029 -0.2603  0.1126  0.0159
21779W        W38040   2.634  15.129  13.108  0.4256  0.2165  0.1697
21780W        W38041   2.316  13.185   0.949 -0.0962 -0.1743 -0.1954
21781W        W38042   6.920   7.071  14.733  0.2475  0.1899  0.1446
21782W        W38043   9.118  11.095  11.946 -0.1735 -0.4107 -0.1716
21783W        W38044  16.058   7.852  11.736 -0.0252 -0.2610  0.0879
21784W        W38045  14.780   0.451   0.153  0.0526  0.4144  0.1644
21785W        W38046   8.093  11.339  12.860 -0.2298  0.0596  0.3255
21786W        W38047  17.586  11.627   1.287 -0.3086 -0.1379 -0.2607
21787W        W38048  13.145  16.888   3.993  0.1129  0.1814  0.0127
21788W        W38049  14.821   6.296  14.811  0.1072  0.0367  0.0585
21789W        W38050  17.678  15.714  13.740  0.3320  0.2372  0.0324
21790W        W38051   8.321  14.654  13.061 -0.4817  0.0750 -0.1068
21791W        W38052  13.315  11.834  12.787  0.0209  0.0701  0.3878
21792W        W38053  12.093  13.903  12.972 -0.0145 -0.0099  0.4712
21793W        W38054   4.880  10.723   5.360  0.0308 -0.2307 -0.0872
21794W        W38055   8.622   2.228  11.736  0.2011  0.2038  0.1432
21795W        W38056  17.539   7.940  13.403  0.2414  0.1381 -0.0640
21796W        W38057  17.366  11.119  13.016  0.1461 -0.1055  0.1168
21797W        W38058  14.265  15.750  14.029 -0.1096 -0.0297  0.0404
21798W        W38059  18.293  13.476   5.613 -0.1780  0.2035  0.0646
21799W        W38060  14.861  17.026  11.802  0.1126 -0.0841  0.2145
21800W        W38061  14.230   3.226   1.695 -0.0460  0.0310 -0.0431
21801W        W38062   7.597  15.252   2.346 -0.2500  0.0528 -0.1832
21802W        W38063   2.724  15.043   1.461 -0.0516 -0.0239 -0.0202
21803W        W38064   5.607   2.004  14.247  0.0857  0.2070 -0.1417
21804W        W38065   0.258  19.228   4.478 -0.1210 -0.2526 -0.0036
21805W        W38066   5.705   7.846   3.572  0.1187 -0.1595 -0.1941
21806W        W38067  17.887  13.237  14.520  0.3922 -0.2291  0.1802
21807W        W38068   9.064   0.487   5.559 -0.3225  0.0951  0.2654
21808W        W38069  11.341   1.775   0.264 -0.0804  0.0885  0.1047
21809W        W38070   7.606   8.412  13.982  0.0063 -0.1348  0.1139
21810W        W38071   5.639  10.568  12.723  0.1127  0.0100 -0.1134
21811W        W38072   5.799  13.788   1.082  0.1436 -0.2335  0.3550
21812W        W38073   5.790   9.572  11.285  0.0371  0.0336  0.3031
21813W        W38074   6.926   3.793   0.549 -0.1298 -0.0043  0.0028
21814W        W38075  13.758   3.453   4.381 -0.2068 -0.0017  0.1861
21815W        W38076   8.126   6.128  10.628 -0.1132  0.0708  0.2500
21816W        W38077  11.464  18.344   9.723  0.2018  0.0209 -0.2084
21817W        W38078   8.036   0.439   4.370  0.1787  0.1002  0.2378
21818W        W38079  17.722   2.528  13.110  0.1701  0.0722  0.2153
21819W        W38080  11.091  16.934   1.534  0.2281  0.1009 -0.0946
21820W        W38081  17.827   3.196   0.544 -0.0739 -0.3608  0.2434
21821W        W38082   4.784   9.336   4.874 -0.1584  0.0470  0.2899
21822W        W38083   1.643  19.448   5.974  0.0514 -0.2537  0.0430
21823W        W38084  18.549  10.979   0.315 -0.0561  0.0325  0.1402
21824W        W38085  10.757   7.151  14.310  0.0173 -0.4982 -0.2950
21825W        W38086  12.651   9.975   2.457 -0.0683  0.0612  0.3367
21826W        W38087   2.525  12.119   3.948 -0.0322  0.1090 -0.0037
21827W        W38088  19.077  11.359  13.634 -0.1190 -0.2757  0.0798
21828W        W38089  10.998  12.659  13.363  0.0770 -0.1459  0.0937
21829W        W38090   6.306  14.903  14.486 -0.1473  0.5526  0.0042
21830W        W38091   0.012  14.824   4.936  0.2952  0.3404  0.1561
21831W        W38092   6.735  11.452  11.761  0.4083 -0.2948 -0.2129
21832W        W38093  13.232   5.188   0.831 -0.1154  0.0775 -0.0381
21833W        W38094   4.293  11.770   4.006  0.0065  0.2815  0.0688
21834W        W38095  11.918   8.341  12.615  0.2331 -0.3556  0.1881
21835W        W38096  12.900   2.091   0.901 -0.3636  0.0085  0.1243
21836W        W38097  10.916  12.019   3.017 -0.0303  0.1702 -0.1006
21837W        W38098  12.652   6.997   4.575 -0.3562 -0.3498  0.2285
21838W        W38099  19.374  19.127  10.332 -0.0281  0.0268 -0.0365
21839W        W38100   8.801   6.118   0.022 -0.0414  0.0375  0.1224
21840W        W38101  10.900  15.529  13.586 -0.2133 -0.0473 -0.0556
21841W        W38102  18.014   5.723   4.905  0.1056 -0.2413  0.3480
21842W        W38103   5.777   3.125  13.951  0.2861  0.0128  0.2340
21843W        W38104   5.633  13.781  12.068 -0.3522  0.1481  0.2889
21844W        W38105  12.009  12.874   1.153  0.2537 -0.0360  0.1385
21845W        W38106   6.434  13.424  13.639 -0.0429 -0.1431  0.1666
21846W        W38107  12.115  16.543  10.851 -0.3177 -0.1522 -0.1932
21847W        W38108  13.806   6.255  14.380 -0.0921  0.2861 -0.5239
21848W        W38109  18.576   5.946  11.128 -0.1642 -0.4180  0.3253
21849W        W38110   8.395   9.244   2.097 -0.3640 -0.0646 -0.0687
21850W        W38111  15.601   9.023   3.409  0.0025 -0.1680 -0.2604
21851W        W38112   4.681  11.839  13.429 -0.2682  0.0514 -0.1580
21852W        W38113  12.361  14.720   4.642 -0.2608  0.2721  0.4008
21853W        W38114  10.727   5.744   4.512 -0.1038 -0.1086  0.2186
21854W        W38115   9.736  18.182   2.106  0.0140  0.0003 -0.2862
21855W        W38116  12.926   5.514   2.113  0.2124 -0.3948  0.4810
21856W        W38117   4.958   9.229  13.684  0.2537 -0.2185 -0.0418
21857W        W38118  16.504   9.728  13.663 -0.1479  0.1201 -0.3302
21858W        W38119   7.722  12.698   0.141  0.0059 -0.1994 -0.0832
21859W        W38120  10.430  18.972   1.964  0.2910 -0.0589 -0.0580
21860W        W38121   0.558   8.505  12.487 -0.0663  0.0859  0.1826
21861W        W38122   2.416   4.682  12.653  0.4095 -0.3065 -0.0229
21862W        W38123  15.925   8.215  11.118  0.0220 -0.0147 -0.2394
21863W        W38124  19.241  10.535  11.063 -0.1153  0.2098  0.0502
21864W        W38125  11.516  12.135   5.437  0.1410  0.1409  0.0610
21865W        W38126  13.339   2.313   4.601 -0.1273  0.0623  0.0354
21866W        W38127  10.951   9.520   1.657  0.0846 -0.0864  0.1495
21867W        W38128  12.215  10.251  14.700  0.2618  0.0249 -0.1059
21868W        W38129   3.861   6.491  13.938  0.1861 -0.1601 -0.3049
21869W        W38130   6.683   5.216  12.879  0.0632 -0.0478 -0.1048
21870W        W38131   2.694  13.505   0.670 -0.0658 -0.1474 -0.3907
21871W        W38132   2.669   2.002   4.415 -0.0402 -0.2031  0.0938
21872W        W38133   5.290   9.783   1.466  0.4802 -0.4440  0.3942
21873W        W38134   3.537   9.453  13.894 -0.0188 -0.2473 -0.0393
21874W        W38135   5.708  14.334   1.012 -0.1783 -0.0481 -0.0764
21875W        W38136  10.637   6.495   0.739 -0.0636  0.0671  0.0477
21876W        W38137   0.280   2.804   3.406 -0.0233  0.2679  0.1320
21877W        W38138   4.436  18.740   2.788  0.2583  0.1956  0.2230
21878W        W38139  15.439   0.074   9.529  0.3557 -0.1526 -0.1066
21879W        W38140  16.153  13.625   4.061  0.2659 -0.1077 -0.0018
21880W        W38141   6.604  12.594  13.298 -0.2699  0.0067  0.2180
21881W        W38142   6.906   4.929  13.321  0.1063 -0.0125  0.0946
21882W        W38143  10.867   7.948   0.127 -0.2055  0.1388 -0.0776
21883W        W38144   3.114   3.115  12.567  0.0419  0.3691  0.0218
21884W        W38145  14.965  12.667   9.063 -0.0242 -0.2921 -0.0136
21885W        W38146   2.858  13.741  11.486  0.0509  0.1021 -0.0103
21886W        W38147   0.657   0.725  12.402  0.4332 -0.0842  0.2620
21887W        W38148  14.542   8.757   3.870  0.0587 -0.2409  0.3054
21888W        W38149   8.272  13.142  12.547  0.5804  0.0418  0.0369
21889W        W38150   1.662  16.634  10.657 -0.2037  0.2704 -0.2139
21890W        W38151  11.796  14.185   9.952 -0.2912  0.1690  0.0196
21891W        W38152  10.306   0.570  10.675 -0.1744 -0.2355  0.0090
21892W        W38153  12.502  12.002   4.262  0.3176 -0.1679  0.1496
21893W        W38154   0.701   4.798  12.590  0.1627 -0.2428  0.1199
21894W        W38155  19.080   2.383   3.591  0.0718  0.0845 -0.1320
21895W        W38156   9.445   7.902   4.464 -0.0412 -0.1366  0.0187
21896W        W38157  16.900  18.614   4.542  0.0809 -0.1082 -0.0634
21897W        W38158   7.557  16.216  10.097 -0.0391  0.3273 -0.2311
21898W        W38159  16.590   9.389   3.577 -0.0850 -0.0509  0.0063
21899W        W38160  15.007   2.170   2.489  0.1896  0.1331  0.1323
21900W        W38161  19.271  10.100   3.271  0.3660 -0.0162  0.0817
21901W        W38162  11.710  12.113  13.294  0.0219 -0.1880  0.0198
21902W        W38163   9.269  11.126   1.171 -0.1725 -0.0599 -0.0063
21903W        W38164   2.611   0.036  12.516 -0.0937  0.0938  0.1680
21904W        W38165   5.475   4.769   0.179  0.0981  0.3017  0.1534
21905W        W38166  12.119  17.470  10.805 -0.0131  0.0609  0.3966
21906W        W38167  14.861   6.221  14.028 -0.1868  0.1131 -0.0554
21907W        W38168   5.172   6.577   5.448 -0.0628 -0.2338 -0.1927
21908W        W38169  19.382  10.781   9.809  0.2733 -0.0792 -0.1321
21909W        W38170   8.495   0.834  13.005 -0.0287  0.2252 -0.2661
21910W        W38171   4.973  15.717   0.003 -0.1274 -0.2026 -0.0258
21911W        W38172   3.531  12.314   4.988  0.1766 -0.1704  0.2483
21912W        W38173  16.293  13.654  12.817 -0.0495  0.2547  0.2460
21913W        W38174   4.220   5.751  13.632  0.1271  0.3161 -0.0126
21914W        W38175   4.825   0.621   4.849 -0.2305  0.2053 -0.0492
21915W        W38176   0.184  13.001  10.749  0.1023  0.0279 -0.2507
21916W        W38177  14.120   7.940   0.409  0.2453  0.4470 -0.1628
21917W        W38178   4.844  13.773   0.794  0.1564 -0.0724  0.0259
21918W        W38179  12.567   7.880   1.904  0.1876 -0.3123  0.1667
21919W        W38180   1.710  12.472   4.392  0.3863  0.0018  0.0025
21920W        W38181   3.810  14.964  12.469 -0.0179 -0.0500  0.1449
21921W        W38182  16.703   8.220  13.920  0.1239 -0.0382 -0.1719
21922W        W38183  17.262  14.667  14.295  0.2354  0.0190 -0.0846
21923W        W38184   7.083  18.324  13.921  0.1546  0.0382 -0.0818
21924W        W38185  13.250  14.267   4.343  0.0426 -0.2311  0.0842
21925W        W38186  15.947  15.750  11.643 -0.0056  0.2161  0.0702
21926W        W38187  10.480   2.911   9.666 -0.1283 -0.2830  0.3142
21927W        W38188   0.417  16.006  13.337  0.1591 -0.0649 -0.0768
21928W        W38189  13.752   9.238   2.877  0.3043  0.0716  0.2627
21929W        W38190  12.116   1.504   2.361  0.1308 -0.0822 -0.0704
21930W        W38191   5.305   8.224   3.527 -0.1257  0.0715  0.2161
21931W        W38192  15.307   8.265  13.977 -0.3154  0.1387 -0.2848
21932W        W38193   0.262   5.860   2.630 -0.0942  0.0222  0.2506
21933W        W38194  10.387   1.463  10.905 -0.0883  0.2079 -0.2385
21934W        W38195   8.628  18.416   0.806 -0.0679  0.0576 -0.0565
21935W        W38196  16.370  14.685   2.612  0.2221  0.0159 -0.2422
21936W        W38197   4.955  17.405   5.316 -0.0203 -0.1178 -0.0793
21937W        W38198   9.929  11.465  11.878  0.1154  0.3286  0.0002
21938W        W38199   0.060   7.853  14.341  0.0436  0.0599  0.4909
21939W        W38200   2.124  19.246   1.697  0.0608 -0.2911  0.0692
21940W        W38201  14.464  11.587   1.757  0.0149  0.1817 -0.0511
21941W        W38202  13.482  18.869  12.911 -0.0095 -0.0754 -0.3609
21942W        W38203   6.744   8.425   1.576  0.2430 -0.0772  0.1575
21943W        W38204  13.028  11.076  13.588  0.0712  0.1096 -0.2709
21944W        W38205   9.465  14.665  10.380  0.2107 -0.3955 -0.4187
21945W        W38206  15.517  15.425  10.221 -0.1718 -0.0816  0.1381
21946W        W38207   1.743  14.540  11.990  0.5858 -0.0740 -0.3633
21947W        W38208   1.365  18.538   1.721 -0.1986  0.1306  0.1021
21948W        W38209   4.961   3.547  10.836  0.0281  0.2111  0.0511
21949W        W38210   2.724   8.903   2.798 -0.0620 -0.3198 -0.0586
21950W        W38211  10.039   9.829  13.389 -0.3238  0.1188  0.0941
21951W        W38212   3.472  11.104   2.855  0.2490 -0.2233  0.0854
21952W        W38213  13.989   8.938  12.234 -0.2453 -0.4421  0.1834
21953W        W38214   9.483   4.495  11.590  0.1594 -0.2149  0.1695
21954W        W38215  12.424   9.949   0.266  0.1326  0.2221 -0.0177
21955W        W38216   5.801  15.557   0.641 -0.0435  0.1649 -0.0001
21956W        W38217  18.576  12.263   3.099 -0.0025 -0.0984  0.2716
21957W        W38218  12.576   3.336  12.039 -0.1972  0.1585 -0.0576
21958W        W38219   9.447  19.183   0.194 -0.1312 -0.1535  0.1762
21959W        W38220  16.991   7.686  10.729  0.0040  0.0806 -0.1185
21960W        W38221  14.167  15.123  10.370  0.1944  0.1295  0.4743
21961W        W38222  12.998   9.627   2.072 -0.1073  0.2038  0.3180
21962W        W38223  12.308   1.917   2.688  0.2168 -0.0676  0.1853
21963W        W38224   6.222  16.284  11.890  0.0989 -0.1199 -0.0705
21964W        W38225   7.023   7.348   4.243 -0.0992  0.2698  0.1901
21965W        W38226  13.259  17.007   2.056 -0.4312  0.0574  0.2127
21966W        W38227   8.436  16.946  13.889  0.0509  0.2493 -0.0945
21967W        W38228  14.707   8.522   4.944 -0.2677 -0.1932  0.1234
21968W        W38229  12.581  14.146  13.137  0.0433 -0.2202  0.1207
21969W        W38230   9.654   4.421   5.481 -0.3902  0.0051 -0.1991
21970W        W38231   5.914   2.807   4.332  0.1157 -0.3318  0.0543
21971W        W38232   8.146   6.236   2.269 -0.0932 -0.2485 -0.2240
21972W        W38233   6.256   7.494   1.294 -0.0701  0.0325  0.0460
21973W        W38234   0.800   0.523   2.459  0.0437 -0.2095  0.0876
21974W        W38235  15.712   5.557  11.633  0.1696 -0.2133 -0.1262
21975W        W38236   1.309   4.687  13.020 -0.2899  0.1662 -0.0800
21976W        W38237  13.876  15.687   1.590 -0.2875 -0.2739 -0.2452
21977W        W38238   2.758   0.761   2.567 -0.2555 -0.2758 -0.1321
21978W        W38239   1.514  10.675  14.348  0.1976  0.2419  0.3338
21979W        W38240  15.987  12.042   0.886 -0.2114  0.1323  0.1612
21980W        W38241  17.892  15.910   4.275 -0.2681  0.1941  0.1944
21981W        W38242  11.787  18.277  13.442  0.1185  0.1432 -0.0397
21982W        W38243   4.504   5.453  12.125  0.1350 -0.0444 -0.2322
21983W        W38244  18.731  13.340   4.663  0.0905 -0.1321 -0.1918
21984W        W38245  18.818  11.358   5.424  0.0564 -0.3147  0.0229
21985W        W38246  18.399  14.160  13.475 -0.0504  0.3559 -0.0526
21986W        W38247   5.955  11.501  14.247 -0.0487 -0.1957  0.2319
21987W        W38248  15.260   3.916  14.312  0.0069  0.1087  0.0242
21988W        W38249  10.283   9.949   0.864 -0.1385 -0.1928  0.1559
21989W        W38250   3.701  13.677  12.134 -0.0714 -0.1817 -0.1462
21990W        W38251   3.016  16.509   4.525  0.0228 -0.1244 -0.1379
21991W        W38252  15.812  15.708   3.634  0.0890  0.0441  0.1901
21992W        W38253   2.145  10.351   4.820  0.1602 -0.1891  0.0266
21993W        W38254   1.620  10.857  11.459 -0.3227 -0.4908  0.0331
21994W        W38255  15.934   3.063  14.317 -0.0335 -0.1249 -0.1814
21995W        W38256  18.501  13.855  11.468 -0.2875 -0.0356 -0.2099
21996W        W38257   6.639   6.645   1.353 -0.2220  0.0170  0.0836
21997W        W38258   5.765   0.594   4.078  0.0073  0.1064  0.0410
21998W        W38259   7.201   6.398   5.344  0.2498 -0.0121 -0.1546
21999W        W38260  17.004   0.252  14.019  0.1018  0.3188  0.0062
22000W        W38261  14.405   2.835   1.983 -0.0969 -0.1147  0.0489
22001W        W38262  14.724  10.886   0.244  0.1929  0.0473 -0.2936
22002W        W38263   2.108   7.993  12.045  0.2849 -0.0852 -0.0715
22003W        W38264   8.994   3.070   1.027 -0.0886 -0.2932 -0.0211
22004W        W38265  18.270  10.229  13.506  0.2367 -0.1953  0.0465
22005W        W38266   3.795   3.264   5.300  0.1982 -0.1168  0.0366
22006W        W38267   0.991   0.734   5.003  0.2952 -0.1188 -0.1585
22007W        W38268   1.847  12.413  10.170  0.1628  0.1416  0.1124
22008W        W38269  16.682   1.132   1.142 -0.0342  0.0088  0.0894
22009W        W38270   2.136  14.617  11.652  0.2936  0.0053  0.0002
22010W        W38271   4.598   8.838   3.539 -0.0409 -0.2284  0.0673
22011W        W38272   2.971  18.056  11.895  0.3492 -0.3825 -0.0877
22012W        W38273  19.037  18.492   4.645 -0.0712 -0.4852 -0.0224
22013W        W38274  19.422  14.804  13.613  0.2023 -0.0166  0.0853
22014W        W38275   9.024   9.659   0.221 -0.1871 -0.0545 -0.0192
22015W        W38276   9.423   0.409   5.173  0.3095 -0.0546 -0.3480
22016W        W38277   9.996   4.057  14.694  0.2922 -0.1369  0.0276
22017W        W38278   3.983  12.868  11.976 -0.1242 -0.3390 -0.0810
22018W        W38279   7.947  18.198  13.287 -0.1900  0.1911 -0.1504
22019W        W38280   0.513  18.312   3.727 -0.0111 -0.0638  0.0581
22020W        W38281   4.974   6.472   2.866  0.0030  0.0239 -0.2437
22021W        W38282  15.560   1.670   4.710 -0.1495  0.1227 -0.1596
22022W        W38283   6.766  17.480   1.019 -0.0339  0.1573  0.3909
22023W        W38284  16.648  18.122  12.382 -0.0929  0.1076 -0.0595
22024W        W38285  13.504  17.707   3.717 -0.1402 -0.0964 -0.0143
22025W        W38286  18.343   8.221   0.040 -0.0578 -0.0453 -0.0124
22026W        W38287   3.617  18.239   5.350  0.1517 -0.2228 -0.2495
22027W        W38288   5.814   7.702   3.040 -0.0572 -0.1111 -0.2254
22028W        W38289   5.814   6.640   1.029  0.0815  0.2499  0.1922
22029W        W38290   2.788   6.840   0.539  0.0696 -0.0280 -0.0726
22030W        W38291  18.875   6.101  11.544 -0.0293 -0.3349 -0.0196
22031W        W38292  13.686   9.336   1.245 -0.0114  0.1960  0.4062
22032W        W38293   1.496  19.021   5.198  0.0908 -0.3239  0.3465
22033W        W38294  13.325   8.457  13.172 -0.1606 -0.0759  0.1150
22034W        W38295   9.598  15.418   3.147  0.3508 -0.0870 -0.5577
22035W        W38296   6.283  16.376   0.285  0.1943 -0.1418 -0.1792
22036W        W38297   9.670   4.883  14.198  0.1267 -0.1468  0.4200
22037W        W38298  12.222  17.953   3.672  0.0668  0.1267  0.2002
22038W        W38299  13.696   2.841   2.498  0.0229  0.2531  0.1578
22039W        W38300   6.178   0.131   1.619 -0.0887 -0.0694 -0.2691
22040W        W38301  12.755   2.340  12.026  0.0430 -0.0544  0.0009
22041W        W38302   7.304   6.034   1.144  0.0126  0.0385  0.1683
22042W        W38303  16.429  11.305   2.857 -0.1246  0.3714 -0.1499
22043W        W38304  11.509   9.945  14.479  0.2220 -0.2992 -0.2547
22044W        W38305  10.980   6.232  13.876  0.0489 -0.0316 -0.0151
22045W        W38306  10.911   3.654  12.338  0.1800  0.3205 -0.1741
22046W        W38307  13.535   9.779  13.878  0.0439 -0.1352  0.4967
22047W        W38308  11.510   0.426   3.735 -0.2501 -0.0610 -0.4186
22048W        W38309   7.282  13.019   1.380 -0.1569 -0.3290 -0.0760
22049W        W38310  11.374   1.716   1.731  0.0831 -0.0404 -0.0178
22050W        W38311  11.832   8.155   1.136  0.1242  0.1973  0.0969
22051W        W38312   1.204  18.600  11.481  0.0950  0.2629 -0.0586
22052W        W38313   5.676   1.510  14.028  0.0511 -0.0994 -0.2522
22053W        W38314  11.411   8.885  10.531 -0.2843 -0.1454 -0.1806
22054W        W38315  12.436  17.023  14.715  0.2215  0.0311 -0.0022
22055W        W38316   5.644  11.490   1.277 -0.0626  0.0754  0.1670
22056W        W38317   6.597   0.313  11.508  0.1114  0.0578  0.0740
22057W        W38318  12.337  14.490   1.552 -0.2010 -0.2154  0.1419
22058W        W38319   5.437   8.828  14.477 -0.0438 -0.0585  0.1512
22059W        W38320   3.792   7.123   0.546  0.1450 -0.3273  0.3922
22060W        W38321   3.670  11.412   3.724  0.4072 -0.0688 -0.0948
22061W        W38322  16.813  15.484   9.756 -0.2196  0.0439  0.0526
22062W        W38323   1.593   4.306  11.792 -0.0508  0.0288 -0.1216
22063W        W38324   2.519   2.947  12.488 -0.1092 -0.1713  0.0882
22064W        W38325   3.833  11.853   4.028  0.0415  0.1167 -0.1048
22065W        W38326   8.234   1.341  12.786  0.2214  0.0168 -0.1684
22066W        W38327   4.603  15.932  13.828  0.0534 -0.2226 -0.4916
22067W        W38328  18.912  14.974   5.002  0.2142 -0.2577 -0.1106
22068W        W38329   7.111  15.409  10.500 -0.0334  0.0374 -0.0696
22069W        W38330   1.818  19.043  12.932 -0.1705  0.4006  0.0928
22070W        W38331   4.030   5.347   2.690 -0.5192  0.1493 -0.1489
22071W        W38332  12.718  19.307  14.120  0.0117 -0.1741  0.3274
22072W        W38333   9.005   1.631   1.922  0.0812 -0.0917 -0.0067
22073W        W38334   3.130  12.014  12.571 -0.1155  0.0246 -0.2129
22074W        W38335   1.995  16.714   0.062  0.0123 -0.2494 -0.2657
22075W        W38336   8.876  11.452   3.032  0.0971  0.1050  0.0166
22076W        W38337   5.827   1.486  13.430  0.0196 -0.3230 -0.1277
22077W        W38338  18.819   4.334   3.925 -0.3944  0.0001 -0.1167
22078W        W38339   4.176  12.773   2.170 -0.0061  0.2896  0.0574
22079W        W38340   5.265   1.527   4.580  0.2116  0.1666 -0.6082
22080W        W38341  10.196  19.145  13.348  0.3674  0.1734 -0.0648
22081W        W38342  16.203   8.149  14.384 -0.0725 -0.2143  0.1959
22082W        W38343  16.598  16.285  12.263 -0.0367  0.0855  0.1820
22083W        W38344   2.439   0.509  14.720 -0.1198 -0.2066  0.0968
22084W        W38345  17.026   6.802   1.228 -0.0638 -0.2082  0.0022
22085W        W38346  17.751  17.924   3.070  0.0766 -0.1167 -0.1073
22086W        W38347   3.074   5.197  11.015 -0.2723 -0.1261 -0.2327
22087W        W38348   7.380   6.917   1.575 -0.1822 -0.2667  0.0328
22088W        W38349  15.550   1.354   3.695 -0.0516 -0.0501 -0.1275
22089W        W38350  16.812   6.962   5.066 -0.5160  0.0676  0.0808
22090W        W38351   6.587  11.334   2.509 -0.1384 -0.0086  0.4008
22091W        W38352  17.846  18.526   3.843  0.1807  0.0500  0.1086
22092W        W38353   5.962   9.846   0.100  0.1418 -0.1590 -0.2381
22093W        W38354  14.964   0.777  12.322 -0.1315 -0.1547 -0.1827
22094W        W38355  12.249   6.926  14.259  0.0624  0.0802  0.0188
22095W        W38356   9.290   3.574  14.867 -0.0693 -0.0792  0.0177
22096W        W38357  16.541   6.049   1.332 -0.0780 -0.0325  0.0659
22097W        W38358   4.365   4.090  12.020 -0.0437  0.1128  0.1803
22098W        W38359  10.674  13.972  14.645  0.2381  0.1008  0.3691
22099W        W38360   4.732   9.163  11.082 -0.1200  0.0089  0.2022
22100W        W38361  15.952  11.303   1.331  0.0567  0.1243 -0.2278
22101W        W38362   3.076  17.603  11.218  0.1447 -0.2232 -0.0974
22102W        W38363  12.171   6.079   3.765 -0.0091  0.0881  0.1519
22103W        W38364   1.920   4.792   3.307  0.0259 -0.1816  0.0446
22104W        W38365   1.061   3.343   3.744 -0.1425 -0.3029 -0.1272
22105W        W38366  13.375   0.416  13.840  0.3689 -0.0934  0.0458
22106W        W38367  13.870  11.003   0.809 -0.0646 -0.1487 -0.4992
22107W        W38368  15.063  13.984  14.407 -0.1150 -0.4782 -0.2153
22108W        W38369   3.605   8.775  11.869  0.0058 -0.2002 -0.0455
22109W        W38370  16.972   0.948   1.657 -0.1106  0.2530  0.0870
22110W        W38371  11.899  17.127   0.334  0.0643 -0.1363  0.1056
22111W        W38372  12.072  12.272  12.426 -0.1890  0.1449 -0.0056
22112W        W38373   8.515  17.701   9.396 -0.5317  0.2900  0.1777
22113W        W38374   0.448  10.776  13.821 -0.2436  0.1701  0.2072
22114W        W38375   2.906   2.462   4.897 -0.3039 -0.2886 -0.2759
22115W        W38376   2.762   8.531   5.115  0.1170  0.0376  0.3224
22116W        W38377   2.053  11.445  13.994 -0.2063 -0.1776 -0.1497
22117W        W38378  18.770   2.191  12.776  0.1751  0.2621 -0.2452
22118W        W38379   0.756  18.524   3.328  0.0788  0.1757 -0.3090
22119W        W38380   8.392   7.900  12.293  0.2326  0.3683  0.2292
22120W        W38381   3.681   5.547  12.930  0.0757  0.0590 -0.3156
22121W        W38382   7.332  13.108  12.338 -0.0185  0.0578  0.3496
22122W        W38383   9.082   2.555  11.060 -0.1303  0.1275 -0.0846
22123W        W38384  17.120  18.994  13.470  0.0897  0.0185  0.0974
22124W        W38385  10.932   8.624   2.876 -0.0723 -0.1700  0.0019
22125W        W38386  11.581  13.702  12.156 -0.1490 -0.0315 -0.3482
22126W        W38387   3.011   9.841   3.648 -0.1597  0.1551  0.2678
22127W        W38388   6.692   2.085  12.267  0.2473  0.1525  0.1295
22128W        W38389  12.398   5.590   3.762 -0.0792 -0.3098  0.0958
22129W        W38390  14.950  12.415   1.954 -0.0924  0.0458 -0.6292
22130W        W38391   1.263  12.079   3.500 -0.1601 -0.0617  0.1692
22131W        W38392  14.652   2.858   4.057 -0.1149  0.0099 -0.0806
22132W        W38393  14.012  18.820   1.049 -0.1908 -0.2514 -0.0842
22133W        W38394   7.185   1.994  10.604 -0.2522  0.3702  0.3475
22134W        W38395   3.547   6.953   1.935 -0.3005 -0.1159  0.0604
22135W        W38396   6.652   4.132  13.465  0.0218  0.1569  0.0328
22136W        W38397  13.197   0.250   4.119  0.1114  0.1573  0.3630
22137W        W38398   7.122   7.460  11.271 -0.2808 -0.1172  0.2762
22138W        W38399   0.843   3.604  13.951  0.0494  0.0014  0.1388
22139W        W38400  10.940   3.437  10.194 -0.1312 -0.1980  0.2374
22140W        W38401   0.990  15.844   4.970  0.2842 -0.0308 -0.3727
22141W        W38402   6.824   4.538  12.438 -0.0986  0.0916  0.0327
22142W        W38403  15.872  16.374  10.644  0.1124 -0.0190  0.0347
22143W        W38404  10.334  13.289  13.717 -0.0729  0.0234  0.1644
22144W        W38405  15.198  10.883   2.803 -0.1214 -0.0759 -0.0236
22145W        W38406   1.005  11.640   3.247 -0.0762 -0.1120 -0.0644
22146W        W38407   2.403  11.848  10.587 -0.1056 -0.1513  0.5094
22147W        W38408   0.840   1.776   4.627 -0.1817  0.2439  0.2244
22148W        W38409   7.539  14.609  10.330 -0.0459 -0.2692  0.0205
22149W        W38410  18.746   9.379  11.973  0.0547  0.2671  0.3076
22150W        W38411  14.364   1.203   4.866  0.0646  0.2877 -0.4001
22151W        W38412  12.249   4.333  11.825 -0.3171  0.2391 -0.1220
22152W        W38413  17.605   1.928  11.357 -0.0128  0.3063  0.1483
22153W        W38414  16.951  11.637  14.090 -0.0159 -0.0216  0.2191
22154W        W38415   1.402  12.508  11.778  0.3332 -0.0246 -0.2522
22155W        W38416   1.429   0.357  10.098  0.1262 -0.2752 -0.1811
22156W        W38417  12.900   5.283   4.862  0.2466 -0.2811 -0.0538
22157W        W38418  14.790   5.027   1.017 -0.1207 -0.0933  0.0910
22158W        W38419  15.499   1.841   1.169  0.0348 -0.1668 -0.3032
22159W        W38420  18.423   2.763   1.793 -0.0809  0.0947 -0.0080
22160W        W38421   6.571  16.937  13.372 -0.1177 -0.3547 -0.0891
22161W        W38422  14.028   9.587  13.927 -0.2705  0.0752  0.0158
22162W        W38423   5.142  12.040  14.267  0.0975 -0.0792 -0.0775
22163W        W38424   7.943   1.367  12.416 -0.0350  0.0754  0.0815
22164W        W38425  17.998  12.275   0.878  0.2528  0.3250 -0.0647
22165W        W38426   6.658   4.695   1.553 -0.2083 -0.1244  0.1625
22166W        W38427  14.833  10.266  14.564 -0.1163  0.0269 -0.1312
22167W        W38428  18.888   5.322  12.756 -0.1968  0.0108 -0.0482
22168W        W38429  17.580  16.815   2.049 -0.4021 -0.0391  0.0465
22169W        W38430   0.705   7.587  12.791 -0.0585  0.3925 -0.0859
22170W        W38431  15.575   9.728  10.892  0.0350  0.3128 -0.2077
22171W        W38432   9.774   8.773   3.317 -0.3743 -0.1438  0.5665
22172W        W38433   1.496   2.978  14.375  0.0785  0.3254 -0.0586
22173W        W38434   6.988  17.721   3.213 -0.3399  0.0863  0.1878
22174W        W38435  15.176  10.602  12.760  0.0186  0.3259 -0.1290
22175W        W38436  18.189  12.585  13.748  0.0899 -0.1168 -0.2131
22176W        W38437  14.944  14.213   9.454  0.1841 -0.1898 -0.0352
22177W        W38438  12.488   8.335  11.726  0.0939  0.2411  0.2642
22178W        W38439   8.357  16.342   1.838  0.0282 -0.0198 -0.0405
22179W        W38440   5.257   0.061   5.374  0.0746  0.1985  0.0691
22180W        W38441   1.031  10.972   2.073 -0.0653 -0.1580  0.0060
22181W        W38442   4.692  17.150  13.488  0.0149  0.1269  0.2186
22182W        W38443   3.713   5.382   4.409 -0.0958 -0.2005 -0.0338
22183W        W38444   5.875   5.813  10.758 -0.1359 -0.0536 -0.2335
22184W        W38445  12.640   4.005   1.817 -0.2418  0.1677 -0.2728
22185W        W38446   5.140  14.351  11.071 -0.3122 -0.2007  0.2021
22186W        W38447   0.125   8.478  14.862 -0.0279  0.2408 -0.0935
22187W        W38448   4.139  12.268  13.484 -0.1191 -0.1322 -0.1180
22188W        W38449   0.390   2.537   1.583  0.1403 -0.0402 -0.1862
22189W        W38450   7.423  17.335  10.306  0.0048  0.2610 -0.1613
22190W        W38451  13.219  15.350   0.882 -0.0799 -0.2191  0.0233
22191W        W38452   9.053   4.206   4.807  0.1466 -0.1760  0.1871
22192W        W38453   9.382   5.970   2.113 -0.1410  0.0668  0.2941
22193W        W38454  14.520  16.931   3.984  0.1684 -0.1950 -0.2940
22194W        W38455  11.538  15.251   3.851  0.3283  0.3767 -0.1942
22195W        W38456  11.237   0.490   2.817 -0.1875  0.0755  0.5276
22196W        W38457   6.517   9.404  12.992  0.1420 -0.0193  0.0388
22197W        W38458  18.912  14.458  13.681  0.0018  0.2116 -0.0613
22198W        W38459   7.919  18.265  11.303  0.1839 -0.3577  0.1350
22199W        W38460  13.475  12.697   3.485  0.2328 -0.2917 -0.0607
22200W        W38461  19.187  17.444  12.444  0.0779 -0.1719  0.1517
22201W        W38462  17.719   6.812  10.848  0.3571  0.0995 -0.1648
22202W        W38463   3.960  17.479  13.775 -0.0288 -0.0225 -0.2060
22203W        W38464   3.361   8.494  10.667  0.0098  0.0054  0.1134
22204W        W38465   5.312   2.295  12.479  0.0792 -0.2007  0.0942
22205W        W38466  10.265   0.745   0.210 -0.1110  0.0514 -0.2148
22206W        W38467  13.004  18.191  14.039 -0.2657  0.0265  0.0842
22207W        W38468  15.385   7.759   0.724  0.2455 -0.0518 -0.3726
22208W        W38469   2.413  14.293  10.986 -0.0946  0.0747  0.0395
22209W        W38470  14.435   4.737   3.395  0.1172 -0.1200  0.1376
22210W        W38471   6.638   6.505  14.654  0.4894  0.0124  0.0282
22211W        W38472  10.463   0.754   3.516 -0.2693  0.1523 -0.2238
22212W        W38473  18.909   9.113  10.811  0.0561  0.1639  0.1733
22213W        W38474  16.363   1.887   4.027  0.0544  0.0959  0.1425
22214W        W38475   1.903  12.015   0.969 -0.1663  0.2013  0.0567
22215W        W38476   6.129   7.489   4.179  0.2157 -0.2856 -0.2511
22216W        W38477  11.380   7.158   2.196 -0.0631 -0.2532 -0.3583
22217W        W38478   2.498   4.754   1.629  0.1585  0.0082  0.0659
22218W        W38479  18.880  18.863   4.910 -0.2526 -0.0258  0.1530
22219W        W38480   9.298  15.037  12.908 -0.1129 -0.2516  0.0782
22220W        W38481  16.842   4.414   2.096  0.3889 -0.4617  0.1870
22221W        W38482  12.763   4.378   2.501 -0.0599  0.3519  0.3026
22222W        W38483  17.394   2.079  13.494 -0.3116  0.0646  0.3048
22223W        W38484   9.643   2.721   4.481  0.1497  0.0837 -0.3082
22224W        W38485  18.590  16.750  12.929  0.1338 -0.3978 -0.1538
22225W        W38486  17.968   2.499   4.441  0.0769 -0.2569  0.1346
22226W        W38487  11.625   4.313  13.068 -0.2664 -0.0587  0.2810
22227W        W38488  10.928  19.150  14.738  0.2911  0.0608  0.0911
22228W        W38489  15.957  16.133   3.361  0.0462 -0.0028  0.1007
22229W        W38490   4.793   0.491  11.786 -0.1106  0.4918 -0.0454
22230W        W38491   6.510  18.780   1.631  0.1467  0.0135 -0.0091
22231W        W38492   7.057   3.902  12.858 -0.1426  0.1267 -0.2427
22232W        W38493  18.060  16.118  11.721 -0.2337  0.3037 -0.5460
22233W        W38494  11.816   9.721  12.822 -0.0325  0.0460  0.0438
22234W        W38495   9.562  16.947   2.492 -0.3281  0.1573 -0.1505
22235W        W38496  16.537  12.311  14.523  0.1903 -0.3290  0.0572
22236W        W38497  14.851   0.978  10.339  0.3025 -0.0922 -0.0217
22237W        W38498   8.267  12.929   1.444  0.0374  0.0544  0.0044
22238W        W38499   6.286   9.618   3.467  0.3747  0.0339  0.1341
22239W        W38500   4.101  14.716   4.787  0.2232 -0.4363 -0.0763
22240W        W38501  10.528   8.580  13.634 -0.0798  0.1723 -0.0277
22241W        W38502   5.602   6.702  10.954 -0.0951  0.0938 -0.4369
22242W        W38503  14.234  18.326   1.791  0.0856  0.1032  0.0984
22243W        W38504  13.071   4.121   4.493 -0.2295  0.2147  0.2200
22244W        W38505   2.966   8.292   0.061  0.2465  0.0308 -0.4047
22245W        W38506   1.136  11.077   4.357  0.2380  0.0763 -0.0114
22246W        W38507  15.136   7.490  10.742  0.1732 -0.2226 -0.2492
22247W        W38508  14.621   5.083  11.247 -0.2377  0.2846 -0.3692
22248W        W38509  14.575   0.154   1.052  0.3723  0.3873  0.2177
22249W        W38510   3.816   9.284  10.757  0.4299  0.2478  0.0186
22250W        W38511  18.762  18.391  12.723  0.2845  0.0251  0.2072
22251W        W38512   4.897   2.549  10.864  0.5052  0.1223  0.1239
22252W        W38513   1.379   8.629   3.398 -0.0196 -0.1729  0.0148
22253W        W38514  15.812  18.520   1.497 -0.2276  0.0102 -0.1029
22254W        W38515   9.690  16.761   1.592  0.1527 -0.0545 -0.0733
22255W        W38516   0.749  14.137  11.902  0.1443 -0.0205 -0.3680
22256W        W38517   8.885  19.010  13.595  0.0776  0.2168  0.1297
22257W        W38518  12.413  13.019  13.436 -0.0612 -0.0021 -0.1275
22258W        W38519  17.126   7.925  14.646 -0.0968  0.3073  0.0420
22259W        W38520  16.303  11.991  11.087 -0.1211  0.1011  0.3501
22260W        W38521  18.018  17.215   1.537  0.0914 -0.1251 -0.3718
22261W        W38522  10.506  11.600   4.639  0.3543 -0.1473  0.1380
22262W        W38523   9.181   9.555   1.686 -0.0545 -0.3340 -0.1759
22263W        W38524   3.000  10.914  11.833 -0.3515 -0.1172 -0.4575
22264W        W38525  14.340  13.081   2.272 -0.0066  0.0087  0.0560
22265W        W38526  12.344  13.993   2.597  0.1100  0.1962 -0.2264
22266W        W38527  17.244  14.219   4.496 -0.2360  0.2390  0.2059
22267W        W38528   2.373   1.277   1.075 -0.3063  0.0484  0.0987
22268W        W38529   0.308   2.114   6.605  0.0809  0.0323 -0.1218
22269W        W38530   4.728   1.083  13.728 -0.0023 -0.1311  0.2034
22270W        W38531  14.892   9.709   2.877 -0.4042  0.1856 -0.2009
22271W        W38532  13.215   3.454   2.496 -0.2416  0.0681 -0.1809
22272W        W38533   2.001  18.650   3.707  0.1996  0.1472 -0.0976
22273W        W38534   6.201  16.958   1.540 -0.1910  0.1630  0.2873
22274W        W38535   6.699   9.649   0.203 -0.0077  0.0108  0.1412
22275W        W38536  19.337  14.196  11.896 -0.0699 -0.4276  0.0868
22276W        W38537  14.305  13.147  10.721 -0.3239  0.0368 -0.0601
22277W        W38538   8.486  11.767  11.837 -0.1399 -0.2918 -0.2780
22278W        W38539   5.088  18.790   0.010 -0.1968  0.0807  0.0205
22279W        W38540   0.792   6.452  10.333  0.3245 -0.0216 -0.2377
22280W        W38541   8.206  13.958   4.971  0.0137  0.3044  0.1219
22281W        W38542  18.706  12.438   0.125  0.0512  0.0933  0.2733
22282W        W38543  11.104   0.708   4.862  0.2438  0.0007  0.4524
22283W        W38544   8.868   7.609   1.692 -0.0655  0.0775 -0.1111
22284W        W38545   6.228   6.202  14.469  0.0628 -0.1184  0.0904
22285W        W38546  18.489   9.856  14.006 -0.0154 -0.0044  0.0724
22286W        W38547  13.859  12.968   1.372 -0.2020  0.1564 -0.3210
22287W        W38548  17.338  13.991  10.830 -0.1151 -0.0209  0.5642
22288W        W38549  16.064  12.604  14.602 -0.2433 -0.1435 -0.1789
22289W        W38550  12.049  11.323  13.784  0.1373 -0.1066  0.1101
22290W        W38551  12.063  11.123  11.481  0.1529  0.2764  0.0221
22291W        W38552   4.801  17.134   1.177  0.1387 -0.1588 -0.3741
22292W        W38553  10.718  18.118   3.103 -0.0585 -0.2182 -0.0470
22293W        W38554  12.017   3.359   1.870  0.2564 -0.2464 -0.3819
22294W        W38555   5.548   2.355   2.717  0.0311  0.1623 -0.1230
22295W        W38556  14.067  12.704  12.737 -0.0245  0.1156 -0.5033
22296W        W38557   6.390  15.507   1.599  0.1198  0.0232 -0.2781
22297W        W38558   7.455   8.015  12.262  0.0573  0.0954  0.0549
22298W        W38559   8.811   9.397   4.521 -0.2157  0.0579  0.1150
22299W        W38560  15.835   1.577   1.789  0.3839 -0.1113 -0.2969
22300W        W38561   1.522   3.148   3.792 -0.0005 -0.1234  0.0459
22301W        W38562   5.302   5.863  14.024 -0.2527  0.1083  0.0436
22302W        W38563   0.863  13.674   0.748 -0.0315  0.0257 -0.1336
22303W        W38564  14.222   5.682  12.163 -0.0158  0.1846 -0.0654
22304W        W38565   7.516   4.829  14.745 -0.2833 -0.1087 -0.0583
22305W        W38566   4.830  16.740  13.256  0.1890  0.0388 -0.1878
22306W        W38567   6.214  17.591  14.796  0.1265  0.1531 -0.1313
22307W        W38568   0.729  13.147  10.845  0.0439  0.1197  0.0949
22308W        W38569   0.189   2.341   5.795  0.0596 -0.0728  0.0023
22309W        W38570   7.341  16.267  13.317  0.1862  0.0286  0.1604
22310W        W38571   7.113  11.111  10.277 -0.5678 -0.1867 -0.0500
22311W        W38572  14.082   3.206  13.962 -0.0704 -0.1455 -0.0493
22312W        W38573   3.622  10.465   9.206 -0.3459 -0.2865  0.1373
22313W        W38574  18.546   2.942  12.840  0.0609  0.1952  0.1771
22314W        W38575   8.989  11.746  14.424 -0.0630  0.1532 -0.1421
22315W        W38576  13.452   3.723  12.708 -0.0545 -0.2554 -0.0635
22316W        W38577  14.731   3.099   1.377  0.1213  0.3785 -0.1007
22317W        W38578  17.096   9.430  13.622  0.0529  0.3241  0.0446
22318W        W38579   5.438   8.613   4.831 -0.1691 -0.2261 -0.2875
22319W        W38580   0.420   3.010   4.358 -0.0827  0.1200 -0.0046
22320W        W38581  11.817  11.120   4.531 -0.1005 -0.0899 -0.1294
22321W        W38582   0.983  13.895  13.067  0.2060  0.0764 -0.2940
22322W        W38583  13.649  15.199  13.869  0.2267  0.0527 -0.2068
22323W        W38584  16.597   2.674   0.004  0.0366 -0.0168 -0.0616
22324W        W38585   9.557   3.740   9.457 -0.3630 -0.1367  0.0407
22325W        W38586  13.354   0.367   3.153 -0.2830  0.4122  0.0905
22326W        W38587   2.420   8.104  14.026  0.3044  0.4310  0.1570
22327W        W38588   5.226   5.488   9.700  0.2597 -0.2525 -0.0535
22328W        W38589   1.154   6.050  12.287  0.0136 -0.1523  0.4210
22329W        W38590  10.078   6.724  12.465 -0.1915  0.0982 -0.1297
22330W        W38591   6.329  15.344  13.030  0.4400 -0.2586  0.0953
22331W        W38592   5.987  18.487   2.838 -0.2751  0.0425  0.2261
22332W        W38593  17.972  11.078  10.551 -0.1076  0.3734  0.3592
22333W        W38594   9.327   5.390  11.769 -0.4634 -0.1659 -0.2310
22334W        W38595   0.917  11.715   4.407 -0.0600 -0.0310  0.0144
22335W        W38596   7.571   0.641  13.759  0.0157 -0.2029  0.1259
22336W        W38597   2.604  10.300   3.713  0.0045  0.1949 -0.0615
22337W        W38598  10.280   9.087  11.563 -0.2562 -0.0281 -0.2073
22338W        W38599   8.674  13.386   2.414  0.1248  0.0966  0.0162
22339W        W38600  12.711  11.379   0.523 -0.2509 -0.0643 -0.1854
22340W        W38601  10.313   9.844   2.829  0.3273 -0.1492 -0.0684
22341W        W38602  15.126   7.576   2.440 -0.1012 -0.0719  0.2724
22342W        W38603   2.921   4.650   5.245 -0.2640  0.3801  0.0499
22343W        W38604   9.288   5.981   4.367 -0.0694 -0.1092  0.1534
22344W        W38605   2.562  18.712  13.463 -0.2974 -0.0792 -0.3232
22345W        W38606  11.326   5.070  12.755  0.2128 -0.0419  0.4334
22346W        W38607   4.631  12.063   4.322  0.1828 -0.2112  0.2938
22347W        W38608  12.415   4.900  11.760  0.0151 -0.1495 -0.0389
22348W        W38609  13.747   6.071   2.793 -0.2158  0.0633 -0.0146
22349W        W38610  13.629   8.357  11.450  0.3443 -0.0845  0.2786
22350W        W38611   5.320  13.560  14.798 -0.0266 -0.2650 -0.3659
22351W        W38612   6.255   3.103   2.841  0.2386 -0.0552  0.0450
22352W        W38613   3.174   2.894   4.692  0.3301  0.0375 -0.2228
22353W        W38614  12.610  13.667  10.286 -0.1009 -0.3684 -0.1434
22354W        W38615  10.488   2.528  11.814 -0.1354 -0.2253  0.0926
22355W        W38616  13.902  15.940   0.055  0.3604  0.0234 -0.1793
22356W        W38617   9.420  13.241   2.641  0.0818 -0.0070 -0.0265
22357W        W38618  14.636  14.656   0.193 -0.0624  0.1775  0.2581
22358W        W38619  13.940  16.465   3.887 -0.2080 -0.1232  0.0493
22359W        W38620  12.758   5.966   2.451  0.0213  0.1708 -0.1394
22360W        W38621   3.532   0.309  13.957  0.2055 -0.0812  0.2951
22361W        W38622   7.049  15.057  14.468 -0.1518 -0.5179  0.1600
22362W        W38623  11.275   7.516   1.230  0.2523 -0.4258  0.2583
22363W        W38624   5.660   3.756   3.922 -0.0031 -0.2720  0.1284
22364W        W38625   7.768  11.309  10.860 -0.0385  0.1809  0.0477
22365W        W38626   6.855   4.022  11.060 -0.3162 -0.4606 -0.0497
22366W        W38627  17.025   9.109  10.696  0.2801 -0.1807  0.1760
22367W        W38628  17.978  12.744   9.809 -0.0179  0.1021 -0.3717
22368W        W38629  19.297  18.419   0.694 -0.0868  0.1230  0.1617
22369W        W38630  14.963  13.565  10.226 -0.4574 -0.0486  0.0928
22370W        W38631  13.607   0.130  10.979 -0.2553 -0.1950  0.0426
22371W        W38632  15.675   0.111   3.146  0.2070  0.1988  0.1890
22372W        W38633   2.078   7.407   5.594  0.0396  0.0599  0.1308
22373W        W38634  19.307  11.706   1.169 -0.0448  0.0036 -0.0162
22374W        W38635  14.898  17.072   4.711  0.0715 -0.1311  0.2039
22375W        W38636  12.971  11.581  13.676 -0.0420 -0.0432 -0.0505
22376W        W38637  15.700   8.163   2.634  0.2915  0.1093 -0.0795
22377W        W38638   2.025  14.334  12.866  0.2921  0.0352 -0.1113
22378W        W38639  19.018   9.155   2.362  0.0462 -0.0162 -0.1130
22379W        W38640   5.320   7.478   4.816 -0.2676  0.0384  0.0031
22380W        W38641   7.515  15.075  13.558  0.2112  0.3211 -0.2170
22381W        W38642   0.003   0.070   3.682  0.3366  0.4640 -0.0979
22382W        W38643   3.108  11.657   9.795 -0.0336 -0.3460  0.1126
22383W        W38644   9.894   0.427  10.471 -0.0212 -0.0810  0.0972
22384W        W38645  10.919   4.473   0.700  0.1179  0.1286 -0.0635
22385W        W38646  16.002  16.482   2.739  0.0423 -0.1821 -0.4114
22386W        W38647  16.757  14.326  13.002  0.0376  0.0143 -0.4744
22387W        W38648   1.055   9.378   4.766 -0.1119  0.1059  0.3110
22388W        W38649   1.664  14.016  11.674 -0.0793  0.1257  0.0150
22389W        W38650   3.095   5.737  11.954 -0.2500  0.0216 -0.1587
22390W        W38651   6.155   8.463   1.975  0.1031 -0.1397 -0.1007
22391W        W38652   9.052   2.174  13.108 -0.0367 -0.1281  0.0392
22392W        W38653   2.428   5.554   4.914 -0.1963 -0.0908 -0.1883
22393W        W38654   1.296  11.974   2.154  0.1159  0.2358 -0.1566
22394W        W38655  11.219   7.464  14.230  0.0713 -0.0438 -0.1601
22395W        W38656  16.037  13.059   4.303  0.1383 -0.2410 -0.2469
22396W        W38657  17.803  14.097   3.325 -0.0886  0.0241  0.3787
22397W        W38658  11.707  13.174   4.689  0.2412  0.0706 -0.0624
22398W        W38659   2.825   2.719   1.376 -0.1862  0.1700 -0.1027
22399W        W38660  17.010  18.137   1.104 -0.0504  0.0032  0.0563
22400W        W38661  16.513   7.357  14.082  0.4317 -0.0194  0.0202
22401W        W38662  14.976   4.461   9.577 -0.1831  0.1367  0.1084
22402W        W38663  12.421   9.638   2.116 -0.4158  0.0266 -0.1377
22403W        W38664  15.596  17.137   4.849  0.1134  0.1688  0.0127
22404W        W38665   1.087   3.770  14.478 -0.2326 -0.2210 -0.0101
22405W        W38666   2.832  14.141   1.377 -0.0830  0.2625  0.1391
22406W        W38667   2.490  18.389   0.778  0.2071 -0.1590  0.2082
22407W        W38668  13.981   7.276   4.751 -0.3353 -0.1990 -0.0213
22408W        W38669   6.922  13.568   0.131 -0.2727 -0.1701 -0.2208
22409W        W38670   3.512   1.869   5.378 -0.1678  0.3421  0.1936
22410W        W38671   6.887  13.989   4.940  0.3451  0.0615 -0.2182
22411W        W38672   3.071  18.225   3.411 -0.1897  0.0822 -0.3176
22412W        W38673  10.013   4.661  11.508  0.0252  0.1326  0.0055
22413W        W38674   6.095   8.162   4.631 -0.2353  0.2910  0.2638
22414W        W38675  14.124  16.885  13.919  0.0278 -0.3436  0.2001
22415W        W38676   3.948  12.159  14.293 -0.0262  0.0663  0.4795
22416W        W38677   4.798  15.331  14.614 -0.0745 -0.1876 -0.1151
22417W        W38678  18.427   8.720   1.263  0.1082 -0.0248  0.1422
22418W        W38679  13.761   0.630   5.013  0.2476  0.1835 -0.0653
22419W        W38680  11.713   1.216   8.612 -0.0274  0.1645 -0.0813
22420W        W38681  10.513   9.525   0.708 -0.1338  0.0653 -0.1872
22421W        W38682   9.603   1.571  10.504 -0.3801  0.0274 -0.1440
22422W        W38683  18.458  11.002  10.309 -0.2473 -0.0942  0.1417
22423W        W38684   0.340   5.703  12.953 -0.1479 -0.1119  0.2479
22424W        W38685   0.170  10.133  13.263  0.0364  0.2479 -0.0238
22425W        W38686   9.400   6.166   1.561 -0.1758 -0.1279 -0.1287
22426W        W38687   9.157   4.801   1.445  0.0356 -0.1724  0.0206
22427W        W38688   7.106   9.275  11.378  0.1332  0.0289 -0.0321
22428W        W38689   0.902  13.272  11.720 -0.0719  0.0447 -0.2722
22429W        W38690  10.343   1.341  11.391  0.1671  0.1074  0.0632
22430W        W38691   8.901   2.775  11.455 -0.0658  0.1827 -0.0734
22431W        W38692   7.141   9.310  14.211  0.0998 -0.1086  0.0746
22432W        W38693   6.778  13.597   1.758 -0.3846 -0.2777  0.0414
22433W        W38694   6.775  12.154  10.974  0.1165  0.0178  0.5134
22434W        W38695   8.320  10.728   1.487  0.0100 -0.2370 -0.0890
22435W        W38696   7.949   0.356   3.486 -0.1174 -0.0147  0.3767
22436W        W38697  16.462  18.079  12.901 -0.0617 -0.0175  0.1930
22437W        W38698   4.538  17.613   0.490  0.1696 -0.0949 -0.0977
22438W        W38699   3.756   4.497   0.403 -0.1413 -0.0833 -0.1245
22439W        W38700  12.534   6.157  13.939  0.2461  0.2159  0.2823
22440W        W38701  13.423   4.712   5.178  0.0324 -0.0680 -0.0277
22441W        W38702   5.603   4.229   5.354 -0.1223  0.0125 -0.1359
22442W        W38703   9.111   2.252   4.962  0.0637  0.1234  0.1438
22443W        W38704   3.559  13.093  13.998 -0.3397  0.1962  0.0749
22444W        W38705  17.900  11.230   3.877  0.0610  0.0690 -0.4521
22445W        W38706   9.518  13.101   1.148  0.3400  0.5169 -0.0913
22446W        W38707   4.961   9.520   2.789 -0.3244 -0.1892  0.0957
22447W        W38708   4.996   3.272   2.451  0.0613  0.0937 -0.3480
22448W        W38709  18.898  18.213   1.042  0.5043  0.0003  0.1594
22449W        W38710  18.485  16.585   3.529 -0.0164 -0.0009  0.0398
22450W        W38711  13.634  13.977  12.361  0.0584  0.1551  0.0147
22451W        W38712   6.657  10.245   3.879  0.1140  0.1950  0.2668
22452W        W38713  18.974  12.098  10.765 -0.0412  0.0610  0.2102
22453W        W38714  15.437   1.768   4.164  0.0081  0.4694 -0.2019
22454W        W38715   9.740   3.531   0.588  0.2004  0.0571  0.0255
22455W        W38716   3.070  14.936   2.424 -0.0196 -0.0227  0.0961
22456W        W38717  16.383  19.452  12.245 -0.2445  0.0058  0.2181
22457W        W38718   1.163  17.767   9.796  0.2240 -0.1016 -0.1690
22458W        W38719   8.550  12.642  10.546  0.0799 -0.2120 -0.1283
22459W        W38720   7.023  11.600   2.366 -0.0250 -0.2740  0.0061
22460W        W38721   1.188   9.380   2.449  0.1865  0.0318 -0.1079
22461W        W38722  13.710  10.383   9.996 -0.3035  0.0814 -0.1502
22462W        W38723   2.444   5.055  13.973  0.4534 -0.1266  0.1974
22463W        W38724  13.600  14.847  12.127  0.0700  0.2134 -0.2915
22464W        W38725   8.031   1.367  14.443 -0.0618 -0.0988  0.0712
22465W        W38726  11.093   8.012   3.438  0.2035 -0.2488 -0.0662
22466W        W38727   8.957  11.777  10.502 -0.1070 -0.0803 -0.0170
22467W        W38728   9.004  18.542  14.250 -0.1523 -0.2037 -0.3440
22468W        W38729  13.682  13.807  13.340 -0.0718 -0.4155  0.0425
22469W        W38730   9.044   8.222  12.730 -0.2360 -0.2227 -0.3467
22470W        W38731   4.714  19.388   4.392  0.1330 -0.0682  0.0056
22471W        W38732  18.740   2.260   4.609 -0.6164  0.2620 -0.0159
22472W        W38733  19.318   4.586   2.682  0.4310 -0.1503 -0.1732
22473W        W38734  14.651   0.100   1.980  0.0159  0.1749 -0.0863
22474W        W38735  10.353   0.197  13.060 -0.2872  0.3256  0.0543
22475W        W38736  15.090   1.103   3.665 -0.0228 -0.0986  0.2682
22476W        W38737  13.914  12.628   0.492 -0.1924 -0.1365  0.3071
22477W        W38738  19.121   4.273   5.563 -0.0155  0.1121 -0.1080
22478W        W38739  12.458   8.220  14.642  0.2364 -0.0669 -0.0036
22479W        W38740   5.515   9.571   0.023 -0.2688  0.1910 -0.1323
22480W        W38741   9.384   5.049  12.611 -0.0699  0.2248 -0.0755
22481W        W38742  12.727   5.890  11.772 -0.0189 -0.1685  0.3243
22482W        W38743   1.703  10.214   2.722 -0.0613 -0.1956  0.0122
22483W        W38744  18.536   0.641   0.520  0.0899 -0.2869 -0.0034
22484W        W38745   2.413   9.389  10.574 -0.3977 -0.1466  0.2277
22485W        W38746   3.645  16.683  11.469 -0.0359  0.1239 -0.1938
22486W        W38747   5.457   5.579  13.620 -0.0301 -0.3540  0.1277
22487W        W38748  19.314   6.545   5.481 -0.2383 -0.0770 -0.1048
22488W        W38749   1.383   6.507   3.984 -0.0890  0.0298 -0.1436
22489W        W38750  11.371   1.626   2.367 -0.1043 -0.2497  0.0452
22490W        W38751   3.868  15.085  14.334  0.0993  0.0396  0.0638
22491W        W38752   8.598  15.600  13.693 -0.1898 -0.0326 -0.0008
22492W        W38753  17.480  17.747  14.421  0.1651 -0.1316 -0.1271
22493W        W38754  12.314   1.956   2.158  0.1528 -0.2329  0.1754
22494W        W38755   9.450  14.566  11.415  0.2205  0.1397 -0.0284
22495W        W38756   0.844   4.318   2.112  0.2715 -0.0255  0.2433
22496W        W38757   7.877  17.572   1.275  0.2608  0.2364  0.2533
22497W        W38758  15.030   4.303   1.067  0.2151  0.0339 -0.0482
22498W        W38759  10.055   1.271  10.564  0.0078 -0.2607  0.0664
22499W        W38760  10.630  13.290   0.755  0.1747  0.0923  0.2825
22500W        W38761   9.331  12.474  10.029 -0.1442 -0.2292 -0.1905
22501W        W38762  17.662   6.155   3.198  0.0557  0.0666 -0.2659
22502W        W38763   2.625   4.247   2.441 -0.1159 -0.1538 -0.0575
22503W        W38764   5.277   6.692  12.033 -0.3174 -0.1763 -0.1718
22504W        W38765   3.266  10.099   3.926 -0.0264  0.1680  0.2299
22505W        W38766  16.789   8.864  14.300 -0.0716 -0.0749  0.1364
22506W        W38767   5.258  15.300   9.927  0.1881  0.2121  0.2193
22507W        W38768  18.867   8.235   0.619  0.1152 -0.1231  0.2012
22508W        W38769  10.426  11.273  12.236  0.0001 -0.0940 -0.1965
22509W        W38770  11.134   5.834   5.232 -0.0074  0.2059 -0.0627
22510W        W38771   3.877   8.971   5.054 -0.1554  0.3591 -0.0601
22511W        W38772   4.015   2.924  13.427 -0.2500  0.2290 -0.2555
22512W        W38773  12.096  15.627   0.706  0.0657 -0.2628  0.2252
22513W        W38774  17.024  17.331   4.836 -0.1543 -0.3563  0.1673
22514W        W38775   5.219  17.005   4.900 -0.1525  0.2908  0.1882
22515W        W38776   7.781   8.673  14.743  0.2612  0.0428  0.0746
22516W        W38777  13.494  12.407  13.489 -0.0535 -0.2198 -0.1223
22517W        W38778   7.130  12.460   4.032 -0.0338  0.0995  0.2849
22518W        W38779  11.005  14.571  13.962 -0.1901 -0.1076 -0.1026
22519W        W38780   3.152  11.867   0.175 -0.1807  0.1277 -0.0503
22520W        W38781  15.176  15.284  14.381  0.0507 -0.1601  0.3385
22521W        W38782  13.250   2.017  12.617  0.1735 -0.0624  0.6431
22522W        W38783   4.471   2.318   0.810 -0.1631  0.0131 -0.1766
22523W        W38784  16.293   6.419  13.213  0.0998 -0.1491  0.3465
22524W        W38785   5.944  19.414   2.519  0.6335  0.1697  0.1648
22525W        W38786   2.576  11.940   0.280  0.1870 -0.0292  0.0597
22526W        W38787  11.562   6.269   4.814 -0.0306 -0.3467  0.1362
22527W        W38788   9.741  18.749  13.367  0.0589  0.0370  0.4374
22528W        W38789  14.598   2.393  13.104 -0.2028 -0.0753  0.1076
22529W        W38790  11.623   1.409  13.932  0.0504 -0.2249  0.1213
22530W        W38791   4.650  18.954  14.727 -0.0268 -0.0590  0.0377
22531W        W38792   7.152  10.440  14.858 -0.0575 -0.2934 -0.1051
22532W        W38793   6.909   6.911   4.791  0.2051  0.0933 -0.1811
22533W        W38794   2.628   9.585  13.292 -0.1378  0.0552 -0.0495
22534W        W38795  16.044  17.639   0.643  0.1911 -0.1354 -0.2034
22535W        W38796  14.688   4.020  11.506  0.0154  0.0621  0.4017
22536W        W38797  12.353   6.980   3.297 -0.2751 -0.0872  0.0862
22537W        W38798   1.216  11.122   3.436 -0.2454 -0.0209 -0.1065
22538W        W38799  16.160  19.093   3.118  0.0511 -0.0234 -0.2341
22539W        W38800  14.309   1.870   1.803 -0.1332  0.2721 -0.0652
22540W        W38801  11.550  12.994   1.605 -0.0513 -0.0125 -0.2083
22541W        W38802  16.139  15.685  12.110  0.1579  0.4479 -0.0389
22542W        W38803   7.767   0.072  12.355 -0.0793  0.1699 -0.0310
22543W        W38804   5.083  11.493  10.883  0.4125  0.4630  0.3508
22544W        W38805   9.000  16.872  11.540  0.0208  0.2196  0.1013
22545W        W38806  11.324   6.365  10.990  0.1329 -0.2770 -0.2931
22546W        W38807  14.664   4.371   4.891 -0.2100 -0.5332  0.2750
22547W        W38808  15.601   0.907  13.057  0.1329 -0.2227 -0.2145
22548W        W38809  14.833   2.769   4.510 -0.1987  0.0527 -0.2663
22549W        W38810  11.572  11.371   1.389  0.1748  0.2310  0.2408
22550W        W38811  17.581  17.921  13.551 -0.0248 -0.0953  0.0912
22551W        W38812  15.844   5.331   0.992 -0.0703  0.0921 -0.4549
22552W        W38813  16.412   2.293   4.672  0.1602 -0.2672 -0.0404
22553W        W38814  15.762  14.094   0.406  0.3061  0.1135  0.0034
22554W        W38815  16.190  16.324  11.085 -0.1043 -0.0847  0.3162
22555W        W38816  12.469  16.532  13.901 -0.0795 -0.0629  0.0421
22556W        W38817   6.583  17.497   4.393 -0.2014 -0.0709  0.0243
22557W        W38818   0.946   6.185   2.071 -0.1753  0.0442 -0.0405
22558W        W38819   5.143  13.329  12.865 -0.0711  0.1543  0.0904
22559W        W38820   8.152  15.363   4.436  0.0399 -0.2508 -0.4098
22560W        W38821   2.828  15.114  14.240  0.1907  0.1221 -0.2225
22561W        W38822  15.361  17.574   3.295  0.0053 -0.1660  0.0156
22562W        W38823   6.988   8.456  12.948 -0.0824 -0.1711  0.1030
22563W        W38824  16.798  17.612  12.974 -0.0137 -0.1135 -0.1682
22564W        W38825  12.831  19.149   1.494 -0.0947  0.0083  0.1019
22565W        W38826   4.566  10.967  13.060  0.0204 -0.2674  0.0332
22566W        W38827   8.050  17.380  14.869 -0.2253  0.1545  0.1701
22567W        W38828  19.387  19.112   2.793 -0.1468  0.2676  0.0844
22568W        W38829   8.606  12.039   1.622 -0.2338  0.0597  0.0760
22569W        W38830   5.216   6.259  14.404  0.0468  0.1462 -0.1424
22570W        W38831   5.097   6.441  10.552  0.2047  0.2406  0.4056
22571W        W38832  16.627   9.736   3.995 -0.0009  0.0559  0.2244
22572W        W38833   0.236  11.449   4.139  0.1549  0.1321  0.1097
22573W        W38834  13.544   3.156  13.894  0.2514  0.1598  0.0409
22574W        W38835   6.161   5.878   4.345  0.0374 -0.0352  0.4728
22575W        W38836   9.823   0.384  14.743 -0.2458  0.3467 -0.3613
22576W        W38837  18.520  15.798   5.463  0.3391  0.1375 -0.1813
22577W        W38838  13.841  19.297  14.692 -0.0761  0.1547 -0.3607
22578W        W38839   7.808  17.145   0.404 -0.3655  0.2122  0.1086
22579W        W38840   1.967  16.089   1.678 -0.1369 -0.0847  0.5205
22580W        W38841   5.397   9.140  11.661 -0.1938 -0.1470  0.0986
22581W        W38842  11.403   6.654  13.375 -0.0010 -0.0013  0.0895
22582W        W38843  16.943  17.661   0.357  0.2039 -0.1248 -0.3741
22583W        W38844   8.206   4.870   0.607 -0.1584 -0.0273  0.4223
22584W        W38845  10.696   8.107   3.048 -0.0793  0.0456 -0.1625
22585W        W38846  10.338  16.301   1.157 -0.0410  0.1851 -0.3805
22586W        W38847  16.956   2.133   2.291  0.5317 -0.3298 -0.0153
22587W        W38848   2.243   1.768  10.636  0.0407  0.1129 -0.0504
22588W        W38849   1.482   0.966   2.965  0.0658  0.0355 -0.0808
22589W        W38850   3.499  17.363   1.780 -0.0732  0.2967 -0.0986
22590W        W38851  13.312   7.417   2.384 -0.1297  0.1240  0.0846
22591W        W38852   9.885   7.619   2.653 -0.0144 -0.2434 -0.0458
22592W        W38853  13.032   5.888   1.673  0.1374 -0.2568 -0.1719
22593W        W38854  18.030   4.333   4.058  0.0458 -0.1732 -0.0275
22594W        W38855   1.054   6.388   2.654  0.1691 -0.3282 -0.1416
22595W        W38856  16.030  12.207  13.708 -0.1798 -0.0714 -0.1238
22596W        W38857  10.169  18.411   2.384  0.0695 -0.1014  0.0874
22597W        W38858   5.119   0.398   3.070 -0.1995  0.3503  0.1374
22598W        W38859  10.768  16.943   4.070 -0.2916 -0.3287 -0.0188
22599W        W38860   8.317   4.164   4.150 -0.1072  0.0286  0.1957
22600W        W38861   7.515   1.179  11.514 -0.0810  0.1312 -0.3117
22601W        W38862   5.699   2.069   1.536 -0.3728 -0.0664 -0.3510
22602W        W38863   1.780  10.989  14.682  0.0073  0.1175 -0.2559
22603W        W38864   8.865  13.819  13.116  0.1486 -0.1089 -0.1444
22604W        W38865   4.954  12.705   0.633 -0.2637 -0.0620  0.1868
22605W        W38866   5.278  14.455   1.421 -0.0020  0.1788  0.1370
22606W        W38867  18.211  13.192   2.300 -0.2038 -0.3075  0.2854
22607W        W38868  16.144  12.614   0.638  0.0062  0.0510 -0.1022
22608W        W38869  16.337   3.129  13.854  0.2695  0.0721 -0.0998
22609W        W38870  13.743  16.030  14.433 -0.3483 -0.0851 -0.0915
22610W        W38871   7.624  14.982  11.988 -0.0842 -0.2879 -0.2912
22611W        W38872  11.558  17.078   3.549 -0.3123 -0.3168  0.3094
22612W        W38873  14.299  16.158  14.414 -0.3077 -0.1706 -0.0934
22613W        W38874  19.372  18.873   0.431 -0.2649 -0.1428 -0.0472
22614W        W38875  14.031   1.536   1.420 -0.5247  0.2033 -0.1261
22615W        W38876   4.658  10.043  12.552  0.2521  0.0571  0.0492
22616W        W38877   8.458  14.068  11.364  0.1372 -0.2353 -0.2153
22617W        W38878   1.589  16.942   2.952 -0.3055  0.1683  0.2652
22618W        W38879   1.894  12.458   2.438 -0.3397 -0.2246 -0.0022
22619W        W38880  10.321   3.971  11.690  0.0712 -0.1435 -0.0055
22620W        W38881   7.808  17.553   5.254  0.2173  0.0331  0.0419
22621W        W38882   1.470  14.481  10.120  0.1138 -0.1600 -0.1169
22622W        W38883   4.328  16.356   2.222 -0.2102  0.2607  0.0614
22623W        W38884   1.794   0.646   3.714 -0.1598 -0.1768 -0.0393
22624W        W38885  13.396   8.942   2.642  0.0838  0.0472 -0.1822
22625W        W38886  15.328  14.368  11.282 -0.0145  0.3279  0.0505
22626W        W38887   2.559  18.877   0.708  0.0168 -0.0729  0.0562
22627W        W38888   1.508  11.636   1.687  0.2200  0.0200  0.3482
22628W        W38889   5.434   9.670   3.212  0.2225 -0.0154 -0.0428
22629W        W38890  12.063   0.994  14.718 -0.2685 -0.0039  0.0695
22630W        W38891  14.790   9.817  10.069 -0.1420 -0.1217  0.0082
22631W        W38892  18.531   8.041   4.213 -0.0647  0.5208  0.3214
22632W        W38893  10.659  15.807  10.748 -0.1085  0.0461  0.1476
22633W        W38894  14.621   4.074   4.149  0.2068 -0.0145  0.1956
22634W        W38895   5.502   4.134   2.114  0.1708 -0.4053 -0.1761
22635W        W38896  14.760  14.216  10.895 -0.1841  0.1666 -0.0787
22636W        W38897   9.639   5.721   1.746  0.2591 -0.2961  0.3229
22637W        W38898   1.665   6.314   1.452 -0.1670 -0.1294  0.2827
22638W        W38899   8.385   5.823  12.313 -0.0150  0.0512 -0.1276
22639W        W38900  12.196  11.324   3.826 -0.0636  0.3240  0.0957
22640W        W38901   7.283  19.082  11.454  0.2566  0.0643  0.0206
22641W        W38902   3.286  10.443   1.493 -0.0295  0.4141 -0.1091
22642W        W38903  18.399   6.224   2.271 -0.0573 -0.1240 -0.1549
22643W        W38904  12.114  10.630   4.822 -0.0382  0.2268  0.1002
22644W        W38905   2.712  17.265   3.808  0.0293  0.3528 -0.3684
22645W        W38906  17.913  16.707  14.486 -0.2723 -0.2406  0.0081
22646W        W38907  13.669   5.109  12.528 -0.0071  0.2203 -0.0883
22647W        W38908  15.920  19.022   2.202  0.1356  0.1751 -0.0124
22648W        W38909  16.961   2.034  13.733  0.0240  0.1217  0.2822
22649W        W38910   4.929  12.826  11.854  0.1503 -0.2435 -0.0430
22650W        W38911  16.370   5.912   5.278  0.0861 -0.0395  0.0375
22651W        W38912   4.141   7.838  10.972 -0.1146  0.0976 -0.2384
22652W        W38913  17.732   6.031  14.399 -0.3045 -0.0011 -0.0825
22653W        W38914   8.606  12.451  11.028  0.3556 -0.0571  0.2452
22654W        W38915   2.052  13.703   4.601  0.3518 -0.0929 -0.1005
22655W        W38916  17.032  15.467  12.312  0.1899 -0.3693 -0.0730
22656W        W38917   5.839  19.049  13.681 -0.1012 -0.3020  0.1501
22657W        W38918   4.979  15.980   5.623  0.1149 -0.0277 -0.2463
22658W        W38919   6.878   0.578  13.266 -0.0950  0.0072  0.0432
22659W        W38920   0.050   9.025  13.104 -0.2141  0.0273  0.0705
22660W        W38921  10.235   2.554   1.960 -0.0917  0.0111  0.2047
22661W        W38922   2.659   1.606  12.923 -0.3597  0.2491 -0.1685
22662W        W38923  12.953   4.499   0.561 -0.0194  0.0066  0.0464
22663W        W38924  10.344   5.630  13.389 -0.2360  0.1780  0.5570
22664W        W38925  17.932   0.239   3.012  0.3141  0.0864 -0.1230
22665W        W38926   3.938   2.132   4.414  0.1058 -0.1524 -0.0316
22666W        W38927   1.389  18.039   2.910  0.0981 -0.3270 -0.0192
22667W        W38928   9.759   2.926  11.990 -0.0274 -0.2179 -0.2804
22668W        W38929   0.169  18.578   2.952 -0.3195  0.2672  0.1312
22669W        W38930   0.435  14.232  11.503 -0.1228 -0.0924 -0.0209
22670W        W38931   1.756  11.263   3.549 -0.2443  0.0611 -0.0570
22671W        W38932   2.606  15.781  11.623 -0.1295  0.1041  0.3277
22672W        W38933   7.543   0.205  10.955 -0.1143 -0.1417 -0.0607
22673W        W38934   9.949  18.255  13.469 -0.0942  0.1359 -0.0111
22674W        W38935  10.003  16.212  10.184 -0.0636 -0.0590 -0.2541
22675W        W38936   1.334   5.402   5.792  0.1796  0.1168 -0.0271
22676W        W38937   7.386  14.977  10.737  0.2993 -0.1147  0.1395
22677W        W38938   8.981   1.599  13.297  0.1974 -0.1761 -0.0302
22678W        W38939   9.123   8.760  13.456  0.3303  0.1578  0.3063
22679W        W38940  14.645   0.567   1.895 -0.2840  0.2545 -0.0936
22680W        W38941   2.088  16.344  13.419  0.0584  0.1862  0.0220
22681W        W38942  10.366  14.889   1.903 -0.1695 -0.0773 -0.3426
22682W        W38943   8.716   2.671   1.007 -0.0016 -0.2887  0.3362
22683W        W38944  14.326   6.577  13.166 -0.1073  0.0005  0.2328
22684W        W38945   3.368   0.878   5.252  0.1859  0.0681  0.2155
22685W        W38946   2.146   9.702   2.134  0.1887 -0.0032  0.4502
22686W        W38947  16.010   8.872   0.079 -0.1738  0.0373 -0.0503
22687W        W38948  15.342  10.813  11.415 -0.0321 -0.0867 -0.0256
22688W        W38949  15.915   3.402   2.569 -0.1116  0.0449 -0.1033
22689W        W38950   5.470   9.853  14.273 -0.1540  0.0155 -0.4422
22690W        W38951   3.327   1.943  14.559 -0.0356  0.1399 -0.0196
22691W        W38952  17.771   7.466   0.395  0.0146 -0.0178 -0.3386
22692W        W38953   3.776  15.819   0.160  0.1592 -0.1724  0.4568
22693W        W38954  12.868   1.393  13.263 -0.0145  0.1131 -0.2205
22694W        W38955  19.118  15.112  11.919 -0.0769  0.1695  0.1881
22695W        W38956  12.051   3.279  13.817 -0.2921  0.1048  0.0693
22696W        W38957  11.767  17.589  13.838 -0.1324 -0.0293  0.2341
22697W        W38958   7.282   3.115  10.770 -0.0866 -0.0352  0.0254
22698W        W38959   2.535  13.012   4.719 -0.2061  0.1345 -0.1277
22699W        W38960  13.782   8.723   5.348 -0.0445  0.0351  0.2921
22700W        W38961  13.873   0.788   0.257 -0.0878  0.0990 -0.1425
22701W        W38962  14.783  12.155  11.069  0.0603 -0.0751  0.2378
22702W        W38963   3.451   1.232  11.604 -0.1439  0.2849 -0.1323
22703W        W38964   5.642   9.348   2.160 -0.4790 -0.0600 -0.2942
22704W        W38965   1.119  12.430   0.364 -0.1403 -0.1571 -0.0677
22705W        W38966  18.636   9.107   9.758  0.0395 -0.0563  0.1023
22706W        W38967  19.030   8.669   0.520  0.2773  0.0335 -0.1553
22707W        W38968   9.465   6.563  13.573 -0.1729  0.2632  0.0139
22708W        W38969  18.120   3.102  11.062 -0.1177  0.2009 -0.0148
22709W        W38970   4.960   7.639  14.107 -0.3734 -0.0317 -0.0384
22710W        W38971  17.720  16.028   2.809 -0.1374  0.0433  0.1597
22711W        W38972   7.918   4.826   1.433  0.0209 -0.0810 -0.1864
22712W        W38973  10.483   2.302   0.485 -0.0237 -0.0257  0.4624
22713W        W38974   2.569  17.897   0.902 -0.2709 -0.2888  0.0764
22714W        W38975  19.223  18.421   3.248  0.1144  0.1091 -0.1735
22715W        W38976  12.772   9.938   3.480  0.0057  0.0679 -0.2872
22716W        W38977  16.132  15.867  10.903  0.0287  0.3712  0.1822
22717W        W38978   3.582   5.024   3.049  0.2470  0.1332  0.1296
22718W        W38979   1.938   0.649   3.209 -0.0213  0.1948 -0.1848
22719W        W38980  14.406   5.292  14.011 -0.0531  0.0905  0.0701
22720W        W38981  18.164   3.397   2.250 -0.0932  0.1048  0.0373
22721W        W38982   5.394   8.106   2.220  0.0066 -0.1299  0.2134
22722W        W38983  11.810  12.157   1.765 -0.0506 -0.0729  0.0671
22723W        W38984  16.374  11.105  10.273  0.1127 -0.0391 -0.0202
22724W        W38985  16.149   1.781  14.773 -0.1133  0.0608 -0.0068
22725W        W38986   2.036   7.196   2.936 -0.0194 -0.0141 -0.3299
22726W        W38987  11.480   0.350   3.258  0.1384 -0.5286  0.4050
22727W        W38988   3.300  19.058  11.068 -0.1422 -0.1244 -0.2031
22728W        W38989  15.749   0.779   4.588 -0.0012  0.4325 -0.0730
22729W        W38990  16.941  11.089   0.359 -0.1614 -0.0336 -0.3886
22730W        W38991   3.575  19.247   1.571  0.0806 -0.0131  0.0782
22731W        W38992   0.036   1.527  11.130 -0.1792  0.1826  0.1986
22732W        W38993  15.778   9.269  12.471  0.0448 -0.1850 -0.3239
22733W        W38994  15.668  14.674  12.693 -0.2553  0.0719 -0.2983
22734W        W38995  15.588  15.586  12.549  0.2800 -0.1096  0.0473
22735W        W38996   2.998   8.650   2.012  0.1330  0.4699  0.0174
22736W        W38997   4.658   6.138  10.993  0.1433  0.0148  0.1244
22737W        W38998  15.904   6.481   4.664 -0.2169 -0.1286 -0.1433
22738W        W38999  18.640   4.187  12.044 -0.3213  0.5174  0.2586
22739W        W39000   3.049  16.003   2.896 -0.0945  0.0611 -0.1254
22740W        W39001  16.696   3.692   4.368 -0.0878 -0.1432  0.0515
22741W        W39002  12.210   7.410   1.208  0.0400  0.3147  0.0750
22742W        W39003  18.556   8.748  10.621  0.2051  0.2694 -0.1321
22743W        W39004   7.317   1.711   3.928  0.0039  0.0054 -0.4397
22744W        W39005  16.765  18.342  13.685  0.2079 -0.0878  0.0840
22745W        W39006   5.799  18.904  10.532 -0.2915  0.0141  0.2559
22746W        W39007   3.201  18.101   2.325  0.2103 -0.0256  0.1530
22747W        W39008  18.108  15.761  10.315 -0.2666 -0.1033 -0.2588
22748W        W39009   9.473   2.521  10.646 -0.1820  0.1210  0.0042
22749W        W39010  19.220  14.950   4.539  0.0533 -0.0046 -0.1794
22750W        W39011   5.968   1.586  11.567 -0.1254 -0.0533 -0.0319
22751W        W39012   3.022   7.435  13.470 -0.3676 -0.1417  0.1331
22752W        W39013   0.350   7.463   2.621 -0.1443 -0.2094  0.3942
22753W        W39014   6.087  18.170   5.044  0.0730 -0.3226  0.0672
22754W        W39015   5.805  19.357   2.012  0.2938  0.3901 -0.3480
22755W        W39016   2.720   9.497   3.289  0.0471 -0.1077 -0.0993
22756W        W39017   2.224   1.649   6.277 -0.1103 -0.2845 -0.0280
22757W        W39018   1.713  13.037   4.421  0.1209 -0.1491  0.1588
22758W        W39019   1.339   1.769   3.392 -0.1292 -0.0727 -0.2143
22759W        W39020   9.696   1.247  13.883 -0.0599  0.1362 -0.0499
22760W        W39021  18.207  15.537   0.183  0.0710  0.2505 -0.1618
22761W        W39022   2.246   7.305   3.550 -0.2634 -0.2420 -0.2784
22762W        W39023  11.771   1.921  13.669  0.2433 -0.2867 -0.5101
22763W        W39024  11.478  14.689   3.108  0.0456  0.2373 -0.2592
22764W        W39025   3.758  15.180   2.408 -0.0243  0.1436  0.2848
22765W        W39026   4.511   8.186  11.530  0.3110 -0.3422 -0.0054
22766W        W39027   5.420   7.539  13.248  0.1248  0.1871  0.0117
22767W        W39028   8.241  11.012   0.201 -0.1401  0.1271 -0.1243
22768W        W39029   4.217   0.865   0.358  0.1032 -0.4945  0.1694
22769W        W39030  13.965  16.491   2.375  0.0917  0.0658  0.0325
22770W        W39031  11.488  16.042   4.974  0.1021 -0.0054 -0.2870
22771W        W39032   7.574   9.218  13.143 -0.2380  0.2771 -0.0986
22772W        W39033   0.550  18.979   3.132  0.1453  0.0268 -0.4251
22773W        W39034  18.435   9.509   4.120  0.0304  0.0475 -0.1511
22774W        W39035   2.684   8.048   5.138 -0.0054  0.2807 -0.3615
22775W        W39036  17.112  12.391   4.862 -0.0477  0.2660  0.1305
22776W        W39037   7.815  16.068   0.088 -0.0605 -0.2726 -0.3151
22777W        W39038   1.511   7.660  13.260  0.2240  0.0477  0.0710
22778W        W39039   6.687  17.503   1.997  0.3598 -0.0396 -0.0888
22779W        W39040   9.527  16.647  10.627 -0.1013 -0.1691 -0.2090
22780W        W39041   4.703  17.592  12.780 -0.1483  0.2329  0.0187
22781W        W39042   0.210   8.806  10.370 -0.1056 -0.4952 -0.0108
22782W        W39043   1.912  17.970  12.493  0.0183  0.0306 -0.2292
22783W        W39044   8.734   2.664   4.937 -0.0207 -0.1523 -0.0933
22784W        W39045  10.103  11.965   4.665 -0.0769 -0.0428  0.1435
22785W        W39046  10.133   1.529   3.871  0.0848 -0.0779  0.2529
22786W        W39047   0.403   9.159   1.389 -0.2829 -0.0409  0.3366
22787W        W39048   5.094  13.416   4.339 -0.0024  0.0423 -0.1911
22788W        W39049   0.964   0.626  14.516  0.1724  0.1969 -0.0446
22789W        W39050   4.874  14.326   1.860  0.0618  0.0469 -0.5299
22790W        W39051   0.486   1.236   2.278  0.0385 -0.0608  0.0500
22791W        W39052   4.026   1.232   0.030 -0.0184 -0.1346  0.0488
22792W        W39053  11.496   8.106  12.522 -0.1477 -0.0331  0.2211
22793W        W39054   2.663   2.092   5.442 -0.0990  0.0347  0.2605
22794W        W39055   5.535  11.094  11.702  0.0076 -0.3010  0.3514
22795W        W39056  15.409   0.776  10.528  0.0868  0.0476 -0.0430
22796W        W39057  18.523   8.318  13.471 -0.1947  0.0353 -0.7949
22797W        W39058   1.930   0.346   2.803 -0.4733 -0.0007 -0.0948
22798W        W39059   2.563   0.459   2.091  0.2476 -0.1763 -0.1966
22799W        W39060   5.308  11.776   1.604 -0.1716  0.1288  0.2054
22800W        W39061  16.973  17.888   1.517  0.0598  0.1859 -0.1154
22801W        W39062  14.865   9.534  12.333 -0.0201  0.3013 -0.1029
22802W        W39063  10.016   0.450  13.941 -0.0846  0.2740 -0.1782
22803W        W39064   2.848   9.153  10.560  0.0362 -0.2222  0.0277
22804W        W39065   9.518  10.751   4.345 -0.0436  0.2062  0.0272
22805W        W39066  11.715  15.853   0.992  0.1077 -0.1246  0.1085
22806W        W39067   0.398  16.884   0.889 -0.1408 -0.2619 -0.1627
22807W        W39068  11.403   0.835   1.476 -0.3057 -0.2621 -0.0164
22808W        W39069  10.706   2.604  10.479 -0.0618  0.1413  0.1411
22809W        W39070  12.179  12.926   4.401  0.1249 -0.1175 -0.0864
22810W        W39071   3.663  17.157   0.129 -0.0778  0.0455 -0.0242
22811W        W39072   5.860  10.646  14.588 -0.1860  0.0994 -0.1811
22812W        W39073   3.917  17.538   1.543 -0.0879 -0.0057 -0.1019
22813W        W39074   3.220  17.220   5.021 -0.0431 -0.0520 -0.3508
22814W        W39075  10.622   2.830   1.704 -0.2009  0.0307 -0.0740
22815W        W39076   9.376   6.519  12.515  0.0890 -0.0637  0.2036
22816W        W39077  13.876  12.536   4.978  0.1597 -0.1460 -0.0824
22817W        W39078  16.104  15.879   9.005  0.2426  0.0406 -0.0378
22818W        W39079  13.553  17.293  13.890  0.1029  0.0768 -0.1945
22819W        W39080  17.480  10.653  14.086 -0.0847  0.1196 -0.1328
22820W        W39081   6.709  16.306  11.045 -0.1702 -0.2991 -0.0724
22821W        W39082  15.263   7.712  13.455  0.0716 -0.4152 -0.2028
22822W        W39083  15.566   2.111  11.336 -0.0646  0.0535  0.1481
22823W        W39084   3.448   4.755   0.126 -0.1175 -0.0734 -0.0508
22824W        W39085   5.318  16.139  14.841 -0.1768  0.3181 -0.0243
22825W        W39086  10.944  17.410   4.134  0.1409  0.1962  0.0326
22826W        W39087  17.134   0.312  12.660  0.1025 -0.1674 -0.1750
22827W        W39088  12.760  14.485   4.265  0.0663 -0.0468  0.0548
22828W        W39089   1.436  18.417  13.439 -0.2368 -0.0147  0.2353
22829W        W39090   0.064   7.573   0.910 -0.0931 -0.2016  0.2934
22830W        W39091  15.032  17.430   2.819 -0.0932  0.2579 -0.3364
22831W        W39092  19.068   0.830  10.828  0.1862 -0.0427 -0.0660
22832W        W39093   7.500  16.503   4.927  0.1491  0.0520  0.4358
22833W        W39094  15.044   7.103  11.694 -0.0129 -0.2918  0.0476
22834W        W39095  15.729  16.806   5.253 -0.2254 -0.0856  0.0111
22835W        W39096   2.147   1.525  13.130 -0.0187 -0.1326  0.0783
22836W        W39097   0.086   7.686   0.416 -0.1795  0.0757  0.0710
22837W        W39098  17.515  15.271   0.601  0.1447 -0.3231  0.2113
22838W        W39099  15.660  12.592  11.203  0.6884  0.0836  0.0799
22839W        W39100   9.847   6.314   1.220  0.0806  0.1948 -0.0621
22840W        W39101  12.858  11.178  14.549  0.1246 -0.5825 -0.0350
22841W        W39102  14.770   0.669  13.760  0.0786 -0.0232  0.0793
22842W        W39103   5.726  12.498   3.482 -0.2562  0.1540 -0.5022
22843W        W39104  17.427   3.094   1.418  0.2754  0.2544 -0.1035
22844W        W39105  15.282  13.976   3.945 -0.2261  0.0940  0.0650
22845W        W39106   5.960  12.540   2.039  0.2091 -0.0559 -0.0994
22846W        W39107  14.995   8.406  14.498  0.0642  0.4187 -0.0841
22847W        W39108  17.925  17.193  12.194  0.2165  0.0635  0.3996
22848W        W39109  11.901  11.175   1.808  0.0660 -0.1471  0.2290
22849W        W39110   6.446  13.878   4.850 -0.3372  0.0012 -0.4650
22850W        W39111  10.050  16.113  13.733  0.2479  0.0082 -0.0331
22851W        W39112   0.590  19.369   4.849 -0.5132 -0.4095  0.1992
22852W        W39113   6.405  10.895   4.581 -0.0770  0.2075  0.0395
22853W        W39114   3.590  12.295   4.023  0.0647 -0.2504 -0.0688
22854W        W39115  16.536   9.583  11.088 -0.0861 -0.0942 -0.1907
22855W        W39116  14.661  15.649  12.606 -0.1657  0.2344  0.4123
22856W        W39117   9.078  11.848   4.152 -0.5418 -0.2086 -0.0258
22857W        W39118  18.329   9.638  14.420 -0.0853 -0.0690 -0.3600
22858W        W39119  10.726   3.571  14.389 -0.1105 -0.2261 -0.0297
22859W        W39120  19.172   5.239  10.925 -0.1094  0.2121  0.0275
22860W        W39121   7.090   4.302   0.804  0.1322 -0.0908 -0.0165
22861W        W39122  17.435   2.740   4.735 -0.1398 -0.0356  0.0356
22862W        W39123   9.928  16.705  14.607  0.3176 -0.1457 -0.0546
22863W        W39124   5.950  17.644  14.323 -0.3090 -0.1206  0.0612
22864W        W39125  13.913   0.718  13.530  0.1116 -0.0966 -0.0560
22865W        W39126   4.176   6.868  11.419  0.1083 -0.0037  0.0537
22866W        W39127  10.819  15.404  11.708  0.2468 -0.0052 -0.3433
22867W        W39128   7.897  10.763  10.630  0.0078  0.1266 -0.0101
22868W        W39129  18.198   7.824  10.917 -0.0601  0.0988 -0.3628
22869W        W39130   2.112   0.522   2.317  0.1327 -0.1706  0.0945
22870W        W39131  13.505  13.599  12.058 -0.1714 -0.0345  0.1709
22871W        W39132  15.562   4.351  11.718  0.0517 -0.1114  0.0156
22872W        W39133   4.358   6.216  13.431  0.1701  0.1009 -0.0706
22873W        W39134  10.250   0.833  11.108  0.0361  0.4895  0.0436
22874W        W39135  12.174   7.291   3.910 -0.0877 -0.0186  0.2042
22875W        W39136   5.534  13.514  10.397 -0.2278  0.2446  0.0546
22876W        W39137   1.022   7.185   1.910  0.3488 -0.2858 -0.0132
22877W        W39138   7.661   4.965   4.057  0.0348  0.0633  0.3226
22878W        W39139  10.391  10.505   0.583 -0.1477 -0.0038 -0.1523
22879W        W39140  11.458  13.761  11.009 -0.1262  0.0183 -0.0759
22880W        W39141  15.086  10.673  13.770  0.0928  0.0926  0.0236
22881W        W39142   6.676  14.004  11.448 -0.1635 -0.1168  0.3411
22882W        W39143   5.754  15.461   4.329 -0.0689 -0.2401 -0.3239
22883W        W39144  15.800  17.302   1.742 -0.1143  0.0985 -0.2791
22884W        W39145  15.749   3.000   4.373  0.1875  0.3714  0.2028
22885W        W39146   5.141   5.997   3.422 -0.1750 -0.1655 -0.2103
22886W        W39147   9.376   4.592  12.239 -0.1656  0.1286 -0.0955
22887W        W39148  15.362   4.871   3.094 -0.2040 -0.2408 -0.4225
22888W        W39149   8.801   5.036  11.872  0.1239  0.0077 -0.0376
22889W        W39150   7.877  10.172   4.557  0.0999  0.0716 -0.0706
22890W        W39151   3.393  16.612  12.989 -0.1140  0.2441 -0.0996
22891W        W39152  12.827   5.197   2.996 -0.0419 -0.0676  0.0414
22892W        W39153   3.550  11.645   3.279 -0.0516  0.0102 -0.0685
22893W        W39154  16.685  13.038  14.748  0.0131 -0.0845  0.0199
22894W        W39155  17.597  11.883   5.068 -0.0287  0.0017  0.1320
22895W        W39156   8.771   8.711   3.590  0.1084 -0.1547  0.1279
22896W        W39157   3.296  14.626   9.791 -0.1300  0.1627 -0.1930
22897W        W39158  11.722   3.079  12.225 -0.0900  0.0051  0.2692
22898W        W39159  10.976   3.122   3.988 -0.0664 -0.2872 -0.2176
22899W        W39160  13.801  14.913  13.463  0.2002  0.4296  0.0147
22900W        W39161   3.540   8.474   1.924 -0.0716  0.2468  0.0450
22901W        W39162   0.523  14.887   4.919  0.1105  0.0836  0.0541
22902W        W39163  18.123   4.193  12.076  0.3136 -0.3778  0.0738
22903W        W39164   7.702  10.982   0.440 -0.0989 -0.1377  0.3620
22904W        W39165   5.390   1.400  14.428 -0.0810  0.2275 -0.1608
22905W        W39166   5.106   1.556  11.865 -0.2268 -0.0061 -0.1286
22906W        W39167   9.412   2.294  10.137  0.2815  0.3249  0.1894
22907W        W39168  15.104  11.851  12.510  0.2239  0.0877  0.4132
22908W        W39169  11.788  10.217  13.453  0.2788  0.4599 -0.1644
22909W        W39170   9.041   7.445   2.236 -0.1438 -0.3231  0.2784
22910W        W39171   9.375   3.582  12.697 -0.0515  0.1296 -0.2583
22911W        W39172  11.428   2.948  11.821 -0.1738 -0.1236 -0.1660
22912W        W39173  14.569  14.325   2.839  0.4314 -0.4764 -0.2424
22913W        W39174   1.149   9.374   3.192 -0.0111  0.1042  0.0959
22914W        W39175  16.179   2.464   0.785 -0.2154 -0.3296  0.2067
22915W        W39176   1.506   3.859   3.191 -0.2005  0.0046  0.2185
22916W        W39177   9.961  14.821  11.373 -0.1709 -0.0159  0.2081
22917W        W39178   3.228   9.322   5.646  0.0926  0.1101 -0.2494
22918W        W39179  11.132   0.651   0.952  0.0958  0.1998 -0.1326
22919W        W39180  12.203  13.161   3.933 -0.0012 -0.0999  0.2187
22920W        W39181  10.032   7.649   1.666  0.2210  0.1399  0.1734
22921W        W39182  19.219   5.026  12.550 -0.0133 -0.0965  0.0880
22922W        W39183   0.595   3.827  14.366 -0.0443 -0.2825  0.0720
22923W        W39184   1.312  16.324  11.486 -0.1388  0.4400 -0.1864
22924W        W39185   7.212  10.932   3.510 -0.3372  0.2227  0.1050
22925W        W39186   5.301  17.998   1.107 -0.3935  0.0408 -0.0817
22926W        W39187  11.140  19.400  12.323  0.0744  0.0120  0.4152
22927W        W39188   2.989   6.440  12.469 -0.3043  0.0193 -0.0358
22928W        W39189   1.227   0.455  11.049 -0.2298 -0.0183 -0.1332
22929W        W39190   0.193  11.988  11.526 -0.2656  0.0853 -0.1552
22930W        W39191   4.976  15.767   4.263  0.0746  0.2622 -0.0355
22931W        W39192   9.399   0.227   0.268 -0.4407  0.2258  0.0167
22932W        W39193   5.184   7.128   2.379  0.0762  0.0701 -0.0377
22933W        W39194   5.639   1.845   5.249 -0.0733  0.0128 -0.0374
22934W        W39195  14.128   0.010   1.214 -0.1287 -0.0420  0.3646
22935W        W39196  11.009   5.975   9.920  0.2041  0.1738 -0.3185
22936W        W39197  11.078  16.957  10.077  0.1147 -0.0619  0.0979
22937W        W39198   1.205  10.478  10.460  0.1170  0.0926  0.2557
22938W        W39199  11.429  16.981   0.183 -0.2040  0.0603 -0.3279
22939W        W39200   8.718   8.000  10.755  0.1544 -0.5329  0.3881
22940W        W39201  10.098  18.479   1.894 -0.1200  0.1011  0.2082
22941W        W39202   3.032   1.128   5.560 -0.1675 -0.1310  0.1170
22942W        W39203  12.079  16.361  14.796  0.2424 -0.0260 -0.1890
22943W        W39204  10.212   6.620  10.409 -0.2451 -0.0646  0.0911
22944W        W39205  14.000  12.816   3.326 -0.1634  0.1654 -0.0004
22945W        W39206  10.426   2.399   3.101 -0.1307 -0.0528  0.1441
22946W        W39207   3.564  14.108   2.282  0.1436 -0.5388  0.2937
22947W        W39208   4.027  13.876   3.381 -0.1498 -0.0246  0.1225
22948W        W39209   1.671   3.805  13.253  0.0164  0.2551 -0.2112
22949W        W39210  15.363   5.678   1.716 -0.0389  0.0938 -0.0960
22950W        W39211  15.184   1.685  11.950  0.1419  0.0318  0.1821
22951W        W39212   5.278  13.498   1.893 -0.2654 -0.0543  0.2093
22952W        W39213   9.831   9.640  13.974 -0.1034 -0.0415 -0.2388
22953W        W39214   8.897  11.825  11.433 -0.0066  0.1195 -0.1575
22954W        W39215   3.828  10.713   9.860  0.0234  0.1067 -0.1723
22955W        W39216   4.980  12.187  14.713 -0.2133  0.3403 -0.1026
22956W        W39217   4.757   0.419   3.882  0.0031  0.1834 -0.2167
22957W        W39218   6.184   5.325   2.138  0.1269  0.0719 -0.0891
22958W        W39219  14.251  10.613  13.113 -0.1151  0.1446  0.0654
22959W        W39220  16.178   4.925   5.007 -0.1754  0.1614  0.0607
22960W        W39221  14.508   8.834  12.463 -0.0444 -0.2464 -0.1092
22961W        W39222   7.422   2.673   5.211 -0.0441 -0.2971  0.2705
22962W        W39223  14.262   2.947  10.420 -0.0732 -0.3804 -0.0246
22963W        W39224  14.121   8.503  12.661  0.2262  0.0145 -0.0764
22964W        W39225   6.189  13.820  12.819 -0.0974 -0.1170 -0.2086
22965W        W39226   0.591   5.120   3.874 -0.4677 -0.3586  0.0441
22966W        W39227  13.538   2.038   3.955  0.1016  0.3461 -0.0097
22967W        W39228  12.357  14.767   4.122  0.0169 -0.1253 -0.2245
22968W        W39229  15.456  11.299   2.633 -0.0165  0.2475  0.6031
22969W        W39230   9.550  12.486  14.818 -0.0617  0.0717  0.2120
22970W        W39231  13.112   8.392  11.091 -0.1298  0.0192 -0.2955
22971W        W39232  14.113  11.643   5.278 -0.1925 -0.4715  0.1833
22972W        W39233  13.406   8.873  13.539  0.3020  0.0581  0.1872
22973W        W39234  18.673   3.751   4.355 -0.3856  0.0013  0.1275
22974W        W39235   4.057  13.062   1.722  0.2363 -0.2794  0.2225
22975W        W39236  15.040   8.308   4.492 -0.2536 -0.1289 -0.2063
22976W        W39237  10.211  16.847  10.362  0.1787  0.0147 -0.3619
22977W        W39238   8.570   5.023   4.652  0.1072 -0.2038 -0.1031
22978W        W39239  17.679   6.111   4.712  0.1989  0.1609 -0.0463
22979W        W39240  12.017   8.316  11.458  0.0794  0.0983  0.3802
22980W        W39241   0.820   1.501   5.051  0.0074 -0.0721 -0.2032
22981W        W39242   3.095  15.119   9.436 -0.1407 -0.0289 -0.0393
22982W        W39243   9.606  19.268   0.656  0.0324 -0.0140 -0.1485
22983W        W39244   0.839   1.857  10.589 -0.0380 -0.0347 -0.0772
22984W        W39245   1.368   7.399  11.491 -0.1725  0.1625  0.2635
22985W        W39246  19.120   5.416  11.850  0.3162  0.0139  0.0001
22986W        W39247   1.724  11.531   9.911  0.1299 -0.0348  0.0780
22987W        W39248   2.729  14.773  11.784 -0.1439  0.0988 -0.2061
22988W        W39249   3.759  16.438  13.746  0.1814  0.0971 -0.0953
22989W        W39250   5.091  18.824  11.106  0.0844 -0.0873  0.1340
22990W        W39251   8.337  18.404  13.076  0.0868  0.1315  0.2151
22991W        W39252   3.280  16.822  14.254 -0.1993  0.2918 -0.0027
22992W        W39253  10.473   6.279  14.526 -0.0160  0.2963  0.2266
22993W        W39254  19.047  18.628  13.777  0.2856 -0.0956 -0.0978
22994W        W39255  18.175   5.642   2.662  0.2167 -0.1382 -0.3198
22995W        W39256  15.305  16.770   9.078 -0.3304 -0.2784 -0.1751
22996W        W39257   0.593  18.505  12.121  0.0618  0.0958  0.1732
22997W        W39258  15.926  11.481  12.572 -0.3952  0.0357  0.1030
22998W        W39259   7.099   7.941   0.319 -0.1509  0.1656  0.2385
22999W        W39260  19.269  17.459   1.151  0.0932 -0.2719 -0.0543
23000W        W39261   3.075   4.240   2.173  0.1956  0.1862 -0.0628
23001W        W39262  10.593  18.897  13.460 -0.0911 -0.0033  0.6441
23002W        W39263  11.227   8.410  11.444 -0.2832 -0.0464 -0.0086
23003W        W39264   4.152  17.513  11.763 -0.0059  0.1349 -0.2719
23004W        W39265   4.415  12.882  12.396 -0.0601  0.0313  0.0796
23005W        W39266  16.322  17.727   1.061 -0.1373 -0.3588  0.1952
23006W        W39267   4.519   6.907  12.447  0.1129  0.0473  0.2409
23007W        W39268   3.759  13.365  11.180  0.2425  0.0014 -0.2091
23008W        W39269  12.607  12.813   3.936  0.1437 -0.2206 -0.1710
23009W        W39270  11.342   7.694  13.827 -0.0042  0.1584  0.1192
23010W        W39271  11.013  14.449   9.631  0.1712  0.0957 -0.2294
23011W        W39272  12.403   9.377   3.011 -0.1176  0.3627  0.0150
23012W        W39273   9.453  11.245   1.980  0.1119  0.3194  0.2399
23013W        W39274   9.469  14.355  13.483  0.1861  0.3956  0.2453
23014W        W39275   9.285   1.278   4.924 -0.0306 -0.0679  0.0840
23015W        W39276   4.057  10.939   5.015  0.0709  0.0794 -0.1983
23016W        W39277  15.439  17.626   2.041 -0.0698 -0.3031  0.0264
23017W        W39278  13.049   1.316   1.350 -0.0141 -0.2762 -0.1525
23018W        W39279   6.185  16.205   4.264 -0.1941  0.1649 -0.1254
23019W        W39280  10.771   5.800  11.580  0.4081  0.0713  0.2309
23020W        W39281   4.417   8.176   1.815  0.1079 -0.0878 -0.1047
23021W        W39282  16.543  14.606  13.703  0.1598 -0.0015 -0.0924
23022W        W39283   6.345   9.062   2.175  0.0614  0.0997 -0.0532
23023W        W39284  11.496  10.895   4.194  0.0709 -0.0228  0.3715
23024W        W39285   7.332  11.010   1.229 -0.3679  0.0752  0.2984
23025W        W39286  11.307   4.364   1.060 -0.1701  0.0393 -0.1958
23026W        W39287   5.624   8.088   3.995 -0.1218 -0.0350 -0.0796
23027W        W39288  10.796  15.457   0.850 -0.1961  0.4533  0.3214
23028W        W39289  16.624   7.695  13.720 -0.0452  0.2202  0.1077
23029W        W39290  16.669   7.551  12.381 -0.1332  0.0347  0.0151
23030W        W39291  11.563   3.436   4.245 -0.0250  0.1864 -0.0679
23031W        W39292   7.769  12.738   1.603  0.2007 -0.1336 -0.0255
23032W        W39293  12.323   5.473  11.190 -0.1631  0.0941  0.2036
23033W        W39294  18.062  13.658  10.013 -0.4467 -0.1491  0.2485
23034W        W39295   1.992   4.632  11.738 -0.0401 -0.3121  0.0880
23035W        W39296  18.835   7.262   2.415  0.0160  0.1091  0.0762
23036W        W39297  15.070  11.811   0.266 -0.0522  0.2422 -0.0274
23037W        W39298  10.402  12.819   4.470 -0.0370  0.1859  0.0264
23038W        W39299  14.763   7.930  14.271 -0.2715  0.0847 -0.1089
23039W        W39300  17.602  11.108   5.020  0.0225  0.0530  0.3883
23040W        W39301   6.446  13.801   2.677  0.0332  0.0160 -0.4031
23041W        W39302  10.619   3.762  11.330  0.0068 -0.2570  0.0203
23042W        W39303  12.021  14.271   0.625  0.0671  0.2143  0.1481
23043W        W39304  14.121  17.569   4.676 -0.2994  0.1386  0.1128
23044W        W39305   0.952   5.315  12.832  0.3648  0.0370  0.1823
23045W        W39306   0.880  15.856   1.095 -0.0110  0.1904  0.2665
23046W        W39307  13.426   6.665  13.988 -0.0265  0.5094 -0.4009
23047W        W39308  10.063   0.155  12.648  0.0369 -0.0571  0.0897
23048W        W39309  14.385  15.768  10.803 -0.0755  0.2435 -0.0642
23049W        W39310  17.768  12.494  11.076  0.2706  0.0054  0.1362
23050W        W39311  12.770  17.209   4.356  0.2473 -0.1789 -0.2148
23051W        W39312  16.391  18.493   0.218 -0.3818  0.4487 -0.0380
23052W        W39313   7.643  10.220   4.030 -0.0819 -0.0684  0.0048
23053W        W39314   1.511  19.091   0.622 -0.2648  0.3649  0.3181
23054W        W39315  10.689   8.571   4.108 -0.3224  0.2221 -0.0221
23055W        W39316  17.610  18.306   3.313 -0.0138  0.0872  0.1374
23056W        W39317   7.669   7.149  10.712  0.2165 -0.0521 -0.2741
23057W        W39318   8.205  10.095   0.000 -0.2066 -0.0839  0.2750
23058W        W39319  18.167  12.824   2.819  0.1973  0.0660  0.3214
23059W        W39320  12.979   4.703  14.849  0.0184 -0.1388 -0.1577
23060W        W39321   0.500  10.940  11.838  0.2242  0.2324  0.2149
23061W        W39322  11.912   0.227   2.950  0.3397  0.0268 -0.1406
23062W        W39323  18.951   8.731  13.529 -0.0593  0.1566 -0.0210
23063W        W39324   1.717  16.356  14.143  0.0194  0.2752 -0.0894
23064W        W39325   3.647   0.824  12.352  0.4185  0.0215  0.2140
23065W        W39326  16.702  10.043   1.840  0.1329 -0.0630  0.2500
23066W        W39327   2.172  15.817   0.480  0.3156  0.0491  0.0912
23067W        W39328   4.039  10.878  13.031  0.1557 -0.1733  0.0455
23068W        W39329  10.340   4.927   4.185 -0.1420  0.1744  0.0563
23069W        W39330  10.942  18.634   1.822 -0.0848  0.0704 -0.1830
23070W        W39331   6.395  16.028  10.708  0.0759  0.1224 -0.2391
23071W        W39332   1.162  17.696  11.874  0.2685  0.2650 -0.0342
23072W        W39333  11.635   0.060   9.816 -0.0036 -0.0112  0.1249
23073W        W39334   1.354  16.753  14.074  0.0062 -0.1122 -0.0234
23074W        W39335  10.136  11.139  12.782  0.2346 -0.2911  0.0431
23075W        W39336  13.060  12.753  13.534  0.1226 -0.2500 -0.0608
23076W        W39337  13.166   2.686   2.209  0.0002  0.2698 -0.3506
23077W        W39338  13.458  13.915   0.785  0.3237  0.2301 -0.1801
23078W        W39339  17.731   2.845   3.041 -0.0425 -0.0927  0.0150
23079W        W39340  16.626  17.151  11.223  0.1325  0.4270 -0.1565
23080W        W39341  14.604  11.956   3.385  0.0869  0.4844  0.0618
23081W        W39342   4.114  12.614  11.438 -0.0865 -0.0694 -0.4700
23082W        W39343  17.718   3.400   0.061  0.1715  0.0318 -0.1425
23083W        W39344   0.606  10.582   2.497  0.2573  0.1093  0.3053
23084W        W39345   4.656   8.259   1.353 -0.1463  0.0394  0.0388
23085W        W39346  11.118   5.493  12.451 -0.1631 -0.1892  0.1311
23086W        W39347  15.864   4.800  11.810 -0.0436 -0.1390 -0.1903
23087W        W39348  13.809   4.268  13.647 -0.3326 -0.3364  0.4296
23088W        W39349   7.580   5.878   4.635  0.0494  0.2664 -0.0764
23089W        W39350  13.476   5.042   4.201  0.2552 -0.3513  0.4005
23090W        W39351   5.112   0.940   6.046  0.1936 -0.1236 -0.1582
23091W        W39352   4.391  15.864   2.352 -0.1965  0.1117  0.1312
23092W        W39353   4.495  16.018   3.625  0.0720 -0.3176  0.0078
23093W        W39354  16.313   5.163  11.954  0.0301 -0.2189  0.0702
23094W        W39355   7.901   7.776   2.805 -0.1526 -0.0398 -0.0549
23095W        W39356   1.891   2.578  14.207 -0.4267 -0.2727  0.0935
23096W        W39357   7.919  10.214  10.099  0.1684  0.0654 -0.1209
23097W        W39358  17.792   9.510   1.451 -0.1497 -0.0525 -0.0199
23098W        W39359  13.525  16.963  12.746  0.1016  0.0198  0.3030
23099W        W39360   4.212  17.366   3.563 -0.3041 -0.2810 -0.3138
23100W        W39361  14.728   7.493  13.450 -0.1092  0.3498 -0.1994
23101W        W39362   2.888   9.475   2.798  0.1457  0.0128  0.0402
23102W        W39363  13.428  18.647   3.944  0.0572  0.0670  0.0633
23103W        W39364   5.437  15.879   5.498  0.4595 -0.1793 -0.0461
23104W        W39365   5.853   2.253   5.396 -0.0537  0.2739 -0.1403
23105W        W39366   5.121  17.634   0.429 -0.1507  0.0063 -0.1009
23106W        W39367   2.596  19.012  12.913 -0.1995 -0.3362  0.0606
23107W        W39368   2.399   1.962  13.193 -0.2469 -0.0118  0.3430
23108W        W39369  17.569   0.873   4.824 -0.0199  0.0056 -0.4381
23109W        W39370  13.141  12.520   4.108  0.1692  0.2050 -0.1230
23110W        W39371  17.518  16.830  11.020 -0.0117  0.0254 -0.2679
23111W        W39372   3.962   8.345  13.443 -0.0415  0.1113 -0.1796
23112W        W39373   9.962  11.779  11.010 -0.0731 -0.1668 -0.3729
23113W        W39374   1.177  15.404   4.823  0.2959 -0.0579  0.2526
23114W        W39375  10.598   3.644  13.555 -0.1672 -0.1178 -0.0395
23115W        W39376  12.835   7.020  13.786  0.0191 -0.1216  0.2640
23116W        W39377   6.148  19.202   5.488  0.1062  0.0819  0.0746
23117W        W39378   4.507  18.245   2.499  0.3531  0.3447  0.1372
23118W        W39379  18.408   6.860   1.273 -0.1578  0.0045 -0.1120
23119W        W39380   4.988  10.509  13.861 -0.2738  0.0214  0.1532
23120W        W39381  18.678   4.235   2.497 -0.1344 -0.0226  0.0027
23121W        W39382   7.275  12.479   1.609  0.0989  0.2622 -0.5740
23122W        W39383  15.467   7.931   2.261  0.0884 -0.1150  0.1328
23123W        W39384  14.754   9.613   2.337  0.2311 -0.0534 -0.2077
23124W        W39385   4.281  10.017  12.901  0.0451 -0.1932 -0.1175
23125W        W39386   3.831  19.136  12.970 -0.0026  0.2641  0.0021
23126W        W39387   7.214   3.849   1.037  0.0219  0.0179  0.1372
23127W        W39388   3.528  11.977   2.437 -0.1351 -0.0761  0.2845
23128W        W39389  10.576   5.508  12.088 -0.1746  0.1423 -0.1970
23129W        W39390  13.583   0.208  11.488  0.2215 -0.0055  0.1468
23130W        W39391   5.850   5.417  10.404  0.0284 -0.0603  0.0038
23131W        W39392   0.302  12.224   3.344 -0.4308 -0.0716 -0.0632
23132W        W39393  15.469  13.675   0.032 -0.2015 -0.2286 -0.4324
23133W        W39394  18.995  14.311  12.349 -0.2173  0.0390  0.1344
23134W        W39395  17.534  10.427   2.419 -0.1890  0.0349 -0.1174
23135W        W39396   8.016  14.254  11.217 -0.2142  0.3367 -0.1431
23136W        W39397   8.173   9.202   0.598 -0.0751  0.2379  0.2144
23137W        W39398   9.845   9.518   2.544 -0.2806  0.2520  0.1116
23138W        W39399   1.821  15.185   3.678  0.0637  0.2179 -0.2418
23139W        W39400  10.221  10.261   1.895 -0.2134  0.2033 -0.0843
23140W        W39401  15.415  11.227   1.574  0.1221 -0.1510  0.0280
23141W        W39402   9.536   2.513  11.979  0.0127  0.1911 -0.1626
23142W        W39403  10.252   5.575  12.514  0.0968  0.0060  0.3046
23143W        W39404  14.505   6.651   4.017 -0.3485  0.2095 -0.1868
23144W        W39405   4.816  16.783   0.384  0.1137  0.2228 -0.1220
23145W        W39406   9.258  16.341   2.987 -0.0948 -0.0646  0.0796
23146W        W39407   5.403   0.533  13.565 -0.2650  0.1193 -0.0499
23147W        W39408  18.744   3.576   0.397  0.3449  0.2349 -0.1015
23148W        W39409   9.556  15.060  11.608  0.0204  0.1366  0.1581
23149W        W39410  14.824   9.515   4.846  0.1071  0.1344 -0.0639
23150W        W39411   7.423   9.795   2.324 -0.0897 -0.5153 -0.4065
23151W        W39412  18.875   3.145  12.387 -0.1936 -0.2638 -0.2782
23152W        W39413   6.299   7.233   3.343  0.0913 -0.1181 -0.1480
23153W        W39414   3.056  12.809   4.997  0.3012 -0.1282  0.2767
23154W        W39415   3.105  15.473  12.923 -0.0415 -0.0676  0.1830
23155W        W39416   7.669  10.443  13.667 -0.2537 -0.0803 -0.1781
23156W        W39417   4.629   2.571   3.549  0.0097  0.1060 -0.0009
23157W        W39418   3.220   3.988   4.251  0.2339 -0.0246 -0.1160
23158W        W39419   4.004  11.420   1.290 -0.3046 -0.4626 -0.0455
23159W        W39420   8.704   4.851  10.318 -0.1466 -0.2495  0.0793
23160W        W39421  18.067  14.301   2.943 -0.2011  0.0832  0.0917
23161W        W39422  12.712   6.610  12.697  0.2874  0.0343  0.3367
23162W        W39423   6.694  15.998   5.193  0.0620 -0.0931  0.1227
23163W        W39424   3.493  10.135  10.634  0.0128 -0.0795 -0.1059
23164W        W39425   9.037   5.700  13.014 -0.1777 -0.1564 -0.1114
23165W        W39426  12.535   4.788   5.181  0.1036 -0.0860  0.0233
23166W        W39427  16.260  12.257   4.148 -0.2645  0.0454  0.1113
23167W        W39428  12.951   5.619   3.506  0.1356  0.3242  0.1920
23168W        W39429  12.948   5.762  13.983  0.0377  0.0765  0.0703
23169W        W39430   4.102  11.824   2.315 -0.0757  0.1543 -0.3070
23170W        W39431  13.772   5.063  13.567  0.1768  0.1241  0.2675
23171W        W39432   8.165   2.136  11.888  0.4614 -0.0511 -0.1927
23172W        W39433  15.822  18.728   1.033  0.2467  0.1249  0.0603
23173W        W39434   6.217  18.201  14.855 -0.1105 -0.3367  0.1999
23174W        W39435   7.663   3.596   4.644 -0.0351 -0.0379 -0.0341
23175W        W39436  14.944   2.371   2.934 -0.2346 -0.0567 -0.1792
23176W        W39437   8.401   4.216   1.434  0.1258  0.0860  0.2183
23177W        W39438   2.819   9.110  11.890 -0.0991 -0.5894  0.1465
23178W        W39439  11.292  10.722  11.929 -0.1168  0.1611  0.0446
23179W        W39440  17.059  13.369  14.034  0.3243 -0.0243  0.1882
23180W        W39441  10.527  12.129   2.217 -0.3918  0.1028 -0.1822
23181W        W39442  10.690   3.422   3.122 -0.1908 -0.1209 -0.2640
23182W        W39443  17.249  16.610  14.421 -0.0285  0.1714  0.0511
23183W        W39444  12.582   6.676  14.557  0.1868 -0.0279 -0.0917
23184W        W39445  17.491   3.931   2.246  0.1443  0.0606  0.1897
23185W        W39446   5.412  18.771   2.742 -0.1429  0.0353  0.0266
23186W        W39447  16.849   0.760   0.653  0.1773  0.1183 -0.3691
23187W        W39448   5.084   0.716   2.346 -0.0125 -0.1767 -0.2173
23188W        W39449  16.758  18.877  10.504  0.1996  0.0310  0.1728
23189W        W39450  12.132  16.129  11.175  0.1680 -0.1211  0.0499
23190W        W39451   4.743  14.163   4.862  0.0938 -0.1847 -0.0289
23191W        W39452   8.468  15.051  10.401  0.2438  0.3254  0.0012
23192W        W39453   2.376   5.587   4.310 -0.3451 -0.0745  0.0898
23193W        W39454   9.085   4.457  13.117  0.0685 -0.0410  0.1367
23194W        W39455   2.968  12.160  13.359 -0.1759 -0.2325 -0.2065
23195W        W39456  18.810  17.211   0.884 -0.0067 -0.0606  0.1411
23196W        W39457  13.230   3.520   0.387  0.0413 -0.0030 -0.0611
23197W        W39458  12.012   1.788   4.751  0.0623  0.0532 -0.5886
23198W        W39459  12.272   1.283   3.560 -0.2473  0.1747 -0.0159
23199W        W39460   4.441  10.991   0.063 -0.3486 -0.2048  0.4256
23200W        W39461   5.240   3.283   1.474 -0.0230 -0.0216 -0.0334
23201W        W39462  14.651  17.383  11.405  0.0458 -0.1325  0.2486
23202W        W39463  11.821  15.734   3.421  0.3288 -0.1335 -0.1107
23203W        W39464  10.538   8.880   2.760 -0.1016  0.0657  0.0174
23204W        W39465   4.232   7.170   5.871 -0.2661 -0.0225 -0.1110
23205W        W39466   7.252   4.783  10.388  0.2758  0.0963  0.2754
23206W        W39467   6.011  15.694  10.917 -0.2194 -0.4437 -0.2277
23207W        W39468  17.899  12.688  14.159  0.1040 -0.0669 -0.3879
23208W        W39469   3.201   6.392   1.748 -0.1906  0.4017  0.1384
23209W        W39470  16.861  15.256  10.876  0.2682  0.0760 -0.1616
23210W        W39471  13.474   9.431  10.427 -0.1356  0.5047  0.3305
23211W        W39472  13.077   0.516  11.012  0.0173 -0.4344  0.1284
23212W        W39473  16.738   5.575   1.303 -0.1849 -0.0603  0.0359
23213W        W39474   5.771   9.007  13.090  0.0054  0.1791 -0.2590
23214W        W39475  15.463   8.337  10.297 -0.0263  0.0663  0.2185
23215W        W39476   3.155   9.511   4.768  0.3939  0.1538  0.1560
23216W        W39477   1.746  16.728  10.149 -0.4992 -0.3920 -0.2480
23217W        W39478   4.667   3.840  11.090 -0.1419 -0.2427 -0.1534
23218W        W39479  16.217   8.644  10.414  0.1992  0.0963 -0.0938
23219W        W39480  12.400   6.161   1.957 -0.0001  0.0696  0.0534
23220W        W39481   3.534   6.239   0.457  0.1317 -0.0835 -0.0080
23221W        W39482   5.967  10.322   0.974  0.1217  0.2459 -0.2785
23222W        W39483   4.528   2.236  10.723  0.1115  0.1511 -0.0123
23223W        W39484   4.701   6.526  14.703 -0.2550 -0.0396 -0.1624
23224W        W39485  16.374  15.743  13.514  0.0305 -0.1099  0.4362
23225W        W39486   2.980   2.842  12.173  0.3066 -0.2549 -0.2061
23226W        W39487   3.757  12.310  10.935 -0.0036  0.1343  0.1317
23227W        W39488  12.783  17.205   1.204 -0.2397 -0.0024  0.0411
23228W        W39489  13.401   7.779  10.450  0.0149 -0.1684  0.1112
23229W        W39490   1.281  19.277  12.525 -0.2059  0.0272  0.3314
23230W        W39491   4.905  14.590  13.265 -0.0155  0.0739  0.0172
23231W        W39492   1.858   1.537  14.455 -0.1697 -0.0225  0.0308
23232W        W39493  18.021  14.871   9.158 -0.0729  0.1727 -0.1811
23233W        W39494  17.866  18.953   2.216 -0.1245 -0.1041  0.1085
23234W        W39495   7.134   8.987  12.351 -0.3546 -0.2237  0.0981
23235W        W39496   9.513   6.290   2.586 -0.0204  0.1671 -0.0701
23236W        W39497   8.933  18.375   1.176 -0.0786  0.1138 -0.0315
23237W        W39498   0.433   1.877   6.158 -0.1133 -0.0037  0.0789
23238W        W39499   4.017   7.640   0.541 -0.0270 -0.1452 -0.0570
23239W        W39500  16.195  12.716  13.707 -0.4873  0.2086 -0.1281
23240W        W39501  13.343   6.259  11.082 -0.0672  0.0508 -0.2923
23241W        W39502   8.128  19.098   3.496  0.4288 -0.3729  0.2703
23242W        W39503  18.477   4.718   1.206  0.0277 -0.0251 -0.0356
23243W        W39504  11.612  15.184   0.421  0.0132 -0.0974 -0.1528
23244W        W39505  17.341   1.593  13.763 -0.0766 -0.2605 -0.0524
23245W        W39506  12.499  17.645   0.831  0.1253 -0.1614  0.3478
23246W        W39507   5.011  10.065   3.172 -0.2642 -0.2423  0.0121
23247W        W39508  10.630   7.472  12.256 -0.1231  0.0004 -0.0893
23248W        W39509  19.090   8.001   4.425  0.0309 -0.0982  0.3286
23249W        W39510   0.933  12.137  12.895 -0.1551 -0.2767 -0.0122
23250W        W39511   8.413   7.725   5.012  0.1185 -0.3045 -0.0372
23251W        W39512   4.881  11.945  11.146 -0.2479  0.0197  0.0215
23252W        W39513  17.173  12.343  13.444 -0.5908  0.3817 -0.1042
23253W        W39514   7.196  11.019  12.209  0.1490  0.0711  0.1173
23254W        W39515   3.517   9.285   4.188 -0.3096  0.0545 -0.0609
23255W        W39516  11.447   6.996   1.739  0.0077 -0.2062 -0.0121
23256W        W39517   9.705   3.918  10.937 -0.0460  0.2712 -0.0506
23257W        W39518  17.026   0.364   3.418 -0.1184 -0.3781 -0.0694
23258W        W39519  11.045   9.707  10.775 -0.3965  0.4248  0.2305
23259W        W39520  12.894  13.547  10.674 -0.0032  0.2543 -0.0036
23260W        W39521  16.885   5.600  13.927  0.3437 -0.3198 -0.3235
23261W        W39522  12.167  13.474  11.558 -0.4030  0.1345 -0.1211
23262W        W39523   0.298  11.354  14.720 -0.4729  0.2876  0.0587
23263W        W39524   9.722  14.719  13.694 -0.3450 -0.2349  0.1453
23264W        W39525   4.548  15.795  12.846  0.0716 -0.2437  0.3560
23265W        W39526  17.358   9.383   2.267  0.0514 -0.2728 -0.0562
23266W        W39527  19.385   7.305  11.482  0.0192 -0.1112 -0.0014
23267W        W39528  11.497  14.942   4.327 -0.1532 -0.2556  0.3908
23268W        W39529  11.292   5.942   3.362 -0.1474  0.0838 -0.0839
23269W        W39530  14.798  10.986  12.865 -0.1787 -0.0428  0.2057
23270W        W39531  11.150   4.093  12.560 -0.1215  0.2836 -0.2978
23271W        W39532  12.336   3.711  14.408  0.1295  0.0976  0.0648
23272W        W39533  13.924   4.393   1.685  0.0598 -0.1652 -0.0274
23273W        W39534   5.084  15.579  11.420  0.1222 -0.2375 -0.2300
23274W        W39535   0.895   3.390   5.212  0.1128  0.1364 -0.1364
23275W        W39536   4.911  17.166   0.683 -0.1209 -0.0552  0.1501
23276W        W39537  19.132   4.264   1.168  0.0120  0.3522 -0.2148
23277W        W39538   6.605  11.227   9.219  0.0284 -0.2429  0.1477
23278W        W39539   2.806   8.909  12.648 -0.1698 -0.0352 -0.0301
23279W        W39540   1.245  14.311  11.935  0.2779 -0.2051 -0.1510
23280W        W39541   0.619   5.458  13.249 -0.4236  0.0326  0.1057
23281W        W39542  19.351  11.407   0.646  0.0869  0.1531 -0.1601
23282W        W39543   3.775  16.616  10.531 -0.2663 -0.4385  0.0184
23283W        W39544   7.187   2.213  12.412 -0.2716  0.2634  0.1497
23284W        W39545  16.670  12.767  12.511 -0.1791  0.0632 -0.2889
23285W        W39546   2.185  10.634   1.302  0.1430  0.1511  0.1108
23286W        W39547  15.124  17.593   0.636  0.0747 -0.1277  0.0710
23287W        W39548  11.899  14.140   2.476 -0.4373 -0.1363  0.0351
23288W        W39549  12.860   4.707  12.095  0.2192  0.2060 -0.1309
23289W        W39550   8.007   0.033  10.739 -0.1029  0.2849  0.0804
23290W        W39551   3.611   7.966  13.447  0.0349  0.0618  0.0636
23291W        W39552   9.694   4.966   1.257  0.1901  0.0378 -0.0355
23292W        W39553   3.582  17.077  13.770  0.0266 -0.0578  0.1592
23293W        W39554   8.536  14.201  12.987  0.2469  0.1864 -0.1030
23294W        W39555  17.958  10.903  10.045  0.1800 -0.1343  0.0536
23295W        W39556   0.963   7.520  14.241 -0.1764 -0.1908  0.1699
23296W        W39557  17.282   6.196   0.388  0.0019 -0.0277  0.2110
23297W        W39558  15.800   7.844   4.311 -0.2618 -0.2474 -0.2632
23298W        W39559  13.373   3.400   9.662  0.2763  0.0733  0.0789
23299W        W39560   2.767  18.443   2.513  0.2181  0.1408  0.2064
23300W        W39561   1.390   5.965   2.775 -0.1067 -0.1707  0.0557
23301W        W39562   2.504  10.623  13.562  0.0096 -0.1549 -0.1662
23302W        W39563  16.848   4.358   4.514  0.2571 -0.2912  0.2331
23303W        W39564  15.306  16.471  12.801 -0.0125  0.0190  0.1823
23304W        W39565   8.951  17.343  13.906 -0.1970 -0.0898  0.1893
23305W        W39566  11.271  18.765  11.639  0.2471  0.0128 -0.3479
23306W        W39567   3.700  13.573   0.795 -0.2360  0.0539  0.0264
23307W        W39568  17.979   4.682  11.891 -0.0537  0.3144  0.2550
23308W        W39569   6.010  14.646   4.419  0.4551 -0.0289  0.1690
23309W        W39570  16.239   2.715  12.286 -0.0820  0.3443  0.3474
23310W        W39571   1.368  11.998   5.102  0.2854 -0.0390 -0.2027
23311W        W39572  15.488   6.080   2.014  0.2441 -0.0202  0.3091
23312W        W39573   6.740  12.430  12.848 -0.1424  0.1210 -0.1281
23313W        W39574   8.229  11.081   1.181 -0.1911  0.0063  0.3139
23314W        W39575  10.146  10.487   1.002 -0.0491  0.2141 -0.3406
23315W        W39576   9.831   0.362   4.642 -0.2235  0.1483  0.1125
23316W        W39577   0.863  12.393  10.546  0.1037  0.1944 -0.0863
23317W        W39578   4.865  14.719   2.573 -0.2673  0.2059  0.1090
23318W        W39579  15.609   7.299  12.422 -0.1122 -0.1723  0.4948
23319W        W39580   8.861  17.255   0.310 -0.1875 -0.1257 -0.1563
23320W        W39581   3.834   2.057  13.764  0.0510  0.1573 -0.1891
23321W        W39582   9.798   7.101  11.962  0.0110 -0.4638 -0.0179
23322W        W39583   3.658   9.282   2.342 -0.1327  0.0092 -0.2903
23323W        W39584  14.961   2.084   3.377 -0.0029 -0.2068  0.0057
23324W        W39585   8.829   0.004  11.926 -0.0493 -0.1767  0.0529
23325W        W39586  19.277  13.946   3.631 -0.0445  0.2218 -0.1613
23326W        W39587   4.909  11.736   3.490 -0.0262 -0.2912 -0.0397
23327W        W39588   1.186  11.681  12.742  0.2011  0.0463  0.1046
23328W        W39589  14.210  13.599   0.739  0.2757 -0.0365 -0.0070
23329W        W39590   5.741  19.355  11.014 -0.0247  0.2595  0.0941
23330W        W39591   5.075  12.184   3.677 -0.0733 -0.1021 -0.2202
23331W        W39592  16.448   8.472   3.652  0.1904  0.0291 -0.0708
23332W        W39593   7.781  14.153   2.250  0.0936  0.2240  0.0265
23333W        W39594   5.773   1.773  12.956 -0.0543  0.1218 -0.4163
23334W        W39595   1.108  15.949   1.605 -0.1533  0.1323  0.1114
23335W        W39596  12.390   7.215  11.089  0.2429 -0.0860 -0.0601
23336W        W39597  15.676  17.571   9.231 -0.0726 -0.1027 -0.1623
23337W        W39598   3.613  18.696  12.305  0.0993 -0.1708  0.1062
23338W        W39599  11.773   4.077   2.704 -0.0026  0.0403  0.1148
23339W        W39600  15.421  10.244   4.040 -0.0627  0.0854 -0.0148
23340W        W39601   9.772   2.659  10.232 -0.0836 -0.0400  0.2527
23341W        W39602   2.891  13.283   4.311  0.2854  0.0009 -0.1176
23342W        W39603   6.075   5.840   5.982  0.2935 -0.0536 -0.0153
23343W        W39604  12.912  15.557   2.154  0.2500  0.0256  0.0092
23344W        W39605  10.244   5.592  10.739 -0.0375  0.0185 -0.4021
23345W        W39606  15.083   2.114   0.933  0.0042 -0.3888 -0.2269
23346W        W39607   8.678   5.302  10.564 -0.0199  0.1952  0.0537
23347W        W39608   5.883  17.921  12.373 -0.0617 -0.3860  0.1859
23348W        W39609  19.095   9.271   2.844  0.1139  0.2028  0.1765
23349W        W39610   4.058   9.638  11.044  0.2054 -0.2001  0.0482
23350W        W39611   4.076  11.534  14.082  0.2114  0.0673 -0.1452
23351W        W39612  11.777  10.492  12.002 -0.4293  0.1302 -0.0430
23352W        W39613  12.091  14.973  11.947  0.0344 -0.0887  0.3142
23353W        W39614  17.748   0.129   0.725 -0.0992  0.0636  0.0666
23354W        W39615   5.762  14.588  13.887  0.0399  0.0067  0.1507
23355W        W39616   8.830   5.787   3.206 -0.1587 -0.0835 -0.2045
23356W        W39617   3.023  10.951   2.869  0.2093 -0.1872  0.1038
23357W        W39618  16.795   1.260   0.686 -0.0651  0.0732  0.0777
23358W        W39619  17.884   0.311  11.930 -0.2264 -0.0359 -0.1772
23359W        W39620  16.735   1.949   5.890  0.2200 -0.1529 -0.2329
23360W        W39621   0.955   8.425   1.301 -0.0665 -0.2146  0.0086
23361W        W39622   3.280   3.138   0.770  0.1041 -0.3368  0.2852
23362W        W39623  10.245  12.443   2.009  0.1754 -0.2975 -0.0983
23363W        W39624  15.635   9.330   1.907  0.2512 -0.2476  0.1386
23364W        W39625  18.525  17.966   5.382  0.0168  0.2330  0.1079
23365W        W39626  15.490  17.798   2.758 -0.1527  0.0198  0.0551
23366W        W39627   0.746   9.801   0.064 -0.0531 -0.1220  0.1478
23367W        W39628  15.277  17.477  12.450  0.3810 -0.1321 -0.3213
23368W        W39629  12.810   1.688  11.902 -0.2550  0.3308  0.4533
23369W        W39630  18.099   1.240  11.637  0.0559  0.3332 -0.2595
23370W        W39631  12.602   7.684  12.368 -0.0027 -0.0787  0.0264
23371W        W39632   5.373   1.319   0.606 -0.2759  0.1986  0.3219
23372W        W39633  16.194   7.860  13.983 -0.3953 -0.1649  0.0501
23373W        W39634   7.163  10.044   3.777  0.0886  0.0994 -0.3154
23374W        W39635   4.414   1.753   4.071 -0.0315  0.0167 -0.2168
23375W        W39636  19.021  15.246   1.408 -0.0655 -0.2736 -0.0808
23376W        W39637   6.056  13.917  11.793 -0.0534  0.0235  0.1665
23377W        W39638  11.687  19.114   2.212  0.0725 -0.1299 -0.4418
23378W        W39639  18.654   8.102   4.683  0.1158  0.1729 -0.2079
23379W        W39640   2.069  15.156  10.797 -0.2010 -0.0031 -0.0239
23380W        W39641   8.654   8.546  12.734 -0.2938 -0.4902  0.0799
23381W        W39642   6.448   2.794  13.281  0.3087 -0.2985 -0.0896
23382W        W39643  18.256   8.655   3.159 -0.5987  0.0291 -0.1700
23383W        W39644  16.008  15.624  10.289 -0.1731 -0.0881 -0.0122
23384W        W39645   1.396  18.003   4.908  0.1993  0.1969  0.1962
23385W        W39646   9.893  12.829  11.477  0.0266  0.0160  0.3858
23386W        W39647   1.350   9.302  14.149 -0.1593 -0.0826  0.0028
23387W        W39648  12.728   5.092   3.534  0.4518  0.1968  0.1924
23388W        W39649  15.804  11.959  14.749 -0.0464  0.0156  0.0724
23389W        W39650  15.655  14.717   4.335  0.0117 -0.1152 -0.2813
23390W        W39651  10.707  18.055   0.628  0.0514 -0.2482 -0.2426
23391W        W39652  15.381   2.645   3.652 -0.0629 -0.0003  0.1101
23392W        W39653   6.336   1.780   1.608  0.2318  0.1312 -0.3272
23393W        W39654   2.060   1.207  14.062  0.1051 -0.3272 -0.2950
23394W        W39655   4.868   3.392   4.368  0.1139  0.1755  0.1335
23395W        W39656   0.381  13.734   0.744 -0.0383  0.0675 -0.0300
23396W        W39657   4.035   1.621   0.337 -0.1277  0.1926  0.1350
23397W        W39658   5.809  14.585   0.552  0.4745  0.0640 -0.1797
23398W        W39659   0.736   2.099   0.767 -0.3270  0.2708  0.0073
23399W        W39660  11.941  11.763   1.440  0.0815 -0.0406 -0.0402
23400W        W39661  13.841  16.135  11.395 -0.0643 -0.2207 -0.0250
23401W        W39662  11.297  16.516  10.234  0.0751  0.2209  0.0087
23402W        W39663  16.016  16.304   9.214  0.3600  0.4786 -0.2235
23403W        W39664  15.436  16.376   2.073  0.0095  0.5227 -0.0604
23404W        W39665  10.548   6.132  14.065  0.2294 -0.1311 -0.1270
23405W        W39666   2.266  15.032   1.651  0.0856 -0.3642  0.1340
23406W        W39667   9.326  12.088  12.789 -0.2628  0.2010 -0.1428
23407W        W39668  10.254  10.138   0.235  0.3251 -0.1603  0.0625
23408W        W39669   9.885   1.460  12.876  0.3316  0.0637  0.0768
23409W        W39670   4.931   8.097   2.539 -0.1320 -0.0122  0.1283
23410W        W39671   2.452   7.020   5.415  0.2564  0.0473 -0.1132
23411W        W39672   9.783  14.609   3.723 -0.3039 -0.2508  0.0873
23412W        W39673  11.360   7.989   1.415 -0.4793  0.1766 -0.4901
23413W        W39674   9.787   5.608  13.566  0.2057 -0.0394 -0.1422
23414W        W39675  14.948  15.080   2.870  0.3262  0.0350 -0.2553
23415W        W39676   5.192  10.105   1.823 -0.0250  0.0073  0.0430
23416W        W39677   1.689   9.646  12.821  0.1769 -0.0067 -0.2248
23417W        W39678  15.172   8.206   3.251 -0.2872 -0.3800 -0.2410
23418W        W39679   7.445   3.541  14.177  0.1589  0.1139  0.0480
23419W        W39680  18.354   3.788  11.844  0.0842 -0.1286  0.3128
23420W        W39681   8.096   8.880  11.622 -0.4176 -0.1956 -0.2006
23421W        W39682  19.167  18.571  12.873 -0.1448  0.0519 -0.1729
23422W        W39683  17.188  16.447  10.944 -0.0034  0.1128  0.1198
23423W        W39684  17.662  16.740   0.125  0.2423  0.0759 -0.1688
23424W        W39685  14.431  15.533   3.117 -0.0917  0.0830  0.2095
23425W        W39686   0.132   1.653   5.785 -0.1811  0.0663 -0.0178
23426W        W39687   4.472  15.240  10.267 -0.0386  0.2404 -0.1927
23427W        W39688   4.798  10.000   2.701 -0.2543 -0.1197 -0.2742
23428W        W39689  14.025   1.171  13.395 -0.0836 -0.0966  0.1453
23429W        W39690   8.118   8.353  12.642  0.1623 -0.2548 -0.0482
23430W        W39691   6.640   4.684  14.204 -0.1390  0.0068 -0.0119
23431W        W39692   1.890   0.163  14.696  0.0521  0.2767 -0.2531
23432W        W39693  18.668  12.781   0.597 -0.0384 -0.0881 -0.1743
23433W        W39694  17.037   1.131  10.267  0.1622 -0.2339 -0.1550
23434W        W39695   7.508   3.488   2.015  0.2324  0.1103 -0.1083
23435W        W39696   0.091  15.554   3.643 -0.0421 -0.1872  0.7617
23436W        W39697  10.291   3.614  14.730 -0.0674 -0.5056  0.2776
23437W        W39698   9.209   9.188  10.977 -0.1300 -0.2337 -0.0322
23438W        W39699   8.098  12.890   4.719  0.4621 -0.3566  0.1276
23439W        W39700   5.925  17.339   0.625  0.2653 -0.0092 -0.1195
23440W        W39701   0.028  15.789  14.847  0.4510  0.1015  0.2805
23441W        W39702   9.206   8.972   2.638  0.1486 -0.1664 -0.0496
23442W        W39703  11.298   8.005  12.039  0.0268  0.3939  0.1324
23443W        W39704   8.494  16.579  12.552 -0.0434 -0.0405 -0.1542
23444W        W39705   9.328  18.192   3.034  0.3218  0.1726 -0.0898
23445W        W39706   4.654   8.894  10.463  0.0561  0.0241 -0.2740
23446W        W39707  10.691  15.998  13.744 -0.0448 -0.0232 -0.3757
23447W        W39708  18.302  11.564   3.745 -0.2626  0.0853  0.0449
23448W        W39709   9.410  13.701   0.626  0.0658  0.0477 -0.0189
23449W        W39710   0.655   1.503   2.645 -0.0247  0.2359 -0.0519
23450W        W39711   4.740   3.562   2.118 -0.0769  0.0172 -0.0208
23451W        W39712  11.383  18.041   0.420 -0.1670 -0.0388  0.1576
23452W        W39713   1.795  18.783   1.618  0.0371  0.1801 -0.0391
23453W        W39714  14.978   8.695   3.115  0.0285  0.1806 -0.0141
23454W        W39715  18.274   4.764   1.683  0.2293  0.0260 -0.3653
23455W        W39716  11.057   3.052  12.450  0.1770  0.2927 -0.1763
23456W        W39717   8.193   6.111  13.407 -0.0983  0.5023  0.0284
23457W        W39718   6.143   6.372  11.980 -0.1154 -0.1126  0.1307
23458W        W39719  10.556   7.066   3.675  0.2476 -0.0148  0.1185
23459W        W39720   8.734   1.216  11.288  0.0847 -0.1228 -0.1407
23460W        W39721   4.627   6.573   5.402 -0.1995 -0.1416  0.0175
23461W        W39722  15.941  13.116  13.022 -0.0197  0.1847 -0.3149
23462W        W39723  11.270  12.693   2.572 -0.5397  0.1800 -0.1570
23463W        W39724   6.520   3.741  12.800 -0.4236 -0.1778  0.1719
23464W        W39725   3.805  18.360  12.733  0.0555 -0.2104  0.2989
23465W        W39726   5.800   2.103  10.584 -0.2577  0.0486 -0.3392
23466W        W39727  19.188   0.013   3.206  0.2301  0.1211 -0.2948
23467W        W39728   5.031   3.602  10.198 -0.3773  0.2416  0.0713
23468W        W39729   6.483   1.861  11.415  0.0624 -0.0098  0.1790
23469W        W39730   4.922   8.487   2.145 -0.0063 -0.0029 -0.1521
23470W        W39731   0.283  14.856   4.403  0.3627  0.0850  0.0303
23471W        W39732   4.734  13.715   1.795 -0.3389  0.0737 -0.1896
23472W        W39733  16.272   7.594   1.865 -0.0860 -0.0979  0.0487
23473W        W39734  17.455  12.276   1.777 -0.0023  0.4610 -0.0786
23474W        W39735  17.602   7.798   3.737  0.0088  0.0685  0.3564
23475W        W39736  17.230  11.833   0.500  0.0442 -0.5030 -0.0176
23476W        W39737  14.334  17.210  14.560 -0.0634 -0.3223  0.3880
23477W        W39738  19.031  17.438   5.194  0.1538  0.0445 -0.1417
23478W        W39739   0.460   6.607  12.984  0.2067 -0.0163  0.3789
23479W        W39740   1.352   3.250  12.764  0.1494 -0.0416 -0.0514
23480W        W39741  16.663  15.966   2.136  0.1512  0.0057 -0.3031
23481W        W39742   9.102  12.902   1.848  0.0100  0.2742 -0.1560
23482W        W39743  19.358  16.084  11.501 -0.2599 -0.3057 -0.0871
23483W        W39744   8.332   8.686  14.653  0.0380 -0.1202 -0.0336
23484W        W39745   8.722  11.931   2.833  0.0454 -0.0268 -0.1440
23485W        W39746  12.332   3.821  11.006  0.1442  0.2307  0.1141
23486W        W39747  16.487   1.536  11.831 -0.2897 -0.8458 -0.1932
23487W        W39748   2.652  18.241   3.080  0.1135 -0.1006 -0.1282
23488W        W39749   5.841  13.906  10.361 -0.0083  0.0239 -0.2740
23489W        W39750   4.924   1.377   0.280  0.0517  0.1254 -0.4377
23490W        W39751   5.449  10.608   4.666 -0.1736  0.0921 -0.1652
23491W        W39752   5.126  18.353   3.397  0.0472  0.2180 -0.0309
23492W        W39753  17.477  18.554   5.273  0.2343  0.0788 -0.0180
23493W        W39754   1.244  14.859  13.016  0.0569  0.0409 -0.0701
23494W        W39755  12.629   2.657   5.035 -0.0496 -0.1275  0.0333
23495W        W39756  15.344   1.966  14.310  0.1876 -0.4241  0.0218
23496W        W39757   8.312  16.369   4.164  0.0039  0.0246 -0.0213
23497W        W39758  16.177  15.224  14.124 -0.0398 -0.1040 -0.0685
23498W        W39759   7.889  17.692   4.769  0.0678 -0.0908 -0.0906
23499W        W39760  13.005  10.138   0.396 -0.0116 -0.3460 -0.0491
23500W        W39761  10.625   4.508   2.245  0.2647  0.0006 -0.0506
23501W        W39762  11.428   3.486  13.808  0.0876 -0.3506 -0.1224
23502W        W39763   6.375   3.112  11.105  0.1876 -0.0155 -0.1162
23503W        W39764  18.226  13.713  11.869  0.1233  0.2582  0.4874
23504W        W39765   9.009  16.887  12.076 -0.3346  0.3385  0.2459
23505W        W39766  16.350  17.217   0.895  0.2033 -0.0669  0.0243
23506W        W39767   1.558   9.627  13.829  0.1008  0.2392 -0.0095
23507W        W39768  16.004  12.422   9.420 -0.0483  0.0211 -0.0692
23508W        W39769  14.017   7.945  12.134  0.0573  0.2170  0.2597
23509W        W39770  11.884   3.849  13.166 -0.0445 -0.2800  0.3979
23510W        W39771   4.413  14.255   9.196 -0.0331  0.0120  0.1243
23511W        W39772  17.504   6.707   3.295  0.2795  0.1629 -0.0660
23512W        W39773  15.618   2.625   2.044 -0.0520 -0.2975 -0.2278
23513W        W39774   1.544  10.432   0.517  0.0648 -0.2729  0.1974
23514W        W39775   5.162  15.054  11.324  0.1741 -0.1223  0.2048
23515W        W39776   7.469   9.289  14.647 -0.0462  0.0392  0.0528
23516W        W39777  13.727  11.046  11.720  0.3243  0.2018 -0.0263
23517W        W39778  17.157  18.839  11.224 -0.0003 -0.2192  0.1030
23518W        W39779  16.648  10.927   3.929 -0.2198 -0.3025  0.2846
23519W        W39780  16.756   5.557   5.286  0.2080  0.1644 -0.4759
23520W        W39781  10.214  19.227  12.374 -0.0430  0.0338  0.3026
23521W        W39782   9.401   7.643   3.613  0.2664 -0.0645  0.1866
23522W        W39783   5.428   6.396   4.468 -0.3462  0.2250  0.0607
23523W        W39784  19.356   0.982   4.625  0.3210 -0.3391  0.1531
23524W        W39785  12.756   2.182   4.468  0.1317  0.0018 -0.2116
23525W        W39786   0.057   1.019  13.492 -0.2196 -0.2780  0.1337
23526W        W39787  18.548   8.389  11.619 -0.2267 -0.1156  0.2715
23527W        W39788  18.527  16.439   2.997 -0.2890  0.3211  0.3152
23528W        W39789  10.303   7.976  14.055 -0.1184  0.3218 -0.3058
23529W        W39790   3.994  11.125   2.562  0.0872 -0.1677  0.0371
23530W        W39791   5.516  12.762  11.607 -0.0471 -0.1139  0.0343
23531W        W39792  12.159  18.368   2.025  0.0127 -0.4266  0.0135
23532W        W39793  10.404   1.348   1.331  0.1302 -0.3369 -0.0633
23533W        W39794   3.263  12.199   3.172  0.3074 -0.2158 -0.2380
23534W        W39795  13.568  13.076   0.491  0.0711  0.2237  0.1578
23535W        W39796  13.797  10.303   1.005  0.2754 -0.0494 -0.2904
23536W        W39797   8.956   7.983  14.155  0.0108  0.3095  0.0521
23537W        W39798  16.761  13.463  10.149  0.0257  0.0122  0.2187
23538W        W39799   9.478   7.178  10.540  0.1141 -0.1909 -0.3324
23539W        W39800  16.433   3.405  10.368  0.1567  0.1888  0.0861
23540W        W39801   8.142  17.207   4.862 -0.1888  0.1178  0.1680
23541W        W39802  12.951  11.817  10.866 -0.1762  0.0718  0.1059
23542W        W39803  17.392  10.917   2.600  0.2243 -0.0103  0.0883
23543W        W39804  10.999   9.774  14.374 -0.0119  0.0770 -0.1836
23544W        W39805  18.701   2.248   0.123 -0.0897  0.0409 -0.0573
23545W        W39806   4.124  14.551  12.531  0.2369 -0.4259  0.0459
23546W        W39807   3.838  11.306  11.795  0.2118  0.1825  0.0043
23547W        W39808  17.142   4.739   5.171 -0.0612 -0.4016 -0.2260
23548W        W39809   8.312  15.319   2.663  0.0441 -0.1429 -0.1025
23549W        W39810   0.439  18.561  14.397  0.2333 -0.1799  0.1206
23550W        W39811   9.607  14.178   4.459 -0.0166  0.1280 -0.1871
23551W        W39812  14.058  17.849   0.845  0.2990 -0.4128  0.4788
23552W        W39813   5.398   1.581  10.844 -0.6580  0.3279 -0.0789
23553W        W39814   6.258  19.127  12.313  0.1473 -0.1868 -0.2239
23554W        W39815  11.593  19.133   1.736 -0.2235  0.0106  0.0392
23555W        W39816  10.935  18.263   4.564  0.1211  0.0151  0.2846
23556W        W39817   8.732   7.685  11.885 -0.0057  0.1067 -0.1202
23557W        W39818  11.327   6.990  13.935  0.5129  0.0672  0.2977
23558W        W39819   4.568  17.268   1.708 -0.1339  0.0759  0.2692
23559W        W39820   5.032   2.785   1.440  0.0387  0.2179 -0.1468
23560W        W39821  10.170   9.294  12.653  0.3505 -0.0989 -0.0555
23561W        W39822   2.248   6.003  12.409 -0.0261  0.1700 -0.1308
23562W        W39823  17.163   0.181   4.306 -0.1314 -0.0028  0.1523
23563W        W39824  19.052  19.149   3.601 -0.2575  0.1270 -0.0904
23564W        W39825   4.062  18.708   4.111  0.0907 -0.2121  0.0904
23565W        W39826   6.512   5.158   1.606 -0.2256 -0.1227 -0.0752
23566W        W39827   5.440   2.128  14.869  0.0340  0.0098  0.0095
23567W        W39828  16.183   5.000   2.607 -0.1959 -0.1786 -0.2086
23568W        W39829   0.411   4.445  12.335 -0.2183  0.0181  0.3851
23569W        W39830   1.991   2.954   3.624 -0.1713  0.0109  0.2384
23570W        W39831   9.625   0.715   5.567  0.0227 -0.0912  0.1526
23571W        W39832   0.400   5.365   5.412  0.0133  0.0866  0.1318
23572W        W39833  13.444  11.853  10.997  0.0968 -0.2553 -0.0430
23573W        W39834  16.519   4.519   4.082 -0.2717  0.1646 -0.2279
23574W        W39835   2.852   1.384   4.718  0.0837 -0.2545 -0.0842
23575W        W39836   5.599  16.354   4.673  0.1656 -0.3651 -0.3637
23576W        W39837   3.871  18.219   4.032 -0.2394  0.3234 -0.1771
23577W        W39838  11.032   8.324  14.773  0.1273  0.2275 -0.0015
23578W        W39839  10.355  11.956  11.324  0.0500 -0.0104  0.0436
23579W        W39840   8.846  10.026   1.710 -0.0070 -0.2110  0.0758
23580W        W39841  13.238  13.769  11.693  0.3844  0.0273 -0.2897
23581W        W39842  10.704  11.508  14.128 -0.0363  0.0828  0.0175
23582W        W39843   4.305  12.307   2.361 -0.3853  0.0218 -0.1357
23583W        W39844   1.408   3.496  14.853 -0.0662  0.3047  0.0927
23584W        W39845  15.403  18.797   1.360 -0.1763 -0.0268 -0.2667
23585W        W39846  10.288  13.677   1.451  0.0660 -0.2262  0.1365
23586W        W39847   1.375  19.283   3.827  0.1825 -0.0058  0.0071
23587W        W39848  14.172  10.608   0.959 -0.1939 -0.2198 -0.4831
23588W        W39849  10.935   2.491   3.161 -0.0357  0.3364 -0.2038
23589W        W39850   2.251   1.680  14.174  0.2888  0.0164  0.2771
23590W        W39851  10.579  14.142   4.140 -0.0449 -0.3746  0.1959
23591W        W39852  11.014   3.647   2.205  0.0866 -0.0461 -0.2345
23592W        W39853   1.422   8.347  14.098 -0.1060 -0.0349  0.1643
23593W        W39854   3.197   9.495   2.392  0.0696  0.1481 -0.1133
23594W        W39855   5.391   4.100  14.101  0.0329  0.0148 -0.1915
23595W        W39856  16.958  12.709   0.904 -0.4804  0.3965  0.1908
23596W        W39857  11.261   4.516  10.758 -0.0473  0.2149  0.1006
23597W        W39858   3.817   0.360   0.845  0.0029 -0.0715 -0.1280
23598W        W39859  13.225   5.586  14.352 -0.1182  0.0354  0.3383
23599W        W39860  16.496  17.640  11.214  0.3617  0.2040  0.0560
23600W        W39861   8.781  17.420  14.722  0.2553  0.5616 -0.2195
23601W        W39862  11.989  17.350   2.416 -0.3461 -0.2295  0.1763
23602W        W39863   8.049   3.461   2.063  0.4324 -0.1422  0.1425
23603W        W39864   9.507  14.326   0.567  0.1437  0.0418  0.0321
23604W        W39865  14.220  16.774  11.043 -0.0604  0.0867  0.1980
23605W        W39866   7.184   1.396   4.356  0.0507 -0.1481  0.1336
23606W        W39867  16.587  16.513   3.423 -0.2716 -0.0100 -0.2281
23607W        W39868  16.686  16.029   3.685  0.1768 -0.0181  0.0080
23608W        W39869   0.575   7.974   2.205  0.1278 -0.1821 -0.1471
23609W        W39870   3.307  13.579   0.423 -0.3965  0.1371  0.0759
23610W        W39871  16.453  10.733  13.597 -0.0630  0.1935  0.0436
23611W        W39872   3.798  16.023   1.153  0.0047  0.0044 -0.1823
23612W        W39873   4.673  16.292  14.258 -0.2807  0.4025 -0.0031
23613W        W39874   4.639  12.156   1.481 -0.0574  0.2803 -0.1441
23614W        W39875  17.804   6.635   4.397  0.2454 -0.0386  0.0350
23615W        W39876   5.765  19.041   3.642 -0.0267  0.3286 -0.0679
23616W        W39877   6.764   2.574  11.963  0.0094  0.0738  0.1618
23617W        W39878  17.877   7.204   1.557 -0.2573  0.1750  0.2743
23618W        W39879   7.622   6.705  11.697 -0.1362 -0.0832  0.1882
23619W        W39880  14.539   1.457   0.144  0.2023 -0.0306 -0.1045
23620W        W39881   4.428  15.049   2.616 -0.1867  0.2361  0.2015
23621W        W39882   6.974   4.490  13.628  0.0016 -0.1661  0.1441
23622W        W39883   0.945   8.464  12.980  0.0603  0.3080  0.5805
23623W        W39884  11.350  13.916   4.272 -0.0666 -0.0501  0.0672
23624W        W39885   1.959   5.450   1.902 -0.1994 -0.0108  0.3678
23625W        W39886  12.771  17.010  12.918  0.2065  0.0195 -0.1572
23626W        W39887  12.027  13.872   1.036 -0.2719 -0.2897  0.3189
23627W        W39888  16.005   1.827  11.314  0.1777 -0.0826 -0.0926
23628W        W39889  11.062  18.841  12.168  0.0224  0.0559 -0.1121
23629W        W39890   7.583   1.846   0.732  0.0528 -0.0551  0.1409
23630W        W39891   8.251   0.110   2.443 -0.1248  0.0252  0.3652
23631W        W39892   6.529   5.259  13.363  0.5992 -0.1508  0.0602
23632W        W39893   5.628  10.520   0.672  0.0256  0.3078 -0.0412
23633W        W39894   3.673   7.955  11.148 -0.2204 -0.2599  0.0828
23634W        W39895   1.114   7.086  13.914 -0.0114  0.0619 -0.0652
23635W        W39896   9.065   5.499   3.614  0.2616 -0.0019  0.0196
23636W        W39897   1.080  11.700  13.236  0.0042  0.1144  0.0868
23637W        W39898   9.165  11.010   3.961 -0.0393 -0.2304 -0.0155
23638W        W39899  14.717  14.481   0.696  0.0840  0.0216  0.2168
23639W        W39900  13.024  16.944   3.484 -0.4072 -0.0908  0.1615
23640W        W39901   8.122   5.222   2.230 -0.1270  0.1494  0.0537
23641W        W39902   6.866  16.089  14.133 -0.0787  0.1808 -0.0355
23642W        W39903  18.751   9.765  12.695 -0.2947 -0.0525 -0.1786
23643W        W39904  14.864   3.642  13.419  0.1727 -0.1777  0.1599
23644W        W39905  11.094  19.012  13.125 -0.0231 -0.1128 -0.0936
23645W        W39906   3.653  14.850  11.699  0.2411  0.0177  0.0010
23646W        W39907   5.855  11.051  10.562 -0.1176 -0.2150 -0.3670
23647W        W39908  13.124  16.849  14.045 -0.0166 -0.0461 -0.2734
23648W        W39909   4.927   8.417  14.544 -0.2722 -0.0877  0.1924
23649W        W39910  12.679  12.073   0.548 -0.3336 -0.3790 -0.1313
23650W        W39911  10.396   2.584  10.987  0.1217  0.0512 -0.1030
23651W        W39912   2.647  15.723  10.298  0.3247 -0.1483  0.1832
23652W        W39913  15.747  12.043  14.077 -0.2062 -0.3387 -0.5312
23653W        W39914   0.200   8.730   3.742  0.1305 -0.1517 -0.1877
23654W        W39915  13.786  10.601  13.251 -0.0917  0.0824  0.0236
23655W        W39916   3.872   9.710   2.798  0.0374  0.1324 -0.1033
23656W        W39917   3.984   3.241   0.996  0.0818 -0.0549 -0.1876
23657W        W39918   3.641   8.935  14.484 -0.2122  0.3322 -0.0584
23658W        W39919   1.041   8.883  13.185 -0.1645 -0.1564 -0.3284
23659W        W39920  13.673  13.091   3.742  0.2640 -0.0052 -0.2050
23660W        W39921  13.323  13.557  13.601 -0.0315  0.1495  0.2171
23661W        W39922   3.726  18.660   1.461 -0.1933  0.1570  0.0224
23662W        W39923  11.516  15.895  14.616 -0.0687  0.3979 -0.0156
23663W        W39924   5.220   7.772  12.602  0.3353 -0.1130 -0.2597
23664W        W39925  16.869  12.222   1.652 -0.0527 -0.1565 -0.1115
23665W        W39926  18.314  15.796   3.967 -0.0473 -0.2330  0.2880
23666W        W39927   2.640   3.319  12.161 -0.2006  0.0091  0.2272
23667W        W39928  11.815   0.984  10.113  0.0234  0.0885 -0.0744
23668W        W39929   6.265  10.339  14.791  0.1765 -0.2544  0.1538
23669W        W39930  10.033   2.570   4.201  0.2940 -0.1949 -0.4485
23670W        W39931   3.309   4.482  11.603 -0.1139  0.0065 -0.2844
23671W        W39932   8.526  15.571  11.126  0.0181 -0.1764 -0.0533
23672W        W39933  12.928  13.767  12.222 -0.1345 -0.2140 -0.0956
23673W        W39934   0.748   2.356   1.947 -0.0255  0.0273 -0.1107
23674W        W39935  16.225  15.385  11.135  0.0571  0.0998  0.1238
23675W        W39936  13.444   5.727   4.037  0.2185  0.3973 -0.1168
23676W        W39937  15.780  13.548  14.573 -0.2979 -0.0475  0.2037
23677W        W39938  11.865   4.822   3.431 -0.1093  0.0668 -0.0174
23678W        W39939   1.724   6.247   2.567  0.4359 -0.1841  0.3407
23679W        W39940   5.102   6.564   4.081 -0.3774  0.2347  0.1345
23680W        W39941   4.591  18.846  12.009 -0.2016  0.3990 -0.0404
23681W        W39942   8.736   3.495  11.991  0.3874 -0.2014  0.2109
23682W        W39943  17.976   9.408  10.859 -0.0165  0.1371 -0.0261
23683W        W39944   5.561   4.973   6.073 -0.0140 -0.1539  0.1544
23684W        W39945   9.593   8.372   4.759 -0.1362 -0.0783  0.1700
23685W        W39946  15.079   4.907   3.608  0.0766 -0.0971 -0.0690
23686W        W39947   6.451   8.043  11.234  0.0017 -0.0543  0.1221
23687W        W39948   3.576  16.803   1.793  0.0327  0.0451  0.3233
23688W        W39949   6.034   3.828   1.300  0.3738 -0.1414  0.1346
23689W        W39950   9.047   8.852  11.963 -0.1670 -0.1453 -0.0158
23690W        W39951   3.727   8.289   2.703  0.4727 -0.2501 -0.1159
23691W        W39952   6.380  16.391  13.888 -0.1810  0.3272  0.4440
23692W        W39953   4.742  18.464   4.247 -0.0387 -0.1427 -0.4391
23693W        W39954  15.620  14.614   8.914  0.2879 -0.2067 -0.0101
23694W        W39955   5.513   8.730  13.896 -0.1425 -0.1675 -0.0733
23695W        W39956  13.994   3.887   4.390 -0.1417 -0.3156  0.0700
23696W        W39957  16.358  18.091  14.680  0.0429 -0.0919  0.1208
23697W        W39958  12.791  17.845  10.496 -0.1475 -0.3430 -0.1835
23698W        W39959   6.330   1.569   0.596  0.1380  0.1826  0.2617
23699W        W39960   0.344   9.922  11.201 -0.3561  0.0370 -0.1789
23700W        W39961  15.256   9.246  12.341  0.2430 -0.1723  0.3640
23701W        W39962  12.320  10.371  13.542  0.1360  0.2430  0.1568
23702W        W39963  10.440   6.097   1.033  0.0961 -0.1578 -0.0991
23703W        W39964   9.288   2.247   0.683  0.2508  0.0710  0.1476
23704W        W39965   3.688  11.003  10.301  0.1811 -0.1889 -0.0929
23705W        W39966  14.095  16.172  12.842 -0.1761  0.0567 -0.0773
23706W        W39967   1.142   8.895  10.567  0.0903 -0.2469  0.1178
23707W        W39968  11.132  16.851  11.942 -0.0974  0.2107 -0.0649
23708W        W39969  13.671  18.825   3.202  0.1896  0.3194  0.1457
23709W        W39970   1.935  18.528   2.095  0.0388  0.1297 -0.1714
23710W        W39971   8.581  14.130   2.889 -0.1496 -0.1307  0.0800
23711W        W39972   6.496  17.992  11.683  0.0361  0.1945 -0.2314
23712W        W39973  12.486   9.603  12.060 -0.0447 -0.2010  0.0568
23713W        W39974   4.705  11.461  11.899 -0.0802 -0.2224 -0.4639
23714W        W39975   5.645  15.268   2.701  0.1147  0.2056  0.0292
23715W        W39976   8.670  15.717   3.149  0.0719  0.2806 -0.1357
23716W        W39977  15.878  18.652   3.202  0.0561 -0.0285  0.0738
23717W        W39978  13.098   0.539   1.975  0.1724 -0.3575  0.1056
23718W        W39979  19.129   7.090   2.862 -0.1918  0.4591 -0.2918
23719W        W39980   0.709   7.818   2.651  0.0085 -0.0988 -0.3020
23720W        W39981   4.583   6.799   3.087  0.1938 -0.2182  0.2712
23721W        W39982   1.574   0.384   0.230 -0.0041  0.0194 -0.0982
23722W        W39983   3.090   1.426  13.229 -0.0606  0.1577 -0.1832
23723W        W39984   3.789   4.852   3.574 -0.2666 -0.1452 -0.0517
23724W        W39985   7.265   3.204  12.042 -0.0472 -0.0327  0.2636
23725W        W39986   4.692  18.145   3.556 -0.0149 -0.0775 -0.4633
23726W        W39987  13.395  18.787  12.116  0.0563 -0.1173  0.1684
23727W        W39988  11.356   1.603  14.407  0.2569  0.2377  0.1338
23728W        W39989  17.145   9.477  11.681 -0.2225  0.0593  0.0564
23729W        W39990  17.916   7.876   4.716  0.2440  0.1020  0.1152
23730W        W39991   5.100  12.381   0.319  0.2735 -0.0849  0.0992
23731W        W39992  11.292  16.017   3.787 -0.1067  0.1454 -0.1997
23732W        W39993  15.067   2.157  11.861  0.1485 -0.3817  0.0574
23733W        W39994   5.388  12.336   4.643  0.2118 -0.4322 -0.1052
23734W        W39995  18.724  17.781  12.366 -0.2804  0.3002 -0.1729
23735W        W39996   6.187  16.276  12.908 -0.0130  0.3163 -0.1144
23736W        W39997   9.544   6.925   5.692  0.2815  0.0602  0.0560
23737W        W39998   9.668  16.620   2.848  0.1068  0.0521 -0.0994
23738W        W39999  11.840   2.030   0.065 -0.1516 -0.0376  0.0808
23739W        W40000   2.900   6.749   3.941  0.2889 -0.0321 -0.0315
23740W        W40001  17.763   2.749   1.596 -0.0395  0.0365 -0.1368
23741W        W40002   5.539   3.855  13.256  0.0515 -0.0787 -0.4523
23742W        W40003   8.854   0.601  13.301  0.0485  0.3653  0.2241
23743W        W40004   2.779  14.547   1.127 -0.3314  0.2822 -0.1111
23744W        W40005  11.957   7.081  12.383  0.2587 -0.2893  0.1663
23745W        W40006   7.275   8.894  11.069  0.4563 -0.3731  0.3200
23746W        W40007   6.089  15.354   2.966 -0.1451  0.0391  0.2772
23747W        W40008   2.794  11.414   2.847 -0.1744  0.0484  0.2959
23748W        W40009   7.091  17.272   0.186  0.0922  0.0089 -0.2672
23749W        W40010   6.431  12.771  14.811  0.1392 -0.1585  0.1677
23750W        W40011   9.080  11.262  14.301 -0.1513 -0.0243  0.2710
23751W        W40012  14.604  13.763  11.686 -0.0175  0.1137  0.1547
23752W        W40013   8.329   9.219  12.074  0.2096  0.1243  0.0905
23753W        W40014  10.575  13.154   9.332  0.0316  0.1704  0.3178
23754W        W40015  14.545  10.298   4.474  0.2246  0.0594 -0.1005
23755W        W40016   0.781   9.521  10.561  0.2022  0.2179  0.0582
23756W        W40017  11.932  18.779  12.684  0.0832  0.1110  0.1093
23757W        W40018   8.585   0.902   2.458  0.2502  0.2057  0.1204
23758W        W40019   4.242  11.983  13.865 -0.1803  0.4699 -0.0258
23759W        W40020   1.748  12.878   4.967 -0.1243  0.1936  0.0573
23760W        W40021   7.909  15.482   4.898  0.0835 -0.0458  0.5292
23761W        W40022  18.287   0.258  13.155 -0.3930  0.0450 -0.0825
23762W        W40023  18.517   8.824  13.199  0.2117 -0.0041  0.0876
23763W        W40024  17.053   1.937  14.649 -0.0632  0.0864  0.3536
23764W        W40025  17.281  11.522  12.112  0.3732 -0.0481 -0.1478
23765W        W40026   6.992   7.601   1.144 -0.1949  0.6547  0.2912
23766W        W40027  19.188   0.713   1.205 -0.0669  0.0237 -0.1229
23767W        W40028  12.551   0.631   2.830  0.1841 -0.1202  0.1076
23768W        W40029  16.394  11.745   2.646  0.3293  0.0566 -0.3734
23769W        W40030  19.073   0.471   2.480 -0.2588 -0.1460  0.0752
23770W        W40031   7.773  18.282   1.625  0.4892 -0.0767  0.2379
23771W        W40032   9.841   4.978   4.145  0.0586 -0.2642 -0.3033
23772W        W40033   1.249   1.481   2.079 -0.0438  0.1945  0.2406
23773W        W40034   0.851   6.686   4.949 -0.1279 -0.3267  0.2251
23774W        W40035  10.092   9.808  12.776  0.1709 -0.1403 -0.0061
23775W        W40036  17.097  17.547  12.129  0.1026 -0.1090  0.0572
23776W        W40037   3.380   7.881   4.120  0.2789  0.0365 -0.2289
23777W        W40038   5.945   8.557  11.352  0.1403  0.1193 -0.0426
23778W        W40039  19.333   2.724   1.990  0.2145  0.0322 -0.1976
23779W        W40040   0.954  19.095  11.251 -0.0310  0.0827  0.1930
23780W        W40041   3.380  19.402  12.125 -0.0525 -0.2872  0.4291
23781W        W40042   3.693   9.441   5.044  0.1668  0.0469  0.0501
23782W        W40043   4.001  12.514   5.124 -0.1250  0.1340  0.3034
23783W        W40044   2.319   5.540  11.463 -0.2100  0.0410  0.1278
23784W        W40045   3.364   5.342  11.919  0.0076 -0.1101  0.2518
23785W        W40046  13.861  14.861   2.025  0.1203  0.2726 -0.2185
23786W        W40047  18.379   7.903   2.817 -0.1223  0.2357  0.2468
23787W        W40048  15.109  18.818  14.616  0.3798  0.2123 -0.1638
23788W        W40049   1.260   9.615  13.413 -0.0029  0.1882  0.4396
23789W        W40050  18.145   8.785   3.634  0.0283  0.2874  0.0115
23790W        W40051   3.647   5.087  14.662 -0.1357  0.0326 -0.1139
23791W        W40052   4.755   0.349   2.461 -0.0212 -0.2944 -0.1145
23792W        W40053  15.700  10.080   2.359 -0.1859  0.3109  0.1572
23793W        W40054  16.014   8.291   4.186  0.2635 -0.2662 -0.0727
23794W        W40055   8.794  14.184   1.307  0.3690 -0.0518 -0.2647
23795W        W40056  11.947   1.327  13.073  0.1790 -0.3018  0.2347
23796W        W40057  17.125   2.003  12.597 -0.2409 -0.0255  0.0971
23797W        W40058  14.874   9.589  11.329 -0.0282  0.2698  0.0241
23798W        W40059  10.148   1.049  12.460  0.4671 -0.1138  0.3441
23799W        W40060   4.805   3.819   5.113  0.1170  0.0770 -0.5629
23800W        W40061   7.754   8.660   3.919 -0.0929 -0.2467  0.4417
23801W        W40062  12.831   3.836   0.007  0.1629 -0.0893  0.0065
23802W        W40063  18.754   6.584   0.052 -0.2244 -0.0640 -0.1654
23803W        W40064   5.293   1.496   1.969  0.1527 -0.0028  0.0066
23804W        W40065  15.643  17.038  10.714 -0.1148  0.6861 -0.0320
23805W        W40066  15.072  13.354   1.897  0.0193 -0.0309 -0.0725
23806W        W40067  18.599  15.077   1.371 -0.1724  0.0930 -0.0229
23807W        W40068  18.101   4.731   0.383  0.0884 -0.0219 -0.0615
23808W        W40069   0.324  18.622   0.728 -0.2310  0.1502 -0.2101
23809W        W40070   9.374   7.571  11.361  0.1464  0.2066  0.0810
23810W        W40071   9.711   4.528  11.072 -0.0729  0.1776 -0.1514
23811W        W40072   4.817  11.580   0.833  0.1497  0.3493 -0.0147
23812W        W40073  16.648  10.432   3.771 -0.1223  0.0183 -0.1562
23813W        W40074  16.382   7.231  11.278 -0.0052  0.0003  0.2909
23814W        W40075   7.447  14.839   2.586  0.0775 -0.1155 -0.0668
23815W        W40076  11.216   2.099   4.678 -0.0073  0.0757  0.6242
23816W        W40077   4.177  13.322   1.236  0.2171 -0.0212  0.1758
23817W        W40078   3.700  16.065  10.675 -0.2300 -0.0919 -0.0873
23818W        W40079   2.179   8.555   0.633 -0.1776 -0.0000 -0.3464
23819W        W40080   5.044   7.491   5.227  0.0257 -0.2152  0.2440
23820W        W40081   9.377   8.808  11.562 -0.1632 -0.0278 -0.0162
23821W        W40082  15.049   7.538  14.468 -0.3281  0.0846 -0.3280
23822W        W40083  19.297  15.338  12.340  0.0351  0.1523  0.1328
23823W        W40084  10.326   0.671  14.540  0.3369 -0.0665  0.0091
23824W        W40085   1.792   2.505   3.830 -0.4097  0.0363 -0.0124
23825W        W40086  18.775   8.139   2.541  0.2568 -0.0366 -0.0551
23826W        W40087   4.859   0.396   5.264  0.0753 -0.0013  0.1016
23827W        W40088  10.262  18.619   0.083 -0.0416  0.0091 -0.0273
23828W        W40089   6.253  18.729  13.149  0.2393 -0.0188 -0.2514
23829W        W40090  13.795  14.114  10.774  0.3021  0.0293  0.2976
23830W        W40091  14.528   3.852   2.270  0.4110  0.2020 -0.0212
23831W        W40092  10.893   6.066  10.694 -0.3187 -0.0948 -0.2115
23832W        W40093   5.182   3.539   4.008 -0.0768  0.2086  0.0284
23833W        W40094   7.915  15.540   4.030  0.1869 -0.2799 -0.1960
23834W        W40095   1.762   0.337   9.680  0.2256  0.0488 -0.0743
23835W        W40096  12.551  17.048  10.166  0.4943 -0.4806  0.1085
23836W        W40097   9.025  15.803  11.169  0.0427  0.2215  0.2129
23837W        W40098  13.057  10.542  11.532  0.4169  0.0250 -0.0678
23838W        W40099   0.059   0.886   2.502  0.1973 -0.1812  0.1644
23839W        W40100  17.785   6.012  13.858  0.2640  0.3198 -0.0656
23840W        W40101  11.706  15.845  12.733 -0.4826 -0.0229 -0.0016
23841W        W40102  16.509   3.573   1.429 -0.1098  0.2354  0.0502
23842W        W40103   2.624   0.672  13.169 -0.0274  0.2193 -0.1797
23843W        W40104   7.941   4.072   5.021  0.0529 -0.1574  0.3356
23844W        W40105  15.438  11.598  11.118  0.1928  0.0763  0.1963
23845W        W40106  17.024   6.865  14.151  0.2818 -0.0605 -0.2296
23846W        W40107   7.636   4.708  10.651  0.3157 -0.1372 -0.0826
23847W        W40108  18.191   2.706   2.951 -0.2597  0.3970  0.0708
23848W        W40109   2.340  16.341   4.020  0.1918  0.2103  0.0808
23849W        W40110   0.969   5.003  13.285 -0.0965  0.1181 -0.0116
23850W        W40111   0.376   2.593  13.778  0.0755  0.1734 -0.0722
23851W        W40112  15.827  11.091   5.027  0.1408  0.1459  0.2155
23852W        W40113   8.937   3.632   2.828 -0.1628 -0.1850  0.2004
23853W        W40114  13.065  13.480  10.186  0.0259  0.1189  0.1102
23854W        W40115  18.000  12.234  13.022  0.1551  0.2937 -0.0805
23855W        W40116   3.553   6.366  12.670  0.1030 -0.1796 -0.1301
23856W        W40117  13.745  12.229  14.420  0.4426 -0.0716  0.3556
23857W        W40118   2.645   7.698  12.210 -0.0873  0.1989 -0.0952
23858W        W40119  18.017  15.811  10.821 -0.3385 -0.3005 -0.0824
23859W        W40120   7.191   0.659  12.685  0.1762  0.0012 -0.0713
23860W        W40121  13.882  17.444   3.501  0.1287 -0.0116  0.3717
23861W        W40122   2.695  11.667  12.801 -0.1757 -0.1771 -0.0349
23862W        W40123  15.863   0.079  10.350  0.2060  0.3025  0.0465
23863W        W40124  11.694   8.611   3.807  0.3481 -0.1126  0.2136
23864W        W40125   3.227  17.931   0.959 -0.0165  0.3496 -0.2019
23865W        W40126  13.669   4.974   3.151 -0.0612 -0.0823  0.2732
23866W        W40127   6.229   1.516   4.095 -0.3137  0.1072  0.0058
23867W        W40128  12.495  15.235   2.091  0.1962  0.2270 -0.0407
23868W        W40129   8.372   0.378  11.095 -0.1751  0.0508 -0.0937
23869W        W40130   4.796  16.374  13.653  0.0511  0.2690  0.2216
23870W        W40131   2.612  10.671   0.964 -0.0744 -0.0700 -0.0348
23871W        W40132  13.130  10.627   0.284  0.1303  0.4375 -0.0626
23872W        W40133  14.761   8.406   3.491  0.0901 -0.0311  0.1137
23873W        W40134  16.154  10.519   0.090  0.1150 -0.0687  0.2849
23874W        W40135   0.209  10.142  13.811  0.3126 -0.0360 -0.0099
23875W        W40136  10.328   3.691   3.465 -0.1443  0.2189  0.0702
23876W        W40137   3.244  12.852   0.083  0.3691  0.0475 -0.4248
23877W        W40138  18.251  14.730  12.749  0.3071 -0.1014  0.1968
23878W        W40139   6.019  17.794  11.752 -0.2732  0.1393 -0.3237
23879W        W40140   4.293   1.562  11.368  0.1269 -0.1608 -0.1357
23880W        W40141  11.336  18.688   2.692  0.1006  0.1400  0.2075
23881W        W40142   7.159  17.984  12.768  0.0700  0.2845  0.0539
23882W        W40143  16.532   8.492   5.586 -0.1061  0.0814  0.0310
23883W        W40144  16.937  10.590   0.380  0.0670 -0.1155 -0.1544
23884W        W40145   7.181  10.227  13.845  0.3495 -0.2031 -0.1904
23885W        W40146   4.784   4.352  10.828  0.0842 -0.2985  0.4946
23886W        W40147   7.015  11.464   0.643 -0.2317 -0.0268 -0.3157
23887W        W40148   5.197  12.450  10.623 -0.2149  0.2274 -0.0451
23888W        W40149  12.683   1.672   1.384 -0.0650  0.0531 -0.1773
23889W        W40150  17.605   4.592  13.412  0.3298 -0.2248  0.1926
23890W        W40151  12.148   6.911  10.767  0.2752 -0.0414  0.0611
23891W        W40152  18.204   1.665  13.055 -0.1728 -0.1353  0.1309
23892W        W40153  12.170   7.073  14.776 -0.1358  0.4412 -0.1180
23893W        W40154   9.197  14.782  13.315 -0.0769  0.0455  0.0932
23894W        W40155   8.969   9.863   4.254 -0.0226  0.6239 -0.0368
23895W        W40156   2.464   3.666  12.534 -0.0679 -0.0080  0.2713
23896W        W40157   7.655   5.272   1.208  0.0161  0.0456  0.1634
23897W        W40158   6.043   4.949   4.183 -0.0976  0.0567 -0.3043
23898W        W40159  11.783  10.632   4.491 -0.0184  0.0842 -0.0766
23899W        W40160   3.273  11.831  10.274  0.1591  0.1717  0.1188
23900W        W40161   1.222  12.042   2.951  0.0511  0.0243  0.1507
23901W        W40162   1.051  19.421  12.966 -0.1199  0.0824 -0.1010
23902W        W40163  16.389   7.767   5.595  0.3643 -0.0656  0.0978
23903W        W40164   9.101   0.039   2.338  0.4165  0.1646 -0.0718
23904W        W40165  13.872  18.696   9.033  0.1037  0.2053  0.1835
23905W        W40166   4.698  13.639   3.678 -0.0138  0.1038  0.1904
23906W        W40167  16.383   7.458  12.000  0.1284 -0.4174 -0.0459
23907W        W40168  12.881  18.895   0.877 -0.0379  0.1296  0.4087
23908W        W40169  17.216  15.012  14.712 -0.0511  0.1337  0.0917
23909W        W40170  12.040  13.387  14.166  0.1642  0.0172  0.0726
23910W        W40171   9.851   6.269   3.907  0.0482 -0.0104 -0.0419
23911W        W40172   4.283   2.442   2.433 -0.1957 -0.1079 -0.3701
23912W        W40173  10.922   1.773  10.261 -0.4903  0.0575  0.1075
23913W        W40174   9.242   4.843  14.570  0.0599 -0.1299  0.1071
23914W        W40175   3.674   0.275  11.739  0.0576  0.0669  0.1416
23915W        W40176  16.934   9.689   1.306  0.0279 -0.1534 -0.0422
23916W        W40177   7.967  15.635   2.381  0.1872 -0.1741  0.1359
23917W        W40178  15.227   4.500  14.701 -0.1318 -0.0068  0.0999
23918W        W40179  18.078   3.355  13.117 -0.2656  0.1864 -0.1573
23919W        W40180  17.439  10.431   3.560  0.1149  0.2056 -0.1587
23920W        W40181  15.261   0.857  13.400 -0.1795  0.2461 -0.2289
23921W        W40182   7.530   2.971  14.111 -0.0012 -0.0571  0.1155
23922W        W40183  15.418  12.057  14.460  0.3535 -0.2054  0.1546
23923W        W40184  15.974   3.704   3.549  0.1443 -0.0926  0.2417
23924W        W40185   1.501   9.565   3.491 -0.1704  0.2801  0.0796
23925W        W40186   6.913  19.411  11.657  0.0720 -0.1962  0.0369
23926W        W40187  14.003   0.404   3.625 -0.0222  0.2977 -0.2741
23927W        W40188  14.408   6.117   0.211 -0.2163  0.2853 -0.1349
23928W        W40189  14.188  14.680   0.006 -0.0219 -0.2373  0.0952
23929W        W40190  11.690  10.703  13.458 -0.0437  0.3886 -0.1472
23930W        W40191   4.853  14.865   0.637 -0.2044  0.3520  0.0226
23931W        W40192   6.791   8.287   5.297  0.1040 -0.2230  0.0099
23932W        W40193  17.282   9.428   4.348 -0.1887  0.4362  0.0046
23933W        W40194  15.138  15.509   2.214 -0.3648  0.3809 -0.1958
23934W        W40195   7.507   5.380   0.545  0.3747  0.0215  0.1224
23935W        W40196   2.587   1.480   0.283 -0.0456 -0.0053  0.0120
23936W        W40197   7.946  13.345   4.405 -0.2821 -0.0364 -0.2192
23937W        W40198   6.875  15.142   2.428  0.1222 -0.0986  0.2416
23938W        W40199  18.878  12.847  14.453  0.1873 -0.3361 -0.1003
23939W        W40200  13.659  14.152   4.035 -0.1935 -0.3482  0.3089
23940W        W40201   3.069   3.113  13.745  0.1427 -0.1505 -0.2209
23941W        W40202   9.500   3.989   0.204  0.0498  0.0445 -0.1134
23942W        W40203  15.108   1.451  13.762  0.0630 -0.4037  0.0883
23943W        W40204   1.055  10.535   0.668  0.0995  0.1162 -0.1165
23944W        W40205  16.357   8.270  11.736 -0.1518  0.2114  0.1804
23945W        W40206   0.491   1.777  14.180  0.1884  0.3638 -0.0819
23946W        W40207   4.354  11.975   3.312 -0.0816 -0.0926 -0.1307
23947W        W40208   9.899  10.674  13.141 -0.3902 -0.1057 -0.2050
23948W        W40209  11.596  12.003  12.755 -0.0761  0.1175  0.0429
23949W        W40210  10.999   3.843  13.817 -0.1909 -0.0321  0.3595
23950W        W40211   1.981  14.540   2.462 -0.1234  0.1926 -0.0540
23951W        W40212   3.424   8.207   1.543 -0.0510 -0.0332  0.0191
23952W        W40213   0.740  13.101   4.733 -0.1111 -0.0565 -0.2087
23953W        W40214  16.747   5.199   0.370  0.0758 -0.0118  0.0366
23954W        W40215   6.367  10.362  10.858 -0.2459  0.0591 -0.1404
23955W        W40216  19.371  10.687  14.500 -0.3778  0.1261 -0.1973
23956W        W40217   4.144  17.330  12.820 -0.1178  0.0224  0.2392
23957W        W40218  14.537   6.860  14.771  0.0259  0.4066  0.1917
23958W        W40219   2.969   2.410   4.405 -0.0623  0.1848  0.1868
23959W        W40220  16.208  18.436   4.805  0.1596  0.1620  0.5916
23960W        W40221  19.238  15.155  11.337  0.2778 -0.4297 -0.0926
23961W        W40222  16.663  13.377   3.596 -0.1328  0.2644  0.2644
23962W        W40223  11.318   3.428   5.118  0.1185 -0.1866  0.0239
23963W        W40224  14.057  13.993  13.103 -0.1097 -0.1251  0.0889
23964W        W40225  18.377   5.468   3.212 -0.1346 -0.2450  0.3098
23965W        W40226  10.424  16.395  14.661 -0.2170  0.1329 -0.1698
23966W        W40227   9.217  15.368   0.606  0.0978  0.1033 -0.2868
23967W        W40228  18.241  15.128   1.773 -0.0717 -0.0737 -0.4284
23968W        W40229  18.407  11.609  13.908 -0.2031  0.2612  0.1942
23969W        W40230   1.825  17.570   1.604 -0.2117  0.1682  0.0284
23970W        W40231  18.567   6.978  12.944  0.0015  0.2418  0.2437
23971W        W40232   0.837  14.531  11.621  0.2850  0.2063 -0.2300
23972W        W40233   1.103   2.405   0.966  0.1115 -0.1737  0.1390
23973W        W40234   3.967   1.749  14.108 -0.4144  0.0817  0.0651
23974W        W40235  14.385  17.955  12.469  0.1025 -0.4445 -0.0919
23975W        W40236  10.672   9.674   5.625 -0.1496  0.2864 -0.2122
23976W        W40237  16.025   8.353   5.094 -0.2683 -0.3649 -0.2294
23977W        W40238  15.723  13.754   3.868  0.1286 -0.0277 -0.1481
23978W        W40239  12.092  12.549  11.998  0.1520  0.1391 -0.1729
23979W        W40240   4.463  15.938   5.554 -0.3745  0.1808  0.1119
23980W        W40241  15.930  16.574   0.923 -0.1101 -0.2153  0.0518
23981W        W40242   8.137  15.234  10.925  0.3312  0.1770  0.0173
23982W        W40243  15.972   1.254  10.033  0.0768 -0.1687 -0.0224
23983W        W40244   8.913   0.785  13.766  0.0804 -0.3317  0.1311
23984W        W40245  16.565  13.626  10.624  0.1691 -0.2117  0.1032
23985W        W40246   0.342  11.284   9.687  0.0027  0.2694 -0.1015
23986W        W40247   9.761   3.973  13.354 -0.0402 -0.0538 -0.4344
23987W        W40248   9.425  12.524  13.128 -0.0173  0.2328  0.0026
23988W        W40249   7.143  12.622  13.063  0.0141 -0.3274 -0.0024
23989W        W40250   2.040  15.487   5.048 -0.0904 -0.1967 -0.0373
23990W        W40251  19.399   8.250  11.837 -0.0622 -0.1393 -0.3203
23991W        W40252   4.098   1.963  11.053 -0.2019 -0.0029 -0.1665
23992W        W40253   3.629  13.779  12.624  0.0293  0.2253  0.2714
23993W        W40254  18.232  15.410  13.205 -0.2518  0.1960  0.1823
23994W        W40255   1.819  13.057   0.085 -0.0593  0.0778 -0.0054
23995W        W40256  14.106  11.972  10.281  0.3582 -0.0010 -0.0562
23996W        W40257   6.507   9.576   1.061 -0.2644 -0.0477 -0.0597
23997W        W40258   0.499   2.124  14.550 -0.2784  0.1735 -0.1432
23998W        W40259   6.878  15.597   9.975  0.0279  0.0592  0.0599
23999W        W40260  10.688  16.640   0.839  0.0149  0.0900  0.2514
24000W        W40261  13.117   3.761   4.846 -0.3834  0.1024  0.0873
24001W        W40262   2.384  15.460  13.442  0.0813 -0.0465  0.0288
24002W        W40263   4.204   3.219  11.524  0.3329 -0.0764  0.1042
24003W        W40264  12.013   4.612   5.337  0.3403  0.0822  0.0571
24004W        W40265  13.656   5.326   1.856 -0.1689  0.1060 -0.0987
24005W        W40266  11.237  15.901   0.179 -0.2629  0.1584  0.1499
24006W        W40267   9.926  19.142   4.125  0.0911  0.0929  0.1068
24007W        W40268  14.471   3.678   0.237  0.1073  0.1265 -0.0075
24008W        W40269  18.411  10.268  14.490  0.0682  0.1208 -0.0875
24009W        W40270   3.983   4.011   0.142  0.1086 -0.0951 -0.0358
24010W        W40271  18.355   0.047   4.857  0.0734 -0.2904 -0.0025
24011W        W40272  15.637   5.288   4.775  0.0347  0.3827  0.0879
24012W        W40273  14.682  14.642   1.783  0.0038  0.2110  0.0962
24013W        W40274   8.060   8.915   4.711  0.4672 -0.1162  0.0522
24014W        W40275   9.877   4.345  14.177 -0.1172 -0.0269  0.2380
24015W        W40276  19.021  18.289   3.730  0.0368  0.2253  0.0684
24016W        W40277  10.597  19.325  11.402  0.0568 -0.1808  0.2428
24017W        W40278   7.366  15.407  11.659 -0.0088  0.3275 -0.3974
24018W        W40279  19.186   8.651   2.067 -0.0471  0.0772  0.4045
24019W        W40280  12.637   2.636   0.233 -0.1868  0.1411 -0.0636
24020W        W40281   1.921   7.322   0.822 -0.1646  0.1407  0.0216
24021W        W40282   6.978  15.146  13.985  0.1452 -0.4054  0.0866
24022W        W40283  17.961  17.100  10.566  0.3387 -0.0712 -0.1283
24023W        W40284   6.866   9.387   1.303 -0.1873  0.1775 -0.2646
24024W        W40285  16.089   8.133   1.610 -0.2938 -0.0183 -0.0386
24025W        W40286   6.418   3.750   3.460 -0.0284  0.1730  0.1304
24026W        W40287   4.116   8.821   3.439  0.2825 -0.1216 -0.1238
24027W        W40288  10.966   6.726  14.142  0.1722  0.3238 -0.2063
24028W        W40289  13.695  19.049  12.481  0.2159  0.2726  0.0541
24029W        W40290  11.647  15.751   0.544  0.0331  0.0619  0.3531
24030W        W40291   3.370   0.896  13.737 -0.2400  0.1663  0.3100
24031W        W40292   4.119   8.426  11.791  0.0812 -0.1626  0.1981
24032W        W40293  14.480   7.991   4.262 -0.0574  0.0651  0.1429
24033W        W40294   5.357  15.501   5.216  0.0269 -0.1411 -0.0028
24034W        W40295  15.769  16.631   3.592  0.0166  0.2717  0.0032
24035W        W40296  17.972  10.626   3.773 -0.0020 -0.0276 -0.0673
24036W        W40297   5.581  13.169  13.960  0.0580 -0.4834  0.1265
24037W        W40298   0.310   1.255  11.514 -0.3308 -0.2103 -0.1696
24038W        W40299   9.267  16.324   5.016  0.0220 -0.1708  0.3119
24039W        W40300   2.073   4.325  10.945 -0.2271 -0.0168 -0.1074
24040W        W40301   8.884   7.977   2.923  0.0759  0.1261 -0.1348
24041W        W40302   2.792  12.879   0.974  0.2354 -0.0008 -0.0620
24042W        W40303  11.234   0.107  14.078  0.2409  0.1214  0.1598
24043W        W40304   0.541   2.095   1.274  0.0224 -0.1190  0.0939
24044W        W40305   9.158  10.094  12.716 -0.0022  0.1327 -0.1753
24045W        W40306   7.068  15.385  11.085  0.2069 -0.2409 -0.1162
24046W        W40307   1.125  10.839  12.342 -0.1034  0.1170  0.0236
24047W        W40308   6.217  11.974   2.548  0.0979 -0.0485 -0.2740
24048W        W40309  10.416   1.169   4.726  0.2512  0.3440 -0.5594
24049W        W40310   8.934  13.362   2.865 -0.5776 -0.0135 -0.2764
24050W        W40311   0.160   1.066   3.240 -0.0115 -0.2832  0.4030
24051W        W40312  14.054   0.488  14.444  0.1088  0.1581  0.2623
24052W        W40313  10.749   2.168   3.478  0.1787 -0.1039  0.1149
24053W        W40314   3.813   6.609   4.702  0.0577  0.2158  0.0528
24054W        W40315   1.993  17.707   4.056  0.2382 -0.4027 -0.0739
24055W        W40316   7.344  18.905  11.968  0.3794  0.0430  0.4387
24056W        W40317  10.911   5.455   1.786 -0.0218  0.0944 -0.2734
24057W        W40318  18.011  16.809  10.104  0.2279 -0.1742  0.0416
24058W        W40319  18.017   4.963  13.447 -0.1882  0.0659  0.1458
24059W        W40320   4.223   8.959   0.314 -0.2001  0.2208 -0.0132
24060W        W40321  16.232   3.762  12.556 -0.2262  0.0748 -0.1028
24061W        W40322  10.002  10.699   1.990 -0.0590 -0.2086 -0.3093
24062W        W40323  15.058   8.921  10.345 -0.0387  0.0539 -0.2283
24063W        W40324  12.223  10.057  13.130  0.2988 -0.2522  0.0870
24064W        W40325  14.095  11.918  12.173  0.1025  0.2321  0.1104
24065W        W40326  18.277  15.721  12.697 -0.0456  0.4189  0.2511
24066W        W40327   8.482   4.543   0.866  0.0741 -0.0730  0.1726
24067W        W40328   9.076  17.502  10.764 -0.0664 -0.0566  0.0330
24068W        W40329  16.513   5.627   0.161  0.0086 -0.0150 -0.2576
24069W        W40330  18.421  10.029   3.508 -0.2209 -0.1046  0.2372
24070W        W40331   4.372  13.603  14.813  0.0175 -0.1441 -0.0798
24071W        W40332  14.991  13.781   3.619  0.3376  0.0742 -0.3513
24072W        W40333  14.728   3.128  10.161 -0.1347  0.4207  0.0388
24073W        W40334   7.790   0.500   9.844 -0.1164  0.0363  0.1815
24074W        W40335   1.213  11.546   3.727 -0.1329 -0.1358 -0.1927
24075W        W40336  17.423   4.761  11.159  0.0536  0.1454  0.1882
24076W        W40337  18.497  17.189  11.206  0.1846  0.1048  0.3091
24077W        W40338  14.912   7.754   4.414 -0.3477  0.2323  0.2612
24078W        W40339  14.664  18.194  11.166  0.3592 -0.1238 -0.2361
24079W        W40340   8.578  10.750   0.920  0.0928  0.1228  0.1602
24080W        W40341   2.395   9.267  12.953  0.0464  0.1589 -0.2381
24081W        W40342   7.945   4.364  12.532  0.2136  0.1110 -0.1136
24082W        W40343  15.778   8.285  11.722 -0.0648  0.4064  0.2130
24083W        W40344  14.659  15.393  13.862 -0.1137  0.0877  0.2216
24084W        W40345   7.616  10.311  12.570  0.2871 -0.1809  0.0524
24085W        W40346   3.072  12.417   4.192 -0.2012 -0.2371  0.3445
24086W        W40347   7.633   0.704   2.666  0.1474  0.1563  0.0416
24087W        W40348   2.653  11.082   0.658 -0.0940  0.1332 -0.0140
24088W        W40349  16.307   2.188  14.242  0.0091  0.1942 -0.0114
24089W        W40350  13.045  11.091  11.573  0.1544 -0.1181 -0.1755
24090W        W40351  12.277   3.058  11.503 -0.0078 -0.0598  0.0371
24091W        W40352   4.733  14.772  14.555  0.2041  0.0408 -0.3481
24092W        W40353   0.725   7.326   5.862 -0.0523 -0.0115 -0.2002
24093W        W40354   8.666  17.135  12.299 -0.0782 -0.0023  0.3825
24094W        W40355  11.864   5.360  10.897 -0.1715 -0.0408  0.2282
24095W        W40356  17.484   7.505  12.187 -0.0426 -0.0162  0.2924
24096W        W40357  16.897  13.473   3.043 -0.0814  0.3292 -0.1186
24097W        W40358   6.797  10.863  11.913  0.2055  0.0719 -0.0543
24098W        W40359  12.050   9.968   2.134 -0.2545  0.1653 -0.0278
24099W        W40360   6.695   6.377  11.983  0.1722 -0.0246 -0.1515
24100W        W40361   6.018   0.893  14.232  0.1040  0.2248 -0.0734
24101W        W40362  17.142  11.592  14.570  0.2956  0.2061 -0.2183
24102W        W40363   9.735  10.241  13.386 -0.1417 -0.0873 -0.0753
24103W        W40364   2.422   0.632   4.835 -0.0513 -0.0231 -0.0430
24104W        W40365  12.721   3.629   0.661  0.0554 -0.0356 -0.1359
24105W        W40366   1.662   9.549  10.947 -0.8378  0.1967  0.0096
24106W        W40367  12.374   7.323  14.009 -0.1942 -0.0390 -0.1541
24107W        W40368  11.697   2.456  14.786 -0.2070 -0.2407  0.3139
24108W        W40369  13.085   6.616   0.781 -0.0186  0.3182 -0.0468
24109W        W40370   5.223  14.040  12.301 -0.2132 -0.4104 -0.5660
24110W        W40371   9.810  10.261  12.900  0.2224  0.0904  0.1379
24111W        W40372  10.932  14.295   2.427 -0.0105 -0.2022  0.2755
24112W        W40373  18.153   4.830   3.919 -0.1959  0.0868  0.1666
24113W        W40374   4.515  13.282   1.610  0.1762  0.0426  0.0468
24114W        W40375  15.948   6.021   4.354  0.0755 -0.1841  0.0907
24115W        W40376   2.266   5.823   0.817 -0.1772  0.5873  0.1230
24116W        W40377  10.606  15.593   2.992  0.0912 -0.1389  0.2530
24117W        W40378  11.452   2.332  11.094 -0.2792 -0.2254  0.3712
24118W        W40379   0.224   1.712   0.525  0.0859  0.1346  0.0127
24119W        W40380   3.758  11.082  14.855  0.2465  0.1480  0.4781
24120W        W40381   8.470   3.144  14.313  0.0648  0.2113 -0.0991
24121W        W40382  14.046   5.659   9.991 -0.1940 -0.0858  0.0975
24122W        W40383   8.612  17.522   4.928  0.4239 -0.0893 -0.1176
24123W        W40384   5.961  13.560   3.126  0.2285  0.1285  0.2317
24124W        W40385  14.952  18.734  11.956  0.2129 -0.1195 -0.1330
24125W        W40386   2.343   2.924   6.159  0.0010 -0.1429 -0.1810
24126W        W40387  16.179   3.246  12.326 -0.2596  0.2183  0.1090
24127W        W40388  12.715  11.334   2.481  0.3211 -0.0268 -0.2449
24128W        W40389   9.718   4.084  12.518 -0.2544  0.4631 -0.0758
24129W        W40390   7.103   1.580  11.632 -0.0650  0.0563  0.0355
24130W        W40391  15.789  18.823  12.581 -0.0484 -0.0978  0.3045
24131W        W40392  14.533  13.988   3.527 -0.1364 -0.2145  0.1720
24132W        W40393   4.643  13.843  11.609 -0.1716  0.2324 -0.1198
24133W        W40394   8.493  16.996   5.223  0.1882 -0.2143  0.3557
24134W        W40395   1.273  15.124   2.757 -0.1359  0.0518  0.1322
24135W        W40396   8.909   4.512   2.994  0.1505  0.0475  0.1251
24136W        W40397   0.237  16.660   0.038 -0.2831 -0.0578  0.1210
24137W        W40398  10.625   1.397   2.970  0.0040 -0.2531 -0.0901
24138W        W40399   1.106   1.722  14.456 -0.0119 -0.2279 -0.0039
24139W        W40400  18.875   5.665   0.062  0.1388 -0.2754 -0.1481
24140W        W40401  16.558   0.484   4.129 -0.2472 -0.2324 -0.0581
24141W        W40402   8.813  12.098   3.309  0.3784 -0.0945 -0.2987
24142W        W40403   4.220  16.431  14.024  0.1701 -0.0843  0.3454
24143W        W40404   0.197   5.592   3.321  0.1460  0.1019 -0.2163
24144W        W40405  18.952   2.118   1.392  0.2127  0.3019  0.2693
24145W        W40406  10.167   5.575  14.503 -0.1561  0.1165 -0.1312
24146W        W40407   5.055   7.577   2.021 -0.6008  0.0567  0.0655
24147W        W40408   1.227   1.332  11.728 -0.5884 -0.0398 -0.0647
24148W        W40409   3.514   5.847   6.048  0.4688  0.0303  0.0243
24149W        W40410  10.702   0.872   3.974  0.1664  0.2172  0.0311
24150W        W40411   3.017   9.455  12.845  0.2270 -0.1097 -0.3202
24151W        W40412  10.874  17.025  10.985 -0.0594  0.1471 -0.2000
24152W        W40413  14.505   4.644   2.039 -0.0416 -0.0966 -0.1223
24153W        W40414   2.110   1.285   0.048  0.2416  0.2036 -0.1554
24154W        W40415  13.377  12.611  14.503 -0.0924 -0.1174 -0.5034
24155W        W40416   2.854   2.891   3.402 -0.1434  0.0644 -0.1466
24156W        W40417   9.233   3.253   3.640 -0.2228  0.0617 -0.0766
24157W        W40418   2.751   1.044   0.586  0.2410  0.2672  0.0870
24158W        W40419  18.981  10.720  12.618  0.0754  0.2458  0.0394
24159W        W40420  16.188  15.703   0.348 -0.1435 -0.3872  0.3785
24160W        W40421  17.680   5.908  11.476 -0.3492 -0.1307  0.0657
24161W        W40422  10.022  16.482  10.634  0.2542 -0.0708 -0.0380
24162W        W40423   5.666  10.790  14.122  0.1453 -0.3595  0.0112
24163W        W40424  16.459  19.403  11.072  0.1545  0.1458  0.0602
24164W        W40425   0.254  18.615  11.678 -0.1342 -0.1240  0.4153
24165W        W40426  17.034  11.260   1.385  0.3148 -0.1821  0.0100
24166W        W40427  13.876  10.609   2.393  0.0601 -0.2181 -0.1899
24167W        W40428  10.520   3.072  13.710 -0.1712  0.0584  0.0161
24168W        W40429   4.482   5.941   3.693 -0.0756 -0.4723  0.0766
24169W        W40430  18.457   5.859   1.726  0.2500 -0.0726 -0.2086
24170W        W40431  13.385   8.661   4.327  0.1601  0.1202 -0.1324
24171W        W40432   0.728   8.021  13.691  0.1965  0.0890  0.0516
24172W        W40433   8.865   0.404   0.522  0.1834  0.2515 -0.2756
24173W        W40434   2.774   3.307   5.626 -0.0733  0.0438 -0.0318
24174W        W40435   0.465  17.455   4.701  0.1203 -0.0642  0.3515
24175W        W40436   3.405  15.293  13.444 -0.2623  0.1508  0.0285
24176W        W40437   8.683  16.984   0.702  0.0094  0.0215  0.2097
24177W        W40438  15.593  13.354  13.352  0.3127  0.1238  0.0703
24178W        W40439   2.665   1.421   5.272  0.0890 -0.0617 -0.1946
24179W        W40440   6.672  16.167  12.060  0.1417 -0.0144 -0.0733
24180W        W40441   6.101  11.819  10.088 -0.4310 -0.1371 -0.1611
24181W        W40442   2.530   2.118   1.800  0.0712 -0.0339  0.0558
24182W        W40443  18.395   0.091  10.985 -0.0181 -0.0977 -0.2433
24183W        W40444  13.417  11.898   1.753 -0.3857 -0.1937  0.1015
24184W        W40445   8.275   2.970   4.438 -0.0968  0.1665 -0.1684
24185W        W40446  15.752  13.761  12.435 -0.1440  0.3285 -0.0566
24186W        W40447  18.932  18.164  10.822 -0.0412  0.1658 -0.0201
24187W        W40448   6.960   6.303   9.855  0.0850  0.3664  0.3398
24188W        W40449  18.862  11.426   2.038 -0.0841 -0.0350 -0.1765
24189W        W40450  15.143   7.154   1.192 -0.0939  0.1165 -0.1139
24190W        W40451   6.747  11.934  11.490 -0.0284  0.2793  0.2016
24191W        W40452  19.390   3.987   4.292  0.0820 -0.0965 -0.2279
24192W        W40453   6.022   3.188   5.120  0.1311 -0.0639  0.1099
24193W        W40454  19.418   1.128   2.043  0.1890 -0.1623 -0.2217
24194W        W40455   4.898   2.948   3.146  0.1865 -0.0105  0.1357
24195W        W40456   7.782  15.343   3.593  0.0105 -0.0123  0.0950
24196W        W40457   9.280  12.265   2.408  0.0197 -0.2393  0.1801
24197W        W40458  17.404   4.609   5.661 -0.0194  0.2074  0.2606
24198W        W40459   2.860   9.299  13.759  0.0060  0.3343 -0.1089
24199W        W40460   5.548   8.685   5.277 -0.5486 -0.0223 -0.2124
24200W        W40461   0.403  16.484   0.633 -0.0877  0.0105 -0.2846
24201W        W40462   2.090  12.858   2.152 -0.4190 -0.0727  0.0211
24202W        W40463   4.569   1.761  10.941  0.0903  0.0852  0.2559
24203W        W40464  16.124   6.284  10.940  0.2147  0.0162 -0.4363
24204W        W40465  11.737   6.855  14.279 -0.0335 -0.0485  0.1808
24205W        W40466   3.798  13.180   3.875  0.2403  0.0115  0.0470
24206W        W40467  11.424  11.145  14.388  0.0193  0.0338  0.1084
24207W        W40468  17.179  12.654   0.428 -0.0542 -0.3396  0.0790
24208W        W40469   5.559   7.772   5.775  0.3998 -0.2089  0.2896
24209W        W40470   3.407   4.924   4.351 -0.4225 -0.0930 -0.1203
24210W        W40471   4.600  17.719   2.841 -0.1633  0.0977 -0.1870
24211W        W40472   8.391   4.778  11.601  0.0394 -0.1417 -0.4144
24212W        W40473   6.846   1.353  12.003 -0.0440 -0.1036 -0.2844
24213W        W40474  17.942   1.411   4.679  0.0112 -0.0357 -0.1483
24214W        W40475  16.529   5.296   4.702  0.1934 -0.2981  0.1429
24215W        W40476  11.595   1.865   5.102  0.1864 -0.0279  0.5238
24216W        W40477  14.453  17.381   3.731 -0.2827  0.0834  0.2332
24217W        W40478   9.166   7.459  14.882 -0.2117  0.0729  0.0312
24218W        W40479   6.588   0.791  14.066 -0.0597  0.1076  0.1323
24219W        W40480  16.012   7.439   2.959 -0.0944 -0.0916  0.1933
24220W        W40481  10.847  12.420  11.563  0.2078 -0.0116  0.1288
24221W        W40482   9.110   6.194  13.873  0.1316  0.1336 -0.0012
24222W        W40483   1.238   9.957  10.484  0.0310 -0.0394  0.1783
24223W        W40484   8.060   0.139   1.709 -0.1069  0.0763 -0.0576
24224W        W40485   7.531  17.189  14.678 -0.0381  0.0013  0.1202
24225W        W40486   1.228  14.698   4.279 -0.1633 -0.0036 -0.2715
24226W        W40487   6.362   2.080  13.774 -0.0692  0.1511 -0.0136
24227W        W40488  16.729  12.207   0.132  0.0775 -0.1411  0.0254
24228W        W40489  18.835   3.334  14.040 -0.1519 -0.0647 -0.0220
24229W        W40490   4.276   2.959  14.867 -0.1477  0.0116  0.0384
24230W        W40491   8.839  10.284  11.872 -0.1730  0.2803 -0.0609
24231W        W40492   3.367   7.192   0.727  0.0388 -0.1044  0.0245
24232W        W40493  17.525   9.214  10.950 -0.0940 -0.1260  0.3148
24233W        W40494   8.964   1.607   0.140  0.2604 -0.0177  0.0739
24234W        W40495   9.953   9.279  14.805 -0.1816  0.2112  0.1499
24235W        W40496   0.586   9.039  13.051  0.1729  0.4409  0.1109
24236W        W40497   9.483   9.230  10.467 -0.2170 -0.0579  0.1269
24237W        W40498   2.570   1.992   2.579 -0.1703 -0.1938 -0.3155
24238W        W40499   2.117  17.148   1.571  0.0551  0.2998  0.0462
24239W        W40500  16.540  18.585  10.147 -0.0566 -0.1043 -0.0317
24240W        W40501   6.313   4.432  13.630 -0.1401 -0.0814  0.1851
24241W        W40502  12.903   9.523   3.903  0.1158  0.0219  0.0370
24242W        W40503   5.880   0.383  10.875 -0.4455  0.1094 -0.2863
24243W        W40504  13.819   0.817  11.536 -0.2097 -0.2791 -0.2495
24244W        W40505   3.247  16.925  13.450  0.1929 -0.3558 -0.0154
24245W        W40506   9.566   8.997   2.316  0.1536  0.0989  0.2481
24246W        W40507  18.432  18.543  14.505  0.5895  0.0647 -0.1509
24247W        W40508  15.183  14.743   4.118 -0.0754 -0.0047 -0.2270
24248W        W40509  19.387   8.696  13.779 -0.0753  0.2746 -0.0365
24249W        W40510  17.435  10.492   1.837  0.0982  0.4685  0.5859
24250W        W40511  19.311   8.001   0.754 -0.1080 -0.0245  0.0795
24251W        W40512  10.821   2.841  10.943 -0.1553  0.0927 -0.3402
24252W        W40513   6.282   7.529  11.105 -0.1242  0.0854 -0.1484
24253W        W40514   0.774   0.029   0.580  0.2284 -0.1675  0.1080
24254W        W40515   9.630  17.055   3.771 -0.0993  0.1862 -0.0052
24255W        W40516   5.142  14.509   4.897 -0.1966  0.3304 -0.1974
24256W        W40517  11.736  11.667  14.043  0.0107  0.3482  0.0823
24257W        W40518   5.150  16.009  14.372  0.5057  0.3016 -0.0362
24258W        W40519   4.387  16.607   3.301 -0.0812 -0.0122  0.0387
24259W        W40520   0.935  16.542   4.513 -0.1394  0.3547 -0.1672
24260W        W40521   9.934   4.539   4.552  0.1846 -0.0399 -0.2382
24261W        W40522   3.234  17.001   1.490  0.2077  0.0866  0.1948
24262W        W40523  18.779   9.016   4.879  0.4189 -0.0181 -0.2826
24263W        W40524  14.839  16.126   4.307 -0.3760 -0.2943 -0.1102
24264W        W40525  11.388   4.772   3.408  0.1403 -0.0175  0.1219
24265W        W40526   5.454   6.617   0.601  0.1213  0.0201  0.1131
24266W        W40527   3.152  10.906   4.414  0.2910  0.2518 -0.1996
24267W        W40528  15.939   7.294  10.821 -0.5394  0.0498  0.0628
24268W        W40529  12.367   6.201  14.515 -0.0812  0.2320  0.0785
24269W        W40530   7.660  14.036  11.629 -0.1209 -0.1211 -0.4557
24270W        W40531  10.100   5.370   1.236  0.4450  0.0257  0.2625
24271W        W40532   5.393   6.753   2.113  0.1003  0.0054  0.0677
24272W        W40533   8.232  11.276  11.636  0.0256  0.3901  0.0527
24273W        W40534  16.097  16.635   3.269 -0.1909 -0.0989  0.1549
24274W        W40535  18.556  16.370  10.818  0.0293  0.2002  0.0440
24275W        W40536  15.623   0.765   0.083  0.2482  0.3622  0.1565
24276W        W40537  14.271   2.444   3.966 -0.1093 -0.0846 -0.1936
24277W        W40538   5.854   5.356   0.356 -0.2145 -0.3465 -0.0097
24278W        W40539   0.143   5.217   3.639 -0.1423  0.0006  0.2200
24279W        W40540  14.122  17.109   5.057 -0.0411 -0.1871 -0.0420
24280W        W40541  11.465  13.332  11.340 -0.1507  0.1725  0.1988
24281W        W40542  19.142   3.185  11.181  0.2129 -0.2030 -0.2408
24282W        W40543   4.826   9.696  10.756  0.1699  0.0398  0.1511
24283W        W40544  14.593   6.957  13.324  0.1918 -0.3514  0.0056
24284W        W40545  17.737  18.772   0.240 -0.2121 -0.1564 -0.0259
24285W        W40546   7.032   7.608   3.158  0.1115  0.1109 -0.0407
24286W        W40547   2.413  11.086   0.216 -0.2570 -0.0984  0.1556
24287W        W40548  12.202  13.448  13.580  0.3189 -0.2508 -0.0049
24288W        W40549  13.155   1.521  14.450  0.0349  0.1626  0.0096
24289W        W40550   3.438   5.219  13.334  0.2335 -0.0407  0.0054
24290W        W40551  11.614  12.871   0.037  0.0290  0.1572  0.2964
24291W        W40552   8.611  17.118   2.237 -0.0503  0.1461  0.0867
24292W        W40553   9.007  10.784  13.619  0.3009  0.1314 -0.1200
24293W        W40554   3.449   0.919   3.755 -0.3573 -0.3224 -0.0157
24294W        W40555  15.818   0.560   3.243 -0.3390 -0.4249  0.1703
24295W        W40556  16.696  15.505   3.806  0.2411  0.0332 -0.0015
24296W        W40557   7.647   2.220  13.014  0.0008 -0.1099  0.0185
24297W        W40558   3.311  11.336   4.665  0.0660 -0.3526 -0.0780
24298W        W40559   3.281  14.483  13.079  0.1547  0.1382  0.2324
24299W        W40560  19.334  10.432   1.427  0.1288 -0.2772 -0.1666
24300W        W40561  14.811   9.405  10.418  0.0983 -0.0227  0.0035
24301W        W40562  10.462  14.488  14.421 -0.2849  0.0110  0.1336
24302W        W40563   1.988   4.390  12.771  0.5821  0.3875  0.1394
24303W        W40564   3.597   9.300   0.990 -0.1159  0.1315 -0.0658
24304W        W40565   7.637   5.748   1.461  0.1573  0.0488 -0.0877
24305W        W40566  18.641   0.714   2.245  0.1147  0.3373  0.1838
24306W        W40567  12.902  13.118  12.603  0.2233  0.0378 -0.0784
24307W        W40568  10.277   9.313  10.543 -0.0312  0.0039  0.1733
24308W        W40569  15.220  18.445   9.727  0.1389  0.4707  0.0487
24309W        W40570  12.380  10.608   4.330 -0.1478 -0.0879 -0.1916
24310W        W40571   1.057   2.211  14.299 -0.1361 -0.0573 -0.0169
24311W        W40572  18.382   7.200   4.647  0.2022 -0.1205 -0.2752
24312W        W40573   2.921  12.169  14.739  0.0200  0.3491 -0.3676
24313W        W40574  16.041   2.431  11.385 -0.0082 -0.2487  0.2601
24314W        W40575   9.914   1.120   2.026 -0.2521  0.1624 -0.1585
24315W        W40576   9.705   8.146  12.974  0.0760 -0.1398  0.2272
24316W        W40577   6.919   9.712   2.399  0.1529 -0.0229  0.1522
24317W        W40578  15.153   2.616   4.152  0.3074  0.1609  0.3218
24318W        W40579   0.690   5.647   2.250 -0.0830 -0.3377 -0.1716
24319W        W40580  12.030   9.239   0.674  0.3075 -0.0151 -0.0317
24320W        W40581   0.775   8.026   3.768 -0.3675  0.0021 -0.1788
24321W        W40582  19.311   8.193   0.268  0.2050 -0.0796  0.1964
24322W        W40583  15.237  13.465  12.352 -0.0979 -0.3400  0.0928
24323W        W40584  18.752   9.222  13.523 -0.0824  0.0124  0.3205
24324W        W40585   2.371   4.289   6.459  0.2286  0.1193 -0.0824
24325W        W40586  18.370  16.115  12.444 -0.0953 -0.0094  0.1318
24326W        W40587   2.932   1.429  11.879 -0.1799 -0.0271  0.3541
24327W        W40588  17.294  15.050  11.133 -0.2638  0.0502 -0.0022
24328W        W40589  18.436  10.615  11.655 -0.1934 -0.0837  0.0773
24329W        W40590   2.122  11.880  11.675 -0.1229  0.2762 -0.2113
24330W        W40591   0.587   2.118  12.567 -0.0248 -0.1287  0.0478
24331W        W40592  12.591  18.348  11.595 -0.3284  0.1787 -0.0388
24332W        W40593  15.564   2.786  14.128  0.1555  0.0510 -0.2893
24333W        W40594  11.360   3.250   0.983 -0.1251  0.1691  0.0344
24334W        W40595  16.094  17.304   8.998  0.1309 -0.1063 -0.0137
24335W        W40596   8.250   5.672   0.122 -0.0446 -0.2197  0.2586
24336W        W40597  16.841   1.794  11.512 -0.3910 -0.0808 -0.0293
24337W        W40598   0.624   8.971  12.307 -0.2345  0.1273  0.0929
24338W        W40599  13.975   4.233   2.693  0.0809  0.1353 -0.0130
24339W        W40600  16.704   8.910   1.797 -0.2647  0.1572  0.0094
24340W        W40601   5.398   6.913  12.951 -0.2984  0.0900 -0.2325
24341W        W40602   6.309  10.162   4.232  0.1013  0.0611  0.0644
24342W        W40603  16.092  12.646  13.183  0.0604  0.1288  0.0442
24343W        W40604  14.410  12.755   0.355 -0.3722 -0.2725 -0.1166
24344W        W40605  11.604   5.220   4.274  0.1788  0.1060  0.3881
24345W        W40606   8.970  18.591  10.769  0.0986  0.0056  0.1280
24346W        W40607   5.051   9.756   4.793 -0.0065 -0.0241 -0.2839
24347W        W40608  14.631  11.057  14.371  0.0042  0.0531  0.0676
24348W        W40609  19.443   0.840   1.625  0.0393 -0.0401  0.0277
24349W        W40610   2.477  15.454  11.239 -0.2034 -0.2188 -0.1716
24350W        W40611  15.007  17.006   4.200  0.1259  0.3245  0.4753
24351W        W40612  16.061  18.255  12.577 -0.1323  0.6114 -0.0519
24352W        W40613   1.408  15.859  12.719 -0.1210  0.0177  0.0986
24353W        W40614   0.740  17.310   1.143 -0.0459  0.3250  0.1669
24354W        W40615  17.579   1.391   1.040  0.2383 -0.0042 -0.1196
24355W        W40616   4.627   3.444  12.864  0.0625  0.1947  0.1383
24356W        W40617  11.424  14.134   2.213  0.0563  0.0779  0.4539
24357W        W40618   6.237  11.521  10.480  0.3154 -0.0478 -0.1524
24358W        W40619   9.039  12.470  14.299  0.3810  0.1187 -0.0285
24359W        W40620   9.877  15.553  10.691  0.1368  0.0135  0.1775
24360W        W40621  14.054  14.091  11.230 -0.0644  0.1123 -0.0923
24361W        W40622  14.905   0.950   0.614 -0.0648 -0.1997 -0.1882
24362W        W40623  12.516  14.216   0.334  0.0503  0.1523  0.2529
24363W        W40624  18.252  19.195   9.673 -0.1800  0.2644  0.2300
24364W        W40625  12.470  12.344  14.465 -0.1264  0.2141 -0.0692
24365W        W40626   3.481  12.183  13.342  0.1121 -0.1227 -0.1127
24366W        W40627   8.585   5.546  14.319  0.4319  0.0230 -0.1616
24367W        W40628   6.301   7.633   0.058  0.1540 -0.0574 -0.1222
24368W        W40629  13.145  18.789   4.330 -0.2499  0.4768 -0.1307
24369W        W40630   9.561  10.523   1.904  0.0637  0.2404  0.3495
24370W        W40631  18.592  19.327   3.846 -0.0286  0.3219 -0.1022
24371W        W40632   9.097   4.160   2.042  0.0211 -0.1320  0.2619
24372W        W40633  18.521  12.456  12.910 -0.5243  0.2816 -0.0808
24373W        W40634  11.446   1.771   3.674 -0.0447  0.2444  0.2982
24374W        W40635  14.041  13.344  10.009 -0.1375  0.3653 -0.0269
24375W        W40636  14.271   9.029   4.194  0.0120 -0.2005  0.1401
24376W        W40637  15.632  10.941   1.187  0.0392 -0.0545  0.0039
24377W        W40638  17.523   8.138   0.055  0.0819  0.3257 -0.2137
24378W        W40639   7.442   2.824  10.356 -0.2201 -0.3231  0.2526
24379W        W40640   7.330  13.983   2.129  0.0794 -0.0463 -0.2676
24380W        W40641   3.727  10.971   3.453  0.2091 -0.0107 -0.1972
24381W        W40642   5.196  15.091  14.497 -0.0674  0.4712  0.2844
24382W        W40643  17.408   6.662  14.742 -0.0733 -0.0394  0.0919
24383W        W40644  12.234  19.255  11.164 -0.2660 -0.3860 -0.0531
24384W        W40645  18.985   3.636  14.404 -0.1641  0.1971  0.3217
24385W        W40646  15.591  14.764   1.919  0.1600 -0.2057  0.0354
24386W        W40647   7.845   8.352  10.725 -0.1119  0.0454  0.4274
24387W        W40648  16.566  17.420  11.639  0.0886  0.0262  0.2504
24388W        W40649  13.374  14.745   4.574  0.1442 -0.1435  0.1207
24389W        W40650   9.415   9.486   1.116  0.3782  0.0146 -0.3085
24390W        W40651   5.413   7.089  12.416  0.1382 -0.1057 -0.2544
24391W        W40652   2.772   3.536   3.520  0.1083  0.3104  0.3947
24392W        W40653   0.066  17.890   3.942  0.1942  0.2046  0.2623
24393W        W40654  14.663  10.056   0.778 -0.1872  0.0156 -0.2287
24394W        W40655   6.936   4.920  11.436 -0.1480  0.0629  0.2796
24395W        W40656   2.138   2.793  11.232 -0.0568 -0.0766  0.0500
24396W        W40657  14.457  14.729  10.240  0.0869 -0.3330 -0.3125
24397W        W40658   3.997   7.219   1.928 -0.1012  0.4573 -0.3026
24398W        W40659   7.460  12.456  14.653 -0.0166 -0.4871 -0.3831
24399W        W40660   9.398   7.131   0.545  0.0202 -0.0695 -0.1156
24400W        W40661   7.936   7.715   1.292 -0.0404 -0.0002 -0.1463
24401W        W40662   0.492  12.508   2.862 -0.0008  0.1707  0.0769
24402W        W40663  17.168  15.053  12.590  0.0871 -0.0878 -0.1072
24403W        W40664  15.821   7.404  14.024 -0.1111  0.2637  0.0690
24404W        W40665   2.435  15.451   1.167 -0.1376  0.1941 -0.0361
24405W        W40666   3.529   6.145   3.879  0.2216  0.0806  0.1074
24406W        W40667  12.386   1.077   2.208 -0.2028 -0.1956 -0.0352
24407W        W40668  13.282  19.424   3.604 -0.3124 -0.1245  0.0642
24408W        W40669   6.612   1.257  12.856 -0.0741 -0.0533  0.4704
24409W        W40670  15.428   0.812   5.348  0.0821  0.1082 -0.0843
24410W        W40671   1.057   5.021   6.026  0.0298  0.5568  0.3378
24411W        W40672  16.833  12.349  10.615  0.0486  0.0896  0.1834
24412W        W40673  14.434  12.710   5.125 -0.2680  0.1340 -0.3962
24413W        W40674   0.347  14.624  14.342  0.1920  0.2491  0.1035
24414W        W40675   3.946  11.801   3.552 -0.1747 -0.0492 -0.1667
24415W        W40676  11.362  11.574   4.662 -0.1994  0.2894 -0.0037
24416W        W40677   6.210  16.748   1.089 -0.0557 -0.0485 -0.1254
24417W        W40678   6.648  14.055   0.727 -0.3312  0.3162 -0.2060
24418W        W40679  17.960   9.840   9.837  0.2605 -0.2683 -0.1150
24419W        W40680   5.323   8.564   2.360 -0.3301  0.2887  0.0424
24420W        W40681   8.200   9.595  12.439  0.3374 -0.0291 -0.0236
24421W        W40682   1.590  16.942   4.210 -0.0890  0.0639 -0.1223
24422W        W40683   9.364  13.069  11.179 -0.0634  0.3473 -0.0929
24423W        W40684  18.690  15.635   3.477  0.1681  0.1911 -0.1849
24424W        W40685   2.060  10.356   1.747  0.0470 -0.0493  0.1826
24425W        W40686   5.550   8.580  13.289  0.1405 -0.2387 -0.1203
24426W        W40687   0.066   6.749   4.814 -0.0834  0.0269 -0.1595
24427W        W40688  15.105  13.407   0.948 -0.0999 -0.0253 -0.1118
24428W        W40689  13.853  17.029  10.756  0.1466  0.1191 -0.1142
24429W        W40690  14.863  13.812  12.239 -0.0854 -0.0147  0.1184
24430W        W40691   0.087   4.900   1.082 -0.2288 -0.1430  0.3359
24431W        W40692   3.343   0.815   2.554 -0.3144  0.1501  0.1845
24432W        W40693  19.112  12.335   2.906 -0.1746 -0.1712 -0.2372
24433W        W40694  14.238  16.290   2.870 -0.3139 -0.0263  0.0209
24434W        W40695  12.684  10.684   4.980 -0.0220 -0.3137  0.2290
24435W        W40696   9.726  10.530  11.510  0.0532 -0.1380 -0.0977
24436W        W40697  16.269  14.701   3.144  0.0510  0.0969 -0.2481
24437W        W40698   2.316   0.077   0.256 -0.1476  0.1201  0.0980
24438W        W40699   6.232   1.958   4.416 -0.1277 -0.0852 -0.0922
24439W        W40700  17.198   7.561   0.619 -0.0905  0.1248  0.1102
24440W        W40701   7.332   7.836   2.723  0.2414 -0.2190  0.2904
24441W        W40702  12.304  15.240   9.480 -0.0123  0.0948  0.1086
24442W        W40703  11.852  13.877   2.053  0.1805  0.1270 -0.0755
24443W        W40704  11.777   6.545  10.927 -0.0734  0.1927  0.4004
24444W        W40705  16.108   9.943   4.778  0.0075  0.1241  0.0809
24445W        W40706   7.153   6.881   4.325 -0.0754  0.0193 -0.0002
24446W        W40707  17.709   2.148   4.054  0.0315  0.3258  0.2080
24447W        W40708   9.801  12.135  13.061  0.0859 -0.1778  0.2009
24448W        W40709   0.642  15.841  12.868 -0.0025  0.4808  0.0841
24449W        W40710  12.566  17.292  10.600  0.1162 -0.0241 -0.4316
24450W        W40711   6.016  15.151   5.650  0.0010  0.1555 -0.2939
24451W        W40712   2.592   1.261   1.519 -0.3733 -0.1376  0.0527
24452W        W40713   4.926  16.396   1.235 -0.2336  0.0900  0.0498
24453W        W40714  14.271   5.342   3.805  0.0854  0.0249  0.0309
24454W        W40715   7.157   9.765   4.618 -0.1628  0.0296  0.1748
24455W        W40716   7.137   3.344   0.678 -0.1705  0.1940 -0.3726
24456W        W40717  15.568  11.598  10.143 -0.1005 -0.1275  0.0594
24457W        W40718  16.831   8.429  12.577  0.0004 -0.0247 -0.1704
24458W        W40719   3.294  16.816   0.981 -0.0689 -0.1497  0.0807
24459W        W40720  12.996  15.544  11.409  0.0698 -0.1542 -0.1065
24460W        W40721  13.347   1.652  14.033 -0.1647 -0.2543 -0.1624
24461W        W40722  18.637   7.832  14.722 -0.0823  0.3108 -0.0674
24462W        W40723   4.587  11.983   2.687 -0.1114 -0.2089 -0.0999
24463W        W40724   6.512  11.279  14.457 -0.0811 -0.1578  0.0908
24464W        W40725   4.080  16.221   5.367 -0.0344  0.1418  0.2478
24465W        W40726   0.783  16.202  13.784  0.0609  0.0915  0.0448
24466W        W40727   5.008   3.440   4.883  0.1802 -0.2975 -0.2601
24467W        W40728  17.648   5.760   2.835 -0.2578 -0.0004 -0.1257
24468W        W40729   9.857   2.126  11.726 -0.0583 -0.2465 -0.0717
24469W        W40730   5.556  12.851  11.109 -0.2839  0.0692 -0.0616
24470W        W40731  14.739  17.048  13.267 -0.0997 -0.1312 -0.0170
24471W        W40732  15.501  13.381  11.551  0.1015  0.4326 -0.2471
24472W        W40733   7.952   0.238  10.262  0.0206 -0.0725 -0.2554
24473W        W40734   0.655   7.931   0.610 -0.1798  0.0988  0.1929
24474W        W40735   1.180  16.777  14.571 -0.0611 -0.0206  0.1632
24475W        W40736   0.124   6.959  10.721  0.0987  0.4341 -0.0519
24476W        W40737   7.453  14.323  14.164 -0.1815  0.1339 -0.1621
24477W        W40738  15.519   9.348  13.775 -0.3093  0.0187 -0.3022
24478W        W40739   1.063   7.427   5.393 -0.1475  0.2177 -0.1031
24479W        W40740   1.215  15.163   3.290  0.2466  0.0090 -0.3070
24480W        W40741   1.010  16.738   5.082  0.0972  0.0587  0.2988
24481W        W40742  14.552  16.396   1.244 -0.0592  0.1222 -0.2229
24482W        W40743   6.320  18.529  10.445 -0.2123 -0.0371 -0.1987
24483W        W40744   1.692  18.084   1.670  0.0408  0.0025  0.0848
24484W        W40745   2.743  15.063  14.748 -0.2657  0.2345  0.4155
24485W        W40746  11.691   0.199  11.770  0.1006 -0.4094 -0.2399
24486W        W40747  13.278   8.319  12.085 -0.2716  0.2427  0.0192
24487W        W40748  18.011   7.168   1.025  0.1688 -0.1233 -0.1503
24488W        W40749   3.581   8.717  12.595 -0.2291  0.0394  0.0156
24489W        W40750  14.820   5.512  11.053 -0.0705 -0.0789 -0.0647
24490W        W40751   4.129   0.725  11.385 -0.2706 -0.0015 -0.0449
24491W        W40752   6.742   5.322  14.500 -0.0844  0.0146 -0.0653
24492W        W40753  16.274   6.108  13.629  0.1549 -0.0121 -0.1407
24493W        W40754   7.077   3.999  13.733  0.3760  0.1295  0.1432
24494W        W40755  17.567  13.535   0.688  0.4137  0.1224 -0.2292
24495W        W40756   1.558  16.230   2.249 -0.0043 -0.1106  0.2279
24496W        W40757   1.717   0.725   5.255  0.0767 -0.0227  0.2743
24497W        W40758   8.166  12.786   2.708 -0.1619 -0.0096 -0.4958
24498W        W40759  11.842   6.885  13.728  0.1111  0.1442  0.0543
24499W        W40760   1.738   0.683   1.407 -0.1221  0.0140 -0.2261
24500W        W40761  12.571   4.836   0.407 -0.2227  0.1101  0.1831
24501W        W40762   5.172  14.890  12.665 -0.2650 -0.0824  0.1007
24502W        W40763   7.526   7.061  12.439 -0.1096  0.0080  0.1866
24503W        W40764  10.730  18.067   1.181  0.1945 -0.1332  0.1194
24504W        W40765   9.915  18.127  14.293 -0.0401 -0.0476  0.0135
24505W        W40766  10.072  14.487   1.958 -0.0083  0.1083  0.1010
24506W        W40767   3.040  10.021  10.873 -0.2717  0.0331  0.5802
24507W        W40768  17.045  11.031   4.857 -0.0134 -0.1816  0.0639
24508W        W40769  14.545  16.511  13.418 -0.1641 -0.4434  0.3507
24509W        W40770  12.080   6.346  11.614 -0.1503  0.2056 -0.0711
24510W        W40771  17.385   6.372   4.412 -0.0597 -0.2658 -0.8302
24511W        W40772  10.062  12.587   0.579  0.2151 -0.2896 -0.2161
24512W        W40773   7.936   4.614  14.877  0.1360 -0.2208  0.0790
24513W        W40774  12.140   5.725  12.817 -0.0267 -0.2265  0.3462
24514W        W40775   1.569   7.404   2.624 -0.0783 -0.0239  0.3205
24515W        W40776   1.400  16.859  11.221  0.5326 -0.0264 -0.1486
24516W        W40777  13.707  18.817   0.039 -0.4957  0.2743 -0.0964
24517W        W40778   5.268  11.722   3.902  0.0378  0.1725  0.1031
24518W        W40779   6.366   0.048   0.087 -0.0748  0.3794 -0.1867
24519W        W40780   2.608   7.586   1.143  0.3074 -0.1052 -0.1393
24520W        W40781  18.837  11.025  14.672  0.2017  0.3940  0.0901
24521W        W40782  14.596   5.761  10.221  0.0563  0.1332 -0.4475
24522W        W40783  12.274   8.834   3.480 -0.1942  0.1516 -0.4478
24523W        W40784  12.019   4.176  10.404  0.1040 -0.6047  0.2037
24524W        W40785  13.035  15.105   1.284 -0.0636  0.0129  0.0852
24525W        W40786   2.854   0.144   5.687  0.0149 -0.1655 -0.0423
24526W        W40787   3.739  16.495   0.834  0.0685  0.0480 -0.0526
24527W        W40788  14.461  18.808  13.914  0.0607 -0.3271  0.0076
24528W        W40789  14.312  17.824  11.339  0.0774 -0.1490 -0.0441
24529W        W40790  18.171   5.172   1.318 -0.1572 -0.1138 -0.0387
24530W        W40791  10.672   0.624  10.265  0.2002 -0.3691  0.4409
24531W        W40792   1.867  12.607   2.874  0.0246  0.0513  0.2700
24532W        W40793   7.350  17.744   0.535 -0.3172  0.0740  0.0399
24533W        W40794   4.473   8.693  11.388  0.0606  0.0168  0.4880
24534W        W40795  12.353  18.190   4.131 -0.0562  0.0692  0.0853
24535W        W40796   8.453  10.422  11.314 -0.2250 -0.1299  0.0088
24536W        W40797  13.432   8.527   0.510  0.2293 -0.1076 -0.0094
24537W        W40798  16.040  17.330   3.400  0.1131 -0.0119 -0.0501
24538W        W40799  15.997   8.876   1.991  0.2190 -0.0603  0.4985
24539W        W40800  10.147   6.334  11.399 -0.0070  0.1378  0.0938
24540W        W40801   3.363  10.285  12.991  0.0777 -0.0502 -0.0267
24541W        W40802   9.436   6.211   0.609 -0.1460 -0.1746  0.1117
24542W        W40803  10.508  13.277   3.624 -0.1183 -0.4905 -0.1186
24543W        W40804   7.403   8.453   0.242 -0.0738 -0.0363  0.1680
24544W        W40805  10.932   6.034  12.001  0.2864  0.1877  0.0543
24545W        W40806  12.255  18.410   1.369  0.1505 -0.3545 -0.1033
24546W        W40807   6.517  12.528   2.847 -0.2093 -0.1835 -0.0725
24547W        W40808  17.960  14.674   0.930  0.0553  0.2891 -0.1951
24548W        W40809  18.234   2.474  13.732  0.3201 -0.4888 -0.2884
24549W        W40810  17.080  12.537  12.994 -0.1323  0.0988  0.2926
24550W        W40811   6.002  10.400   3.347  0.3945 -0.2127  0.2229
24551W        W40812  15.930   4.077   4.167  0.1447 -0.2798  0.2273
24552W        W40813   8.033   1.235  13.485  0.2348  0.1512 -0.0683
24553W        W40814  19.049   8.074   2.963  0.0058  0.1648  0.4097
24554W        W40815  15.893   9.594  12.878 -0.3522  0.2588 -0.0266
24555W        W40816  10.805   2.518   5.120 -0.0573  0.1528 -0.0695
24556W        W40817   4.671  16.491   3.774  0.1916 -0.1647  0.2009
24557W        W40818   2.281  19.429   4.181  0.0857 -0.1801 -0.1224
24558W        W40819   5.317  17.549   4.791  0.2788  0.0537 -0.0061
24559W        W40820  19.096  10.284  11.949 -0.3233  0.2002 -0.0016
24560W        W40821  15.317   5.765   1.036  0.2370  0.4292  0.1053
24561W        W40822   9.751  14.594  11.772 -0.1701  0.0207 -0.0172
24562W        W40823   3.033   1.599   3.777  0.1849  0.1933 -0.2691
24563W        W40824   2.917  16.488   2.491  0.1033  0.2212 -0.0545
24564W        W40825  12.269  16.454  13.389  0.2452 -0.0273  0.3426
24565W        W40826   6.011  12.020   9.344 -0.0367  0.5016  0.0186
24566W        W40827   3.642   7.166  12.239  0.2209  0.0097  0.0524
24567W        W40828  17.957  10.130   2.075 -0.0825  0.1001 -0.2912
24568W        W40829   1.742  18.386   2.529 -0.0451 -0.0280  0.0519
24569W        W40830   8.090   4.569  12.993  0.2503  0.0115 -0.2688
24570W        W40831  12.475   5.972  13.212 -0.1935  0.1376  0.3760
24571W        W40832   6.357  12.601   5.522  0.3652 -0.0421  0.1693
24572W        W40833  10.582  17.920  12.509  0.4908  0.0470  0.1348
24573W        W40834   1.471   1.294   3.448  0.1946 -0.0075 -0.1313
24574W        W40835  18.044   6.978  14.362 -0.0206  0.2692 -0.1306
24575W        W40836   7.416   7.560  12.573  0.1985 -0.1376  0.2133
24576W        W40837  10.819   9.986  13.329  0.1498  0.0355 -0.1853
24577W        W40838  10.366   1.914   5.202 -0.2160 -0.2052 -0.2301
24578W        W40839  13.327   6.954   1.012 -0.1490  0.2048  0.2236
24579W        W40840   8.345   7.479   1.952  0.1586 -0.1273 -0.0202
24580W        W40841  15.409   3.284  11.901 -0.0747 -0.1762  0.3207
24581W        W40842  18.912  10.353   2.192 -0.0773 -0.2628  0.1311
24582W        W40843  14.500   4.142   0.503 -0.0124 -0.1965 -0.2587
24583W        W40844  11.400   9.200   5.476  0.2098 -0.0402 -0.2654
24584W        W40845  16.259   9.919  11.394 -0.0060  0.0280  0.2901
24585W        W40846   4.323   5.307  11.664 -0.0214  0.0050  0.0534
24586W        W40847   9.923  15.568   0.889 -0.1652  0.5116  0.1098
24587W        W40848   5.079   6.520   0.172 -0.2981 -0.1264 -0.2390
24588W        W40849   0.948  17.210  14.566 -0.1971  0.3390  0.0920
24589W        W40850   8.019   1.134   0.012  0.0785  0.3511  0.1699
24590W        W40851   8.919  16.297  11.795 -0.2646  0.0239 -0.4201
24591W        W40852  12.440  15.845   1.489 -0.1469 -0.0143  0.1260
24592W        W40853  16.318  14.536  12.636 -0.2490 -0.0118 -0.2045
24593W        W40854  11.498  14.395   1.207  0.1246  0.1394 -0.0425
24594W        W40855  15.840  16.811   9.859  0.0508  0.0376  0.0003
24595W        W40856   2.504  13.283   3.566 -0.0380  0.5989 -0.0476
24596W        W40857   2.555   8.710  12.259 -0.3154 -0.0594 -0.2998
24597W        W40858   9.718  14.059   3.560 -0.2330 -0.4621  0.0514
24598W        W40859   5.892   1.340   0.141 -0.2375  0.0562  0.1389
24599W        W40860   4.689   4.170   3.216 -0.1430  0.0422 -0.2775
24600W        W40861  18.173  12.022   3.920  0.1956 -0.1970  0.1772
24601W        W40862   2.284   8.692  13.695 -0.0014  0.1808  0.1683
24602W        W40863  10.166  15.305   5.204  0.2600 -0.0924  0.1258
24603W        W40864   5.078   7.216  11.847  0.0834 -0.1117  0.0475
24604W        W40865   5.798  16.644   2.414 -0.0044  0.0614 -0.0094
24605W        W40866   1.642   1.959   0.371  0.2064 -0.1183  0.3049
24606W        W40867  18.075  13.338   0.591  0.5011  0.0381 -0.1359
24607W        W40868   0.425  12.718   4.333  0.3983 -0.1071 -0.0203
24608W        W40869   9.958  18.807  12.273  0.2100  0.1939  0.2017
24609W        W40870  17.495  11.821  10.452 -0.4017  0.0093 -0.1564
24610W        W40871   3.873   3.268   2.245  0.3629 -0.0815 -0.3051
24611W        W40872  11.447  13.314  13.067  0.2840  0.3405 -0.0842
24612W        W40873   2.575   3.462   2.988  0.0770  0.2049 -0.1320
24613W        W40874  16.105  18.023  12.140 -0.0372  0.1727  0.2682
24614W        W40875  13.091   8.086  13.566  0.4549 -0.0836  0.1646
24615W        W40876   5.735   8.598  14.840 -0.1192 -0.0837 -0.2336
24616W        W40877   2.820   3.382   2.547  0.1753 -0.0812  0.0820
24617W        W40878  16.364  12.192   5.592 -0.5944  0.1241 -0.0262
24618W        W40879   6.094  12.804  13.005  0.2219 -0.2470 -0.1316
24619W        W40880   3.039  18.997  14.729 -0.0203 -0.0502  0.3336
24620W        W40881  11.669   1.900  14.228 -0.1457 -0.0987  0.2394
24621W        W40882  17.881   7.312  14.612  0.1320 -0.0466 -0.0648
24622W        W40883   1.358  19.377  13.317 -0.2317 -0.1026  0.2367
24623W        W40884   0.768  16.308   0.307  0.2527  0.0933 -0.0320
24624W        W40885   1.258   1.238  11.163 -0.0107 -0.2091  0.1213
24625W        W40886   9.124   6.140  13.391 -0.0078 -0.2391  0.2941
24626W        W40887  11.131   7.853   4.899 -0.2533 -0.3297 -0.1841
24627W        W40888  12.293   1.934  10.949 -0.0650 -0.1019  0.0021
24628W        W40889   5.726   1.904   1.984 -0.0063 -0.2558  0.1392
24629W        W40890   8.831   1.410  10.328 -0.1461  0.2483 -0.1321
24630W        W40891   6.507   0.694   1.675 -0.0345 -0.2492 -0.3502
24631W        W40892   8.649  11.335  14.521 -0.1709  0.2032  0.0632
24632W        W40893  14.531  18.940   4.433  0.0644  0.0926 -0.3749
24633W        W40894   7.096  11.850  13.752 -0.1300 -0.3513 -0.0370
24634W        W40895   2.097   6.077  14.524  0.4699  0.1919 -0.1446
24635W        W40896   7.481  18.735   4.376  0.0382 -0.0023 -0.4707
24636W        W40897   1.544   5.101   1.826 -0.4265  0.3363 -0.1648
24637W        W40898   5.844   2.681   1.835 -0.0712 -0.0280  0.1918
24638W        W40899   6.362   1.472   2.991  0.0553 -0.0694 -0.1200
24639W        W40900  14.186   5.406  13.315  0.1325  0.3597  0.3975
24640W        W40901   5.936  14.005  12.335  0.1135 -0.0584  0.1422
24641W        W40902   4.072   2.872   0.635  0.0012 -0.0243  0.0852
24642W        W40903   5.379  11.317  10.546  0.0617 -0.1157  0.2391
24643W        W40904   7.632   3.817   3.115  0.2398 -0.4030  0.3512
24644W        W40905  11.501  14.250   3.833  0.1126  0.3171  0.0954
24645W        W40906   8.800   6.622  12.982  0.3529  0.1999 -0.0582
24646W        W40907   9.154  10.115   5.181 -0.0724 -0.3242 -0.0146
24647W        W40908   2.311  16.705  12.923  0.4128  0.2726 -0.0130
24648W        W40909  12.601  10.825   3.416  0.0393  0.2873 -0.1914
24649W        W40910   7.475  17.422  14.196  0.1134  0.0392  0.3741
24650W        W40911  18.550   3.255   5.538  0.1161  0.0683  0.0723
24651W        W40912   6.418  13.138  12.726  0.0931 -0.1589 -0.1442
24652W        W40913  11.691   6.214   3.562 -0.1957  0.3410 -0.0242
24653W        W40914  19.198   0.304   1.652 -0.2764  0.2074 -0.2240
24654W        W40915  17.104  14.819   5.209  0.0157  0.0775  0.1597
24655W        W40916  18.845   2.687  13.153  0.2425  0.0162 -0.0729
24656W        W40917   3.621   9.049   3.265  0.1759 -0.3090  0.2215
24657W        W40918  17.082   4.630   2.969 -0.1206  0.0195 -0.0246
24658W        W40919   8.853   7.217   1.342 -0.0370 -0.1081  0.0255
24659W        W40920  10.203  17.246   1.633 -0.1575  0.3091 -0.1425
24660W        W40921   4.753  17.378   0.111 -0.2516  0.2441  0.1020
24661W        W40922  12.468  17.463   3.695  0.1170 -0.0616  0.1203
24662W        W40923  19.100   1.709   0.219 -0.2751 -0.1345 -0.2228
24663W        W40924  15.306   5.902  11.117 -0.1919 -0.2095  0.0540
24664W        W40925   4.930  12.667   3.451  0.1551 -0.4066  0.0306
24665W        W40926  16.647   9.128  12.012  0.0720 -0.1378  0.2339
24666W        W40927  18.867  15.743   1.231  0.3320 -0.2057  0.2642
24667W        W40928   8.677   2.722  12.491  0.0014 -0.4301 -0.0858
24668W        W40929   4.722   2.219   3.956  0.3216 -0.0472 -0.0991
24669W        W40930   9.657  12.347   2.747  0.2318  0.0965  0.1595
24670W        W40931   9.329  12.582  10.913  0.0341  0.4530 -0.2386
24671W        W40932   2.619  16.962   0.635 -0.1587  0.0240 -0.0560
24672W        W40933   3.992   9.869   1.440 -0.2264 -0.2479 -0.0244
24673W        W40934   0.297  10.038   4.695 -0.1563 -0.1661  0.1398
24674W        W40935   8.570   1.314  14.434  0.0042  0.3527 -0.0325
24675W        W40936  10.406   6.044  10.663  0.1470  0.3464 -0.0002
24676W        W40937   2.002   8.324   3.312 -0.2991 -0.2394 -0.5646
24677W        W40938  14.756  11.827  12.911 -0.2371  0.1210  0.0912
24678W        W40939  12.689   8.037   4.014  0.0597  0.3450 -0.0640
24679W        W40940  16.303   2.844  13.504  0.0718  0.3786  0.2104
24680W        W40941   9.596   9.604  12.734 -0.3584 -0.0734  0.0652
24681W        W40942  13.506   9.579   1.841 -0.1292 -0.1266 -0.0876
24682W        W40943   6.668  17.945  10.672 -0.0629  0.0924 -0.0624
24683W        W40944  17.459  14.885  12.141  0.2272 -0.1147 -0.1118
24684W        W40945   1.924  17.457   2.126  0.0925 -0.3743 -0.1514
24685W        W40946  15.627  12.336   2.753  0.2707 -0.0668  0.0274
24686W        W40947   9.992  17.668  10.152  0.2563  0.1411  0.2184
24687W        W40948   9.654  12.482  12.225 -0.1718  0.1733  0.5901
24688W        W40949   6.230   3.424  10.743 -0.0249 -0.2095  0.3267
24689W        W40950  11.217  12.224   1.198  0.0192 -0.0372  0.3337
24690W        W40951   1.024  18.345   2.133  0.0315  0.2065  0.3819
24691W        W40952  18.710   0.759   2.745 -0.0924  0.1731  0.0009
24692W        W40953  11.909   1.180  11.797 -0.2807 -0.1954  0.1156
24693W        W40954  14.024   2.807   0.219  0.0690  0.1350 -0.0796
24694W        W40955  12.653  19.227   4.153 -0.2199  0.4124 -0.0264
24695W        W40956   0.515   6.605  10.719 -0.2693 -0.3112  0.3008
24696W        W40957  14.548  10.833   9.894 -0.3405 -0.1876  0.3673
24697W        W40958   2.735   7.952   2.599  0.0005  0.1263  0.3087
24698W        W40959  17.120  10.978  13.933  0.1019 -0.2698  0.0406
24699W        W40960   9.600  17.661   4.589 -0.2311 -0.0373 -0.2263
24700W        W40961  14.746   2.795  12.837 -0.2150  0.0767 -0.0969
24701W        W40962   0.287   6.140   3.904  0.0896 -0.1058 -0.0840
24702W        W40963   6.065  14.294   5.553 -0.3256  0.0889  0.2048
24703W        W40964   5.957   8.446   4.176 -0.2677  0.1079 -0.2332
24704W        W40965  13.053   8.990   2.253  0.1060  0.0351 -0.1645
24705W        W40966   3.758   3.718   3.527  0.0980  0.3645  0.1916
24706W        W40967  14.588   7.946   8.848  0.2210 -0.2660 -0.0549
24707W        W40968  17.150   1.159   3.900 -0.2195  0.0557  0.0024
24708W        W40969   8.564   4.720   4.025  0.0445  0.3232  0.5060
24709W        W40970   8.324   9.450  14.580  0.1357  0.1150 -0.2295
24710W        W40971   9.192  14.199   2.224  0.0744  0.1537 -0.2177
24711W        W40972  19.018  12.865  10.897 -0.0412  0.0378 -0.1180
24712W        W40973   0.727  15.763   3.918  0.1831  0.2289 -0.5082
24713W        W40974  18.061  11.143   4.713  0.1369 -0.2046 -0.0448
24714W        W40975   8.298   2.710  10.671 -0.1720  0.1188 -0.0795
24715W        W40976  18.274  13.731   2.955 -0.0239 -0.1195 -0.0974
24716W        W40977   6.043   9.332   1.849 -0.1141 -0.1167  0.0697
24717W        W40978  10.607   1.871  13.138 -0.0113  0.0436  0.0266
24718W        W40979  12.246   2.041   4.369 -0.3920  0.3973 -0.0015
24719W        W40980   8.549   9.161   0.954 -0.0350  0.0374 -0.0335
24720W        W40981  19.409   6.762  11.468  0.0815  0.0398  0.0653
24721W        W40982   5.994   3.439   2.072 -0.4020  0.0425 -0.0773
24722W        W40983   3.903   5.480   0.430  0.0420 -0.3502  0.2150
24723W        W40984  10.823   5.555  10.691  0.2510  0.0720  0.1474
24724W        W40985   3.504   2.497   2.091 -0.0929 -0.2411  0.0601
24725W        W40986  18.310  18.140   0.079  0.0486  0.1444  0.2184
24726W        W40987  15.601  19.028   2.967  0.2251 -0.1533 -0.1062
24727W        W40988   0.108   9.047  12.203 -0.1966 -0.1500 -0.0400
24728W        W40989   9.268   7.424   4.647  0.3084  0.0564  0.2802
24729W        W40990   2.478  12.435  13.218  0.0837  0.1818  0.0931
24730W        W40991  14.601   2.625  11.330 -0.0765 -0.1303  0.0976
24731W        W40992   7.659   0.613  12.467  0.0786 -0.0651  0.2013
24732W        W40993   5.297   4.949  10.948 -0.2482 -0.0007 -0.1313
24733W        W40994   4.733  19.052   0.395 -0.1719 -0.1428  0.1868
24734W        W40995   0.117  12.559   2.567 -0.0110 -0.1135  0.1268
24735W        W40996   2.635   5.382  12.540  0.0957  0.1658  0.0133
24736W        W40997  16.631  17.114   4.121 -0.2375  0.1237  0.1908
24737W        W40998   7.251  18.705  10.723  0.1980 -0.0755 -0.1451
24738W        W40999  11.628  11.795   3.880  0.0130  0.2171  0.1913
24739W        W41000  11.309   0.911  10.110 -0.2084 -0.0223 -0.0615
24740W        W41001  10.986  10.275   2.412 -0.2468  0.0838  0.0681
24741W        W41002  12.956   3.166   2.211 -0.2543 -0.1492 -0.1898
24742W        W41003   1.031  12.981  11.217  0.0666 -0.1606 -0.2553
24743W        W41004  15.797   2.266  14.173 -0.0139 -0.2153  0.0343
24744W        W41005  11.797  18.122   4.919  0.2149 -0.2032 -0.4227
24745W        W41006  12.343  13.765   3.952  0.0517 -0.1873 -0.3579
24746W        W41007   7.688   2.226  13.528 -0.1374  0.1424 -0.4250
24747W        W41008   4.528   9.625  12.809  0.2741 -0.1267 -0.2791
24748W        W41009   7.456   7.349   5.216 -0.1315  0.1659  0.1738
24749W        W41010   1.908  16.662  12.613 -0.0403 -0.0352 -0.2378
24750W        W41011  14.566  11.279  10.718 -0.0693  0.0571  0.2172
24751W        W41012  15.149   5.789   4.748  0.2111 -0.3006  0.0985
24752W        W41013  17.621   9.570   2.667 -0.4140 -0.0170  0.0100
24753W        W41014  14.622  12.416  11.534  0.3235 -0.2496  0.1810
24754W        W41015   7.101   0.703   4.538 -0.4440 -0.0824  0.0113
24755W        W41016   2.516   9.802   3.662  0.3149  0.1281  0.1537
24756W        W41017   1.353  11.208  10.148 -0.0475  0.0724  0.1178
24757W        W41018  11.138   9.052   1.310 -0.1953 -0.3088  0.2653
24758W        W41019   1.803  19.300   4.381  0.1175 -0.0168  0.1766
24759W        W41020  18.186  14.918  11.563  0.1901 -0.1250 -0.0238
24760W        W41021  12.319   3.405   3.052 -0.1556 -0.2437 -0.2463
24761W        W41022  13.520  16.140   1.641 -0.0649  0.0412  0.0693
24762W        W41023  13.798  16.111  10.204 -0.3653 -0.1197 -0.1290
24763W        W41024   5.174  17.058  11.677 -0.3272 -0.4884 -0.1872
24764W        W41025  16.627  14.704   4.139 -0.4256 -0.3419 -0.0330
24765W        W41026   4.545  15.033   0.029 -0.0701  0.1253 -0.0849
24766W        W41027   0.616   9.845   1.764 -0.1052  0.2753 -0.0669
24767W        W41028  10.457  15.777   2.077 -0.1921 -0.1284  0.3392
24768W        W41029  13.562   3.119  14.836  0.2452 -0.2146  0.2117
24769W        W41030  19.441   6.258  13.509  0.3360  0.0406  0.1929
24770W        W41031   9.075   8.005   3.573  0.0096 -0.1642  0.0266
24771W        W41032   0.432  18.718  13.421 -0.5051 -0.1426 -0.0870
24772W        W41033   7.309  18.922  12.860 -0.0599  0.1144  0.1693
24773W        W41034  18.521  13.193   0.772 -0.0880  0.3274  0.0915
24774W        W41035   7.477   4.592   1.006  0.0505  0.0487 -0.1745
24775W        W41036   2.732  13.761  14.092 -0.0712  0.3060 -0.2020
24776W        W41037  13.819   8.633  11.891 -0.0577 -0.3628  0.2740
24777W        W41038   7.793  13.596  13.311  0.1007  0.0343 -0.1014
24778W        W41039  12.378  15.371  11.964  0.0888 -0.0967 -0.0284
24779W        W41040   3.518  16.732  11.009  0.2741 -0.2636 -0.1220
24780W        W41041   0.905   2.627   3.319  0.2304 -0.1049 -0.4748
24781W        W41042   7.485   9.334  12.158 -0.0119  0.1579 -0.1283
24782W        W41043  13.261   1.129   2.594  0.1417 -0.1207 -0.0749
24783W        W41044   4.133   9.361  11.503 -0.2247 -0.3665  0.2297
24784W        W41045  10.527   7.511  14.631 -0.1278 -0.1031 -0.1073
24785W        W41046   1.478  18.723   1.208 -0.1434 -0.0021 -0.2078
24786W        W41047   5.449   6.890   3.591  0.0107  0.0237 -0.0657
24787W        W41048   7.271   7.950  13.558 -0.2342 -0.2305 -0.0236
24788W        W41049  10.255   0.654   0.725 -0.2398  0.0288 -0.0045
24789W        W41050  16.693  17.720  14.743 -0.1229 -0.3795 -0.1775
24790W        W41051   3.447  18.809  12.839  0.3897  0.1854  0.1809
24791W        W41052   0.863  12.232   3.233  0.0691 -0.1188 -0.0850
24792W        W41053   1.821   4.320   4.527  0.2245 -0.1220 -0.0275
24793W        W41054  18.655  12.928  12.897  0.1873  0.1227 -0.0956
24794W        W41055  13.676  13.876   3.073  0.3851  0.2574  0.0528
24795W        W41056   0.053  11.678   2.235  0.0786  0.1655  0.0523
24796W        W41057  10.537  11.804  12.266 -0.2538  0.2911  0.1307
24797W        W41058  14.270   4.815  10.319  0.0986  0.2489  0.1070
24798W        W41059  14.607  13.344   1.043  0.0889  0.1158 -0.0986
24799W        W41060   6.167  10.879   3.276  0.3956 -0.2854 -0.1600
24800W        W41061   4.105   9.681   3.773 -0.0921 -0.1434 -0.2265
24801W        W41062   9.077   6.510   1.592 -0.0452  0.2524  0.2818
24802W        W41063   9.981   6.799   1.358 -0.0819 -0.2283 -0.0406
24803W        W41064   4.797   8.992  13.259 -0.2587 -0.1217 -0.1527
24804W        W41065   8.360   3.045   9.918 -0.0578 -0.0058 -0.0468
24805W        W41066   8.432   5.727   4.142 -0.1005  0.0353  0.1422
24806W        W41067   9.929   1.319  11.031 -0.2332  0.1954  0.0529
24807W        W41068   2.912   8.357  10.784 -0.1202 -0.0580 -0.1582
24808W        W41069   9.340   9.993   3.906 -0.2810  0.0306  0.1840
24809W        W41070  14.625  17.529  12.237  0.0896  0.0015 -0.0677
24810W        W41071   9.099   7.864   4.051 -0.0525  0.0877 -0.3120
24811W        W41072   5.664   6.901   1.639 -0.0271 -0.0912 -0.0654
24812W        W41073   9.682   8.952   0.794 -0.4589 -0.0499 -0.1153
24813W        W41074   7.233  15.997   2.827 -0.1435 -0.2346  0.2402
24814W        W41075   3.713  13.326   5.622  0.0524 -0.1352 -0.3074
24815W        W41076  16.873  17.838   4.694  0.0755  0.1805 -0.2014
24816W        W41077   3.973  17.051   1.645 -0.0022 -0.0111 -0.2291
24817W        W41078   0.041  10.465   4.935  0.0987 -0.0350  0.0391
24818W        W41079  11.448  11.555  12.145 -0.1718  0.2787  0.2977
24819W        W41080  10.411  16.112   2.452  0.1847  0.2406  0.3480
24820W        W41081   7.116  18.552  11.737  0.1477  0.0234 -0.2160
24821W        W41082   1.588  16.168  14.615 -0.4455 -0.3007  0.0781
24822W        W41083   9.429   9.288   3.352  0.1748 -0.0213 -0.1029
24823W        W41084   5.523   4.815   3.176  0.2740  0.1416  0.0243
24824W        W41085   6.542   6.209   3.760  0.0725 -0.0011  0.1859
24825W        W41086   7.805  15.222   1.355 -0.2610 -0.1100 -0.1645
24826W        W41087   8.996   6.055   1.841  0.0205 -0.1728  0.2254
24827W        W41088  12.394  12.142   3.099 -0.0397  0.3998  0.0223
24828W        W41089  17.248   6.290   3.414 -0.1494 -0.0731  0.0456
24829W        W41090  10.238  10.818  10.434 -0.1321 -0.1908 -0.2668
24830W        W41091   4.329  10.917   0.963  0.2248  0.0595 -0.0924
24831W        W41092  18.631  15.741   2.117  0.4089  0.1282 -0.1831
24832W        W41093  15.329  13.097  11.950  0.0842 -0.1184 -0.1520
24833W        W41094  12.672   6.616   0.532 -0.4781  0.2088 -0.0780
24834W        W41095  15.818  12.082  11.947  0.0966 -0.1536  0.0456
24835W        W41096   5.428  17.590  10.531  0.1420 -0.0574  0.1051
24836W        W41097  14.000   5.619   5.020 -0.0664 -0.2115  0.1594
24837W        W41098  12.982   0.285   0.566 -0.2732  0.0229  0.0743
24838W        W41099  12.547   0.201  11.070 -0.2624  0.2096  0.1646
24839W        W41100  14.404  18.275   0.808 -0.0939 -0.2428 -0.2908
24840W        W41101  17.029   2.441  14.732  0.1005  0.0512 -0.0017
24841W        W41102   1.728   9.285  14.500 -0.0943 -0.2031  0.0238
24842W        W41103   8.706  17.996   2.390  0.1726  0.0855  0.5124
24843W        W41104  17.525   7.006   4.534  0.0598  0.1279  0.0383
24844W        W41105   2.479   7.226  14.359  0.1657  0.3162  0.0157
24845W        W41106   3.792   7.009   1.511  0.3753  0.1552  0.2344
24846W        W41107   2.885   0.914  14.005  0.1576  0.2627  0.1711
24847W        W41108  16.504   8.560  12.196  0.1958 -0.4214 -0.0013
24848W        W41109  17.523   3.862   4.671 -0.2040 -0.2290  0.0293
24849W        W41110   8.795   9.057   9.934  0.1451  0.0609 -0.1164
24850W        W41111  17.214  10.302  14.377 -0.0251 -0.0484 -0.0060
24851W        W41112  17.026   9.578  11.176 -0.4951  0.1057  0.1217
24852W        W41113   6.970   3.333  13.849 -0.1897 -0.1424 -0.2930
24853W        W41114  10.128   3.857   0.233 -0.2447  0.1239  0.0267
24854W        W41115   8.195  19.232  10.379 -0.1556 -0.0428 -0.0135
24855W        W41116   5.925  13.684  11.053 -0.3491  0.1435 -0.2279
24856W        W41117  16.556  17.630   8.913  0.0580  0.4623 -0.0636
24857W        W41118  12.617   7.729   4.408 -0.3375  0.0526 -0.2166
24858W        W41119  15.406  12.504  13.113 -0.0145  0.3727 -0.0287
24859W        W41120   2.724   4.707   3.730  0.4253  0.0806  0.1882
24860W        W41121   4.422   4.848   6.137 -0.2289 -0.0278 -0.2291
24861W        W41122  18.717   1.619   1.813 -0.1517  0.2991  0.1315
24862W        W41123   4.743   6.029  10.502 -0.1514  0.0817  0.2856
24863W        W41124  15.758   7.085   5.676 -0.2162  0.2259  0.1135
24864W        W41125   1.811  17.896  10.613 -0.3000  0.0741  0.1398
24865W        W41126   0.067   7.783   4.096 -0.0430  0.3159  0.0577
24866W        W41127   2.871  13.126  10.816 -0.4049  0.0997  0.0614
24867W        W41128   5.861   4.938  14.739  0.1295 -0.0488 -0.0302
24868W        W41129  18.165  18.335   0.867  0.2799 -0.0028 -0.3082
24869W        W41130   5.372   2.918   0.061 -0.0832  0.1835 -0.0129
24870W        W41131  11.196  13.407  14.129 -0.0538 -0.1365 -0.0362
24871W        W41132  10.315  10.830   3.155 -0.0306  0.0587 -0.0300
24872W        W41133  13.751   5.631  13.527  0.2611 -0.0088 -0.2061
24873W        W41134   8.560   4.220  11.767 -0.1213 -0.0324  0.0247
24874W        W41135  16.587   0.756  12.239  0.1713  0.0774  0.1640
24875W        W41136  13.424  17.899   2.113  0.3164 -0.0724  0.2127
24876W        W41137  17.165   7.686  13.676 -0.2148  0.0654 -0.2210
24877W        W41138   7.239   5.107   4.803 -0.3576  0.1341 -0.0494
24878W        W41139  12.383  12.486   0.401  0.4048 -0.0762 -0.0154
24879W        W41140   7.881  14.718  11.632  0.0516  0.1274  0.1004
24880W        W41141   3.047   4.914  11.796 -0.0411  0.1531  0.1490
24881W        W41142   7.273  15.400  12.203  0.2571  0.1367  0.1414
24882W        W41143  12.175  16.923   4.216  0.0049  0.1164  0.0368
24883W        W41144   2.982   4.385   0.210 -0.3267 -0.0979 -0.1037
24884W        W41145  13.050   8.570  13.668  0.0970 -0.2240 -0.1972
24885W        W41146  16.554  17.545   4.967 -0.2119 -0.1993 -0.0847
24886W        W41147  12.059  16.783  12.981 -0.1134  0.1745  0.0553
24887W        W41148  11.945   3.096  10.628  0.0038 -0.1667  0.1538
24888W        W41149   9.631  19.151   4.669 -0.2536  0.0674  0.0130
24889W        W41150  18.442  18.132   0.535 -0.1702  0.0762 -0.1119
24890W        W41151  11.459   9.216  14.170 -0.0232 -0.2509  0.5851
24891W        W41152  15.770   2.218   2.206 -0.0765 -0.2601  0.1157
24892W        W41153   4.131  15.674  10.803  0.3389  0.1735  0.2679
24893W        W41154  18.321   6.796   1.785  0.2217 -0.0821 -0.0168
24894W        W41155   4.517  19.280   2.499 -0.1497  0.0117 -0.1214
24895W        W41156  18.576   2.978  12.050  0.0057  0.2194  0.1611
24896W        W41157  14.290   4.518   4.165  0.0700  0.0011  0.0005
24897W        W41158  11.577   5.021  14.040 -0.2262 -0.4008 -0.2331
24898W        W41159   2.988   3.306  14.504 -0.2025  0.0110  0.3081
24899W        W41160   9.037   9.487  10.540  0.2036  0.1544 -0.0596
24900W        W41161   7.881   7.367   2.192 -0.0726  0.0497 -0.0857
24901W        W41162   0.642   5.213  12.318  0.0729  0.2767  0.0190
24902W        W41163  12.555  19.318  11.485 -0.2514 -0.2212  0.0896
24903W        W41164   4.801   6.989  14.714 -0.5014 -0.1773  0.1582
24904W        W41165   4.287  14.155  11.472  0.1878  0.1173 -0.0948
24905W        W41166  15.790  14.051  10.318 -0.1624  0.3630  0.2223
24906W        W41167  11.880   5.236   5.239  0.2282 -0.3086 -0.1639
24907W        W41168   8.527   5.192  14.744  0.0580 -0.1115 -0.1788
24908W        W41169   6.732   6.006   1.176  0.0336  0.2126  0.1678
24909W        W41170   9.524  10.905   9.065 -0.0445  0.0115  0.1930
24910W        W41171  14.495  11.943   2.102 -0.1720 -0.0146 -0.1117
24911W        W41172   8.518  12.259   0.780  0.0493  0.1712  0.0110
24912W        W41173   6.726   6.977   0.664 -0.6661 -0.0578 -0.1265
24913W        W41174   5.713  19.091  13.107  0.2335 -0.0463  0.1505
24914W        W41175   5.496   4.575   3.596  0.1202 -0.0531  0.2874
24915W        W41176   9.754  15.491   1.860 -0.0220 -0.0919 -0.1662
24916W        W41177   0.500   6.658  11.982  0.0503  0.3883 -0.1894
24917W        W41178   3.485   2.962   2.913 -0.0406  0.2388 -0.0263
24918W        W41179   2.199   3.019   4.418 -0.1901 -0.2410 -0.4726
24919W        W41180  15.322   3.190   2.049 -0.0519  0.1831  0.0527
24920W        W41181   9.567   7.032   4.774 -0.1918  0.2491 -0.0431
24921W        W41182   5.498   8.739  10.275  0.1709  0.1973 -0.1754
24922W        W41183  18.495  12.012  11.291 -0.0720  0.0578 -0.3038
24923W        W41184  18.149   4.367   5.048  0.1652 -0.1302 -0.1616
24924W        W41185  18.225  18.916   3.744 -0.0747 -0.1690  0.2068
24925W        W41186  17.856   3.256  12.480 -0.0016 -0.3353 -0.2575
24926W        W41187  17.558   7.844   2.160 -0.2749  0.1045  0.1575
24927W        W41188   3.658  12.221   5.490 -0.1918 -0.2029 -0.2773
24928W        W41189  11.195  14.056  10.704 -0.1059 -0.1314 -0.0284
24929W        W41190  12.237  16.430  14.337  0.0292  0.0907 -0.1306
24930W        W41191  19.105  10.690  13.214 -0.1077 -0.0924  0.1660
24931W        W41192  18.498  13.966  12.170  0.2736 -0.0988 -0.0871
24932W        W41193   4.271   9.179   1.615  0.0417  0.0448  0.0390
24933W        W41194   0.811  13.571   3.722  0.0672  0.0094  0.1284
24934W        W41195   1.638   4.339   3.749 -0.2068 -0.0784  0.3501
24935W        W41196   7.207   4.342  12.718 -0.1939 -0.0402  0.0978
24936W        W41197   8.118  16.870   4.230 -0.2677 -0.2279  0.2252
24937W        W41198  11.795  15.201  11.525 -0.0454  0.1093  0.2111
24938W        W41199   3.214   5.268  12.887  0.0952  0.2155 -0.0730
24939W        W41200  14.268  14.411   4.335  0.0226  0.1755 -0.0203
24940W        W41201   2.483  16.632  14.663  0.1627  0.2369 -0.4778
24941W        W41202   7.841   5.888   5.316 -0.1260  0.1206  0.1704
24942W        W41203  17.363   3.692  12.791 -0.2400 -0.3029 -0.0824
24943W        W41204  16.867  19.154  12.207 -0.1496 -0.2470 -0.0675
24944W        W41205   8.305  15.222  13.710 -0.0051  0.2548  0.4623
24945W        W41206   1.193   9.452   1.401 -0.3036 -0.0292 -0.1974
24946W        W41207   5.075   3.552   1.089  0.1842 -0.0543  0.1132
24947W        W41208  13.452  16.756   1.660  0.1192  0.3324  0.2105
24948W        W41209   2.786  11.229   1.665 -0.0610  0.2633  0.0722
24949W        W41210   7.380   7.287   1.249 -0.2701  0.2907 -0.2062
24950W        W41211  17.262   5.489   1.124 -0.0124 -0.2818  0.2096
24951W        W41212  14.244  17.856  14.312 -0.1559  0.3104 -0.0833
24952W        W41213   0.965  12.810   3.021 -0.0558  0.3646  0.0425
24953W        W41214   4.049   0.212  13.739 -0.1211  0.1745 -0.0579
24954W        W41215   5.198  10.463   0.241 -0.1990 -0.1729 -0.2739
24955W        W41216  15.750   7.758  12.694  0.4574  0.0555  0.2275
24956W        W41217   3.097   7.878   0.302  0.2602 -0.0061 -0.0689
24957W        W41218  15.072  13.328   9.776 -0.3568  0.0474  0.1048
24958W        W41219   3.827   9.769  13.285 -0.2691  0.2097  0.0065
24959W        W41220  14.525  19.209   3.637 -0.0794  0.1531 -0.0793
24960W        W41221  18.552   2.492   0.513 -0.2335  0.0664 -0.1516
24961W        W41222  10.387   4.508   2.816 -0.3543  0.0837  0.1372
24962W        W41223  17.296   3.457   0.491 -0.0329 -0.0052 -0.0579
24963W        W41224  11.772  14.438  12.619  0.1066 -0.1181 -0.1573
24964W        W41225  11.344   9.895  13.473 -0.2789 -0.0974 -0.2455
24965W        W41226  17.911  15.139   4.908 -0.2182 -0.0557  0.2799
24966W        W41227  11.108   8.716   0.622  0.4078 -0.1032 -0.0531
24967W        W41228  13.567   8.236  13.556 -0.6334 -0.0849 -0.0520
24968W        W41229  11.865  13.875   4.157 -0.1103 -0.1674  0.4088
24969W        W41230  13.870   2.700  14.012 -0.0833  0.1137  0.0995
24970W        W41231   9.357   1.077  14.362  0.0786  0.1919  0.2382
24971W        W41232   4.273   6.130  10.112 -0.3758 -0.0309  0.0198
24972W        W41233   7.350   4.912  13.639 -0.2156  0.0804 -0.0806
24973W        W41234   9.541   0.668   2.778  0.2008  0.0113 -0.0314
24974W        W41235   9.369  16.094  12.118  0.1846 -0.3982 -0.4733
24975W        W41236  16.003  13.736   9.961 -0.0213  0.0344  0.0942
24976W        W41237  18.124   9.772   1.729 -0.1151  0.0183  0.2280
24977W        W41238  15.655   6.304  10.930  0.1444 -0.0923  0.1361
24978W        W41239   3.036   6.393   0.524 -0.2298 -0.1020 -0.1286
24979W        W41240   1.777  14.862   0.118  0.0853 -0.0677 -0.1804
24980W        W41241   2.880  10.964   0.013 -0.1413  0.0670  0.1635
24981W        W41242   0.082  12.627   1.402  0.0563  0.3327  0.0375
24982W        W41243   3.394  18.009   3.909  0.0053  0.1947 -0.3884
24983W        W41244  15.541  14.143  14.580  0.0665  0.0801 -0.0077
24984W        W41245  10.383  13.449   1.902 -0.0482  0.0667  0.1952
24985W        W41246  15.752  17.165  11.768 -0.1897 -0.0759  0.0750
24986W        W41247   4.676   8.843  13.757 -0.3482 -0.1667 -0.0302
24987W        W41248   7.732  16.558  11.923 -0.0742 -0.0631 -0.0414
24988W        W41249  18.790   8.177   1.124  0.0157 -0.1796  0.3035
24989W        W41250  18.523  13.720  13.213 -0.0680 -0.1927 -0.0113
24990W        W41251   2.882  16.022  10.604  0.2013 -0.1046 -0.0161
24991W        W41252   3.534  15.650  12.126 -0.3840 -0.2686  0.0102
24992W        W41253  14.742   7.587  10.456 -0.1932  0.0484 -0.0799
24993W        W41254  19.243  15.898   1.523 -0.1058 -0.1286 -0.0835
24994W        W41255   9.030   7.306  13.014  0.1871  0.0948 -0.2960
24995W        W41256   6.460   2.537  14.165  0.1977  0.0807  0.0146
24996W        W41257   8.603  15.155   0.708  0.0267 -0.1452 -0.1943
24997W        W41258   5.757  19.044   3.116  0.0116 -0.1596 -0.1650
24998W        W41259  13.692   0.224  12.834 -0.0137  0.0264 -0.2649
24999W        W41260  14.271  11.841  13.869  0.4088 -0.0003  0.1520
25000W        W41261   5.485  13.195   2.635  0.1171  0.4506 -0.2106
25001W        W41262  11.830   8.938   1.705 -0.5084  0.1593 -0.0554
25002W        W41263  19.418  17.882  10.280  0.2223 -0.0907  0.0009
25003W        W41264  12.370  12.621  12.735  0.1595 -0.2405  0.0261
25004W        W41265   6.244  15.840   3.510  0.0289  0.1274 -0.1063
25005W        W41266  13.160  18.280  12.833 -0.0719  0.1997  0.0010
25006W        W41267   7.901   5.814   9.708 -0.5248  0.0479 -0.1538
25007W        W41268   2.829   3.239   0.634 -0.0665  0.1701  0.0938
25008W        W41269   7.442  13.401  14.662  0.1184 -0.0808  0.1988
25009W        W41270   0.416   0.220   3.279  0.0648 -0.0508  0.0284
25010W        W41271   4.155   3.137  14.357 -0.0280 -0.1542 -0.2097
25011W        W41272   4.759   9.682   0.994 -0.3118 -0.1417 -0.4569
25012W        W41273   0.686   4.796   1.954 -0.0942 -0.0691 -0.3066
25013W        W41274  19.275  10.709   2.385  0.1362  0.0204 -0.0139
25014W        W41275  11.907   5.799  12.333  0.1294 -0.2220 -0.2736
25015W        W41276  12.802  15.827  10.043  0.2068  0.2880 -0.3087
25016W        W41277   9.121  19.307  12.357 -0.1341  0.0118 -0.2265
25017W        W41278   5.595  13.870   4.308 -0.1505 -0.2347  0.2083
25018W        W41279  18.896   8.066  14.298 -0.3059 -0.0634  0.0832
25019W        W41280   7.194  11.584  14.555 -0.2465 -0.1348  0.3024
25020W        W41281  16.837   9.651  13.243 -0.0433  0.0844  0.0293
25021W        W41282   0.403  11.746   3.146  0.1216  0.0848  0.2885
25022W        W41283   9.466   8.522   2.918  0.2332 -0.0101  0.3342
25023W        W41284   9.709  11.403   3.488 -0.1685 -0.2671  0.0115
25024W        W41285  12.871   0.196   4.572 -0.0462  0.0115  0.0754
25025W        W41286  16.037  15.621  13.816  0.0352 -0.2017  0.1363
25026W        W41287  10.969   2.490   2.635  0.2636 -0.1140 -0.0824
25027W        W41288   3.042  11.659   3.408 -0.2676  0.1623 -0.2342
25028W        W41289  13.583   3.891   0.134  0.0467 -0.0326 -0.1449
25029W        W41290   7.770  11.977  11.478 -0.0738  0.2398 -0.0977
25030W        W41291   9.249   1.867  14.753  0.2864 -0.0295 -0.2380
25031W        W41292   8.387  17.964  11.312 -0.1965  0.1347 -0.0316
25032W        W41293  15.826  12.982  12.106 -0.0005  0.2801 -0.1351
25033W        W41294   8.983  14.474   0.181  0.0495  0.2610  0.0491
25034W        W41295  16.091  18.906   2.662 -0.0974  0.0355  0.3781
25035W        W41296  19.447   8.999   0.307  0.0522  0.2477 -0.1907
25036W        W41297   5.290  19.265   3.011 -0.2335 -0.0395 -0.2411
25037W        W41298   7.062   0.497   1.453 -0.2345  0.0107 -0.1876
25038W        W41299  18.758  18.970   0.151 -0.1846  0.1928 -0.1611
25039W        W41300  14.584   1.370  11.410  0.0020 -0.0923  0.2684
25040W        W41301   1.232  10.182  10.047 -0.1620 -0.2099  0.2668
25041W        W41302   9.880  13.382  11.969 -0.0636 -0.2476  0.0176
25042W        W41303  11.159   3.811   0.701 -0.1514  0.0833  0.0634
25043W        W41304   3.251   5.920   4.201  0.0582  0.1417 -0.1964
25044W        W41305   5.270  16.945   1.166 -0.0373  0.1151 -0.1696
25045W        W41306   7.402  18.410   3.945  0.2012  0.1496  0.2507
25046W        W41307  18.704  18.641   1.817  0.4864  0.3216 -0.1054
25047W        W41308  14.886  17.236  12.830 -0.1104  0.2812 -0.0149
25048W        W41309   5.909  12.449  11.412 -0.1772 -0.1277 -0.1069
25049W        W41310   3.618  10.423   4.134 -0.0956 -0.0097  0.1527
25050W        W41311   4.440   9.346  13.639  0.3591 -0.0223 -0.0040
25051W        W41312   4.531   1.669  14.407  0.0741  0.2680  0.0309
25052W        W41313   5.678   3.708   2.286  0.3292 -0.3592 -0.0474
25053W        W41314  15.874   6.779  14.150  0.0486 -0.2443 -0.1170
25054W        W41315   0.319  17.917  11.448 -0.1264 -0.1543 -0.1150
25055W        W41316   8.642   8.830   2.231 -0.1155  0.0329  0.0433
25056W        W41317   5.211  16.719   0.064  0.0626  0.1559  0.0590
25057W        W41318   3.950  10.585   3.728 -0.0955  0.0141  0.1003
25058W        W41319  18.305   1.806   2.012 -0.0862 -0.0166  0.2026
25059W        W41320  10.034   6.007  14.220 -0.0525  0.1524 -0.1863
25060W        W41321   7.725  18.955  10.507 -0.3332  0.0974  0.2089
25061W        W41322   3.860  16.424  14.738 -0.1971 -0.1835  0.2187
25062W        W41323  18.320   1.069  12.534 -0.1312 -0.1206 -0.0119
25063W        W41324   0.532  11.179  13.081 -0.2217  0.1968  0.0236
25064W        W41325  15.867  18.724   4.570  0.0796  0.3787 -0.1834
25065W        W41326   0.419   1.967   1.805  0.0015 -0.0987  0.1639
25066W        W41327  17.644  13.601  12.517  0.0396 -0.2769  0.1112
25067W        W41328   6.506  10.444   4.840  0.1796  0.1778  0.0918
25068W        W41329   6.616   1.461   1.889 -0.2632  0.2268 -0.0886
25069W        W41330   0.464  19.207   3.565 -0.0031  0.0018  0.0237
25070W        W41331   5.992  13.215  13.526 -0.0746 -0.2883  0.0808
25071W        W41332  17.548   6.446  13.757 -0.1819 -0.0657 -0.1981
25072W        W41333  17.275  16.499   4.327  0.0678 -0.0499  0.0182
25073W        W41334   5.117   9.232  14.742 -0.1582 -0.1874  0.4299
25074W        W41335  13.357  12.867  12.896 -0.2012  0.1738 -0.0875
25075W        W41336   6.640   8.288  12.437  0.2478 -0.0381  0.2459
25076W        W41337   7.931   4.291  14.062 -0.0892 -0.0883  0.1909
25077W        W41338  18.375   2.629  13.234 -0.1563 -0.0876  0.0180
25078W        W41339   2.974  18.388  13.472  0.0424  0.2001 -0.0508
25079W        W41340   2.117   2.043  10.203 -0.1844  0.3939  0.3873
25080W        W41341   2.750  15.602   4.465 -0.1331  0.2932  0.1558
25081W        W41342  15.617  17.202  11.252 -0.0602  0.0033 -0.1715
25082W        W41343  18.715   3.288   4.224  0.2483  0.3625 -0.1145
25083W        W41344   9.529  15.957   1.709  0.1130  0.0355  0.0182
25084W        W41345  15.084   8.636   0.192  0.3529  0.0073 -0.1286
25085W        W41346   3.307   3.175  11.962 -0.1992  0.0073  0.0369
25086W        W41347  19.361  17.142   0.026 -0.0395 -0.0074 -0.0226
25087W        W41348  18.900   7.775   5.103  0.2170  0.3857 -0.0735
25088W        W41349   5.255   0.308   1.482 -0.6017 -0.2429  0.3165
25089W        W41350   0.628   7.748  10.873 -0.0681  0.1335 -0.1611
25090W        W41351   9.696   6.555   4.362 -0.0674  0.2790  0.3375
25091W        W41352   3.582  11.586  12.637 -0.2000 -0.2840  0.4057
25092W        W41353   1.734  14.619  13.669 -0.1228 -0.1347 -0.0502
25093W        W41354   5.132   1.395   3.002  0.0828  0.0029  0.1659
25094W        W41355   4.051  16.092  13.569 -0.2106  0.1219  0.1254
25095W        W41356   6.971  16.945   3.593 -0.0177  0.2728 -0.0650
25096W        W41357   9.047  11.442   0.801  0.0822  0.1675 -0.2985
25097W        W41358  12.205  19.083   0.048 -0.0104 -0.0820 -0.2121
25098W        W41359   4.976   0.111  13.621  0.1789  0.1548 -0.2242
25099W        W41360   7.879   5.880   0.382 -0.3634 -0.1976  0.2200
25100W        W41361   2.789   0.864   1.094  0.0054  0.1918  0.4840
25101W        W41362  11.730   8.888  13.969 -0.0910  0.0182  0.0204
25102W        W41363   5.826   4.017   4.916  0.0599 -0.2075  0.0435
25103W        W41364  17.409  15.921  12.208 -0.0476 -0.1396 -0.1205
25104W        W41365  11.581  14.656  10.573 -0.2519 -0.3785  0.0754
25105W        W41366  13.049  19.391  10.321 -0.0703 -0.1014  0.3248
25106W        W41367   3.145   3.894  12.835  0.1323  0.2076  0.1861
25107W        W41368   8.833  10.923   2.145 -0.0268 -0.2643  0.1133
25108W        W41369   1.239   3.842  10.845  0.0210 -0.1054 -0.1202
25109W        W41370  15.352   7.470  10.149  0.0257 -0.1451 -0.1926
25110W        W41371  12.172  12.170   2.193 -0.0024 -0.2010 -0.4045
25111W        W41372  18.804   5.142   5.221  0.1250 -0.1007 -0.0824
25112W        W41373   1.984   6.703   1.138 -0.0239  0.1660 -0.2630
25113W        W41374   8.274  15.997   9.448  0.2680 -0.2567 -0.1888
25114W        W41375   7.146   3.606  14.643  0.0574  0.2794  0.0120
25115W        W41376   7.176  18.177  10.684  0.0659 -0.0525  0.0258
25116W        W41377  17.191  13.823   0.031  0.3411 -0.0487  0.3421
25117W        W41378  19.341  16.820  13.141 -0.1944 -0.2387  0.0791
25118W        W41379  16.844  18.400  14.174 -0.2246 -0.0196  0.0691
25119W        W41380  10.712  14.017   1.637  0.1452 -0.4438 -0.3120
25120W        W41381  15.758  15.102  11.232  0.2067  0.0625 -0.6179
25121W        W41382  11.611   8.869  10.971 -0.1498 -0.2329  0.0957
25122W        W41383   3.829  15.326   2.892 -0.4255 -0.2875 -0.2579
25123W        W41384  18.942  17.777   3.021 -0.2338 -0.0174 -0.1816
25124W        W41385  10.633  11.528   1.498  0.0666 -0.1680 -0.0385
25125W        W41386  12.237  15.531  13.846 -0.0132  0.2679 -0.0067
25126W        W41387  14.621  13.246   1.597 -0.0915  0.1985 -0.1601
25127W        W41388  14.592   8.102   4.707 -0.2208 -0.1838  0.1697
25128W        W41389   7.676   0.334   3.072  0.1494 -0.1841 -0.1052
25129W        W41390  15.895  13.740   0.804 -0.0028 -0.1087 -0.1848
25130W        W41391  13.818   2.721   0.660  0.2245 -0.3173 -0.0569
25131W        W41392   2.542  19.008   0.111 -0.1445  0.2831 -0.0109
25132W        W41393  11.555   7.130  12.029  0.0639  0.0406  0.0859
25133W        W41394  11.599  14.635   0.685  0.3378  0.0416  0.1074
25134W        W41395   4.437  17.271   4.483  0.0500  0.0467 -0.1492
25135W        W41396  15.578  11.273   3.132  0.1825 -0.0171  0.3104
25136W        W41397   8.541  12.638   9.436 -0.0441 -0.1605 -0.1944
25137W        W41398  15.842  17.542   1.176  0.0199 -0.2194  0.0747
25138W        W41399   1.452   3.057  12.189  0.0449  0.3820  0.4753
25139W        W41400   4.065  13.934   0.722 -0.0197  0.1889 -0.2749
25140W        W41401  15.744  11.839   1.294  0.0107  0.0690 -0.0379
25141W        W41402   7.106  15.321   4.515 -0.1672  0.0671  0.2414
25142W        W41403  14.628  17.580  14.459  0.0742  0.4285 -0.0888
25143W        W41404  10.821  18.022  11.015 -0.1443  0.0513 -0.1101
25144W        W41405   3.970  18.725  13.843 -0.1400  0.5741  0.2557
25145W        W41406   4.655   9.689  11.295  0.1925 -0.0382  0.1994
25146W        W41407   2.584   7.854   4.678  0.0303 -0.0161 -0.2905
25147W        W41408   9.917  15.441  11.545  0.3666 -0.2459  0.0775
25148W        W41409  12.666   4.337   0.189  0.0007  0.0932  0.0710
25149W        W41410  10.713   4.350   3.367 -0.2426 -0.1334 -0.2638
25150W        W41411   0.745  16.080   0.693  0.1536  0.1484  0.1648
25151W        W41412   0.974   9.175   0.121 -0.0466 -0.1120 -0.1357
25152W        W41413  16.329   2.705   2.858 -0.3589 -0.0984  0.0532
25153W        W41414   8.594  10.057   5.080  0.0262 -0.0608 -0.1388
25154W        W41415   1.864   3.350  14.605 -0.4159 -0.2000 -0.1648
25155W        W41416   5.401   8.211  13.779 -0.0100 -0.1126 -0.0091
25156W        W41417   6.538   1.668   4.681 -0.2954  0.2975 -0.3625
25157W        W41418   4.549  11.065   5.024 -0.0665 -0.3306  0.1431
25158W        W41419  19.020   7.754   0.392  0.1076  0.1767  0.2400
25159W        W41420  11.834   0.225   4.863  0.4434  0.3040 -0.0609
25160W        W41421   3.098   3.687   0.759 -0.0989  0.0913  0.0413
25161W        W41422  11.253   5.032   1.976  0.0110  0.0939  0.0629
25162W        W41423  10.729  17.582   4.645  0.2525  0.3173 -0.0028
25163W        W41424   1.154  10.247   0.173 -0.2150  0.0138  0.3457
25164W        W41425  13.180  15.506   9.925  0.0591 -0.1277 -0.2488
25165W        W41426  16.714  11.506  10.104  0.1786  0.2559  0.5610
25166W        W41427   0.598  12.484   2.357  0.0919  0.0578  0.4062
25167W        W41428  12.491  15.622   4.262 -0.2119  0.0507 -0.2930
25168W        W41429   3.037   0.142   0.543 -0.2533  0.1103  0.1375
25169W        W41430  15.433   8.757  13.836 -0.5600  0.2624 -0.2144
25170W        W41431  16.832  17.179   1.144  0.0145 -0.5926 -0.1898
25171W        W41432  18.220  11.613  11.538  0.0783 -0.0728 -0.0466
25172W        W41433  15.837   0.493  13.095  0.3268  0.1286 -0.1637
25173W        W41434  17.220  17.592  14.799 -0.0028  0.0683 -0.0737
25174W        W41435  19.071  18.848   3.028  0.1815 -0.3060 -0.0759
25175W        W41436   8.633  18.839   4.107 -0.0329  0.0502 -0.1047
25176W        W41437  10.257   5.084  14.813  0.1742 -0.0608 -0.1302
25177W        W41438  18.621   6.496   3.136  0.1765  0.0103  0.0102
25178W        W41439   7.217  12.120   2.072 -0.0823 -0.2262  0.0097
25179W        W41440  10.999   0.414   3.845  0.2037  0.0625  0.4002
25180W        W41441  19.396  14.320   0.429 -0.0600  0.2985  0.0098
25181W        W41442  16.742   5.888   3.331 -0.0091 -0.2190  0.0086
25182W        W41443  17.919  18.869  13.446 -0.0134  0.0400 -0.4799
25183W        W41444   9.986   5.897  11.094  0.1425  0.0039 -0.0348
25184W        W41445   8.499  16.090  12.307 -0.0519 -0.2056  0.3380
25185W        W41446  11.348  15.566   3.508 -0.5185 -0.1054 -0.1266
25186W        W41447   3.749  14.949   1.928 -0.0990 -0.3675 -0.0142
25187W        W41448  18.854  10.726  10.592  0.0764  0.0716 -0.2508
25188W        W41449   1.056  16.803   4.069 -0.0607  0.0521 -0.1968
25189W        W41450  13.254   9.332  13.266  0.0092  0.0874 -0.1935
25190W        W41451  18.277   9.923   4.525 -0.1631 -0.0574 -0.0359
25191W        W41452   2.079  17.886  13.509  0.2661  0.0187  0.0322
25192W        W41453  14.362  19.108  11.839 -0.2158  0.0831  0.0386
25193W        W41454  15.315  12.600  10.004  0.1320  0.2118 -0.0211
25194W        W41455   2.010  13.753   1.963  0.0341  0.1716 -0.1467
25195W        W41456   4.843  14.113  13.199 -0.1543  0.1005 -0.3741
25196W        W41457   7.814  18.902  14.503 -0.0601 -0.5426 -0.0282
25197W        W41458  12.243   7.212   2.844 -0.0728  0.1570 -0.2483
25198W        W41459  10.423  17.662  11.933  0.1032 -0.1101  0.3549
25199W        W41460   8.966  17.443   3.855  0.1503  0.3385 -0.0739
25200W        W41461   1.672  15.322   2.456 -0.2587 -0.2581 -0.1253
25201W        W41462  13.233  13.181  14.634 -0.2720  0.2024 -0.2329
25202W        W41463   0.722  11.221   2.410 -0.4016 -0.0449  0.2218
25203W        W41464  13.237   2.474  12.083 -0.1480 -0.1537  0.4477
25204W        W41465   6.457  11.955   0.114  0.1051 -0.1948 -0.4661
25205W        W41466  10.934   9.591   4.377 -0.2043 -0.1639  0.3015
25206W        W41467   6.561  18.360   0.882  0.0749  0.0578  0.2239
25207W        W41468   2.181   7.267   0.335  0.3424 -0.2397 -0.0803
25208W        W41469   6.793   2.997   0.846  0.1006  0.2444  0.1197
25209W        W41470   5.824   2.251   4.287  0.1001  0.0581 -0.3587
25210W        W41471   1.165   4.944  10.495  0.2569 -0.3132 -0.2760
25211W        W41472  14.459  14.914   2.183 -0.1527  0.3082  0.1599
25212W        W41473  17.326   1.921  14.182 -0.1994 -0.3899 -0.3404
25213W        W41474   6.266  10.723  12.123 -0.0402 -0.0130  0.2666
25214W        W41475  15.745   0.305   1.729  0.5671 -0.1688  0.1409
25215W        W41476   2.554   6.952   1.692  0.0541 -0.1409 -0.2838
25216W        W41477  18.829  13.828  13.766 -0.1897 -0.0055  0.0502
25217W        W41478   7.966  11.282  12.295 -0.2464 -0.0259  0.4028
25218W        W41479   8.301   6.374  14.335 -0.1187 -0.1143  0.1635
25219W        W41480   7.229   7.261  12.902 -0.2997 -0.1098  0.2455
25220W        W41481  16.103   5.253   0.194 -0.1038  0.1062  0.2132
25221W        W41482  14.472  13.792  10.696  0.0191 -0.0692  0.2672
25222W        W41483   4.919  11.334  12.374  0.4023 -0.1514  0.0191
25223W        W41484  10.892  12.553   1.498 -0.0490 -0.0161 -0.1444
25224W        W41485   3.478  12.598  13.669  0.2431 -0.2347 -0.1011
25225W        W41486   2.090   8.950   0.352  0.2513  0.1380 -0.0251
25226W        W41487   7.954  11.557   4.656  0.0110 -0.1094 -0.1157
25227W        W41488   1.223  13.101   4.031  0.2091  0.3499 -0.1177
25228W        W41489  10.347   3.418  14.073  0.0194  0.0785 -0.1145
25229W        W41490   9.982   2.320   2.459  0.2293 -0.1180 -0.2533
25230W        W41491   5.351   4.881  12.432  0.0278  0.3102  0.1633
25231W        W41492   7.423  15.570  10.063  0.0128  0.0495 -0.0872
25232W        W41493  14.420   6.254  13.638  0.0697  0.2053 -0.2166
25233W        W41494   5.984   9.029   2.918 -0.1619  0.1177 -0.1642
25234W        W41495  16.020   7.093  12.584  0.0913  0.3599  0.0564
25235W        W41496   8.906  10.252   1.216 -0.1518  0.1141 -0.3418
25236W        W41497  15.803   4.287   4.599  0.3013 -0.3874  0.2075
25237W        W41498   0.993   7.476  14.750 -0.2534 -0.0778  0.0326
25238W        W41499   0.490  14.506   0.449  0.0307 -0.1448  0.1366
25239W        W41500   7.321   5.663  11.845 -0.0003  0.0496  0.0696
25240W        W41501  14.071  10.420   4.287  0.2777 -0.2224 -0.0531
25241W        W41502  16.983   7.770   3.978 -0.0256 -0.4576  0.1503
25242W        W41503  11.532  12.727  14.424  0.2735  0.2185 -0.0548
25243W        W41504  15.067  19.030   1.803  0.0721 -0.0388 -0.2283
25244W        W41505  16.160   2.707  10.612 -0.2920  0.1312 -0.6424
25245W        W41506   6.603   4.462   0.982 -0.3861 -0.0706 -0.1764
25246W        W41507  11.665  14.682  12.139 -0.0659 -0.2009 -0.2295
25247W        W41508   4.897  19.044   5.523  0.1825  0.2875 -0.2440
25248W        W41509  16.992  11.838  13.638  0.3694 -0.0258 -0.1137
25249W        W41510   5.454   9.567   3.757  0.1006  0.1396 -0.1732
25250W        W41511   9.083  18.619   3.983  0.2818  0.2013 -0.0672
25251W        W41512   8.965   7.254   2.741  0.2167  0.1354  0.0300
25252W        W41513   1.428  13.752  13.268  0.3914 -0.0439 -0.4475
25253W        W41514   8.625  16.151   4.561  0.0125 -0.1346  0.0691
25254W        W41515   6.506  12.186   4.247  0.2744  0.1216  0.0242
25255W        W41516  11.290  14.179  13.958  0.0272  0.0353 -0.0867
25256W        W41517  15.218   3.694  12.167 -0.3375  0.3653 -0.0695
25257W        W41518  16.028   3.199   3.760  0.0555 -0.0117 -0.1321
25258W        W41519  18.529  10.491   2.639  0.1127 -0.2439  0.0016
25259W        W41520   6.088  13.363  14.039  0.0542  0.0078 -0.0554
25260W        W41521   8.764   4.078   3.254 -0.1185  0.1732 -0.1198
25261W        W41522  15.543   3.537   3.482 -0.1181 -0.0774 -0.0159
25262W        W41523   5.697  17.173   2.383 -0.0372 -0.5068 -0.1003
25263W        W41524  18.860   7.611   2.746  0.1545  0.0713 -0.2744
25264W        W41525   8.379  10.373   4.719 -0.1307  0.0131  0.3250
25265W        W41526   2.476  12.873  12.346  0.3128 -0.0914  0.0148
25266W        W41527  16.193   7.129   1.207  0.2954  0.2302  0.2975
25267W        W41528   7.864   3.144   4.770  0.1119 -0.3451 -0.0890
25268W        W41529  16.578   7.928  11.997 -0.2309 -0.1817 -0.2109
25269W        W41530   4.570  13.917  11.053  0.3861 -0.0055  0.1232
25270W        W41531  16.137   0.229  13.924 -0.0959 -0.0540  0.1849
25271W        W41532   3.872   1.657   5.108  0.0679 -0.1793  0.3398
25272W        W41533   5.975  12.361  13.994  0.1150 -0.1087 -0.0736
25273W        W41534   4.026  16.874  14.676 -0.2656  0.0841 -0.1015
25274W        W41535   9.419   4.485   2.847  0.1414 -0.1851 -0.0810
25275W        W41536  15.358   3.362   5.782 -0.2260  0.0558 -0.0310
25276W        W41537  12.158   8.714   4.044  0.0750  0.0376 -0.0105
25277W        W41538  18.372   1.444   4.360 -0.2403  0.3765 -0.0842
25278W        W41539   0.756   5.903  11.262  0.1334 -0.0529  0.0400
25279W        W41540   1.389   7.447   9.941 -0.0055 -0.1680 -0.0928
25280W        W41541  19.421  14.137   1.748 -0.0797  0.2294  0.1174
25281W        W41542  19.189  12.707   0.854 -0.3413  0.0330  0.1694
25282W        W41543   1.273  10.961  10.600  0.0566 -0.0951 -0.0924
25283W        W41544   5.443   2.281  13.801  0.0292 -0.0213  0.0557
25284W        W41545   3.363   9.960   0.274  0.2879 -0.1017  0.1321
25285W        W41546   4.297   9.433   0.743  0.4172  0.0066 -0.0843
25286W        W41547  14.004   4.455   3.716 -0.0161  0.2046 -0.0149
25287W        W41548  14.543  17.545   0.944 -0.3758 -0.0403  0.4016
25288W        W41549  15.090   9.520  12.824  0.3865  0.0042 -0.0719
25289W        W41550  11.257   8.429   4.249  0.1345 -0.2184  0.1794
25290W        W41551  16.646   9.412  11.529  0.3275 -0.2095 -0.3007
25291W        W41552  15.058   4.426   3.763  0.1508  0.1958  0.2746
25292W        W41553   7.699   8.961   4.350  0.0970  0.1612  0.3417
25293W        W41554   1.876   2.016   1.377 -0.1887  0.1028  0.3199
25294W        W41555   6.210   8.785   0.129  0.0077  0.1704 -0.2099
25295W        W41556   3.893   2.712   2.383 -0.0245 -0.1844 -0.0324
25296W        W41557  10.639   2.335   1.575 -0.0451  0.3812  0.1549
25297W        W41558   7.079   4.131   1.738  0.2285 -0.0924 -0.1666
25298W        W41559   1.025  11.581   2.750 -0.1624 -0.0100  0.0374
25299W        W41560  14.494   8.257   0.593  0.2149 -0.1088  0.1632
25300W        W41561   9.920  10.479   5.355 -0.0604  0.2196 -0.1021
25301W        W41562   8.733   8.842  14.353  0.1367  0.1331  0.1872
25302W        W41563   2.473  16.501  12.490  0.1446 -0.3218  0.0171
25303W        W41564  19.342   3.092   0.291  0.1697  0.2724 -0.1159
25304W        W41565  14.000   0.980   2.932  0.3298 -0.3165  0.2393
25305W        W41566   3.080   5.525  13.790  0.2195 -0.2470  0.2390
25306W        W41567  12.522  16.221  11.449  0.1223  0.1175 -0.0609
25307W        W41568  13.634  10.457  11.411  0.0869 -0.1290 -0.1852
25308W        W41569   1.974   2.542   3.293  0.1121  0.1460 -0.2543
25309W        W41570  13.902  16.528   3.411 -0.1666  0.2934 -0.0881
25310W        W41571   2.576  19.388   0.735 -0.2842 -0.1786  0.0937
25311W        W41572   2.913   7.294   1.465  0.0654  0.2834 -0.4034
25312W        W41573   6.069   3.631  12.453  0.0510  0.0610  0.0654
25313W        W41574  10.388   1.538   0.762  0.3818 -0.1991  0.0591
25314W        W41575   1.682  18.125  13.722 -0.3070 -0.0189  0.0314
25315W        W41576   4.860   8.118  13.845  0.3771  0.1994  0.1826
25316W        W41577  13.804  18.972   0.536 -0.2294 -0.1256  0.1654
25317W        W41578   2.283  12.371  12.332 -0.0797 -0.0824 -0.1460
25318W        W41579  18.058  17.117   4.266  0.0338  0.1027 -0.4848
25319W        W41580  15.502  18.380  11.531  0.0916 -0.0365  0.1411
25320W        W41581   9.269  15.511   4.751  0.0036 -0.0784  0.2523
25321W        W41582  14.776   3.115  14.801  0.0398 -0.0638  0.1616
25322W        W41583  11.585  10.061   3.915 -0.1875 -0.0227  0.1180
25323W        W41584   0.297   5.246  14.312  0.1298 -0.5001 -0.0732
25324W        W41585   5.108  13.836  11.276  0.2663  0.5076  0.1883
25325W        W41586   1.216  11.160  13.639  0.0418  0.3454 -0.1081
25326W        W41587   4.863  13.279   0.641  0.2620 -0.0796 -0.2682
25327W        W41588  17.615  17.192  14.204 -0.2506 -0.1338  0.1457
25328W        W41589   3.291  17.663   3.043 -0.1142 -0.1175 -0.1498
25329W        W41590   5.848  15.570   5.382  0.1200  0.3920  0.0903
25330W        W41591   9.670   4.900  12.986 -0.0937 -0.0913  0.0546
25331W        W41592   4.936   1.826   4.133 -0.0264  0.2187 -0.2560
25332W        W41593   1.745  16.050   3.000  0.0589  0.4340  0.0889
25333W        W41594   9.522  15.643   2.685  0.0906  0.0839  0.3532
25334W        W41595   7.345  14.095  12.432  0.0072 -0.2105  0.0712
25335W        W41596   6.927   8.397   2.412 -0.1609  0.0550  0.0219
25336W        W41597  19.131  16.958   4.996  0.0251  0.4176 -0.3019
25337W        W41598   6.446  13.523   3.143 -0.0961  0.2449  0.3295
25338W        W41599   0.872   6.088   1.556  0.0330  0.2018 -0.2155
25339W        W41600   2.093   5.432  13.773  0.0130  0.1060 -0.1300
25340W        W41601   6.719  14.681   2.510  0.1395  0.1398 -0.1268
25341W        W41602  13.063   0.919  13.072 -0.1136  0.0378 -0.0086
25342W        W41603  19.360   4.591  12.373 -0.1434  0.2223 -0.0120
25343W        W41604   3.137   0.805  12.535 -0.3098  0.2567 -0.2866
25344W        W41605   1.488   1.582   1.099  0.3968 -0.1047  0.2085
25345W        W41606   9.714   5.810  12.071 -0.1208  0.4265 -0.0861
25346W        W41607   5.994   9.868   2.189 -0.0578 -0.1456 -0.1660
25347W        W41608   0.038  16.250   1.789 -0.1616 -0.0948  0.1281
25348W        W41609   3.178  13.985   2.993 -0.1466 -0.0480  0.2601
25349W        W41610   5.295   5.156  14.781 -0.2089 -0.0239  0.0165
25350W        W41611   8.056   0.402  13.865  0.2381  0.2517 -0.3005
25351W        W41612  12.662   0.668  11.267 -0.2321 -0.0913 -0.3260
25352W        W41613   6.015   3.156  12.305  0.1583 -0.1893 -0.1542
25353W        W41614  10.964   0.379  12.227  0.1209 -0.4266 -0.2855
25354W        W41615   8.956   6.621  13.453 -0.1194  0.2017  0.2296
25355W        W41616   2.955   8.775   0.712 -0.1131  0.1657  0.1202
25356W        W41617  11.057  17.394   1.778  0.1428 -0.0771 -0.2121
25357W        W41618  10.784  17.531  10.656 -0.0562 -0.0075  0.3148
25358W        W41619   4.997   7.069  11.121  0.0878  0.0807 -0.1981
25359W        W41620  15.675   9.908   1.004 -0.2543  0.0758 -0.0494
25360W        W41621  11.908   7.363   0.298  0.4855 -0.0046 -0.2809
25361W        W41622  14.058   6.949  14.827 -0.0005  0.2224 -0.1401
25362W        W41623   3.543   9.859   2.359  0.3146  0.0675 -0.1447
25363W        W41624   6.138  13.430  12.373  0.2702 -0.1103  0.0225
25364W        W41625  11.417  11.747   1.110  0.2836 -0.1266 -0.0168
25365W        W41626   2.586   4.629   4.688 -0.2959  0.4178 -0.3575
25366W        W41627   8.608  13.095   2.014  0.1254 -0.2263  0.2616
25367W        W41628  10.115   7.046   3.289  0.0357  0.1097 -0.1659
25368W        W41629  17.941   4.573   3.572  0.0447 -0.0224 -0.1999
25369W        W41630  13.194  14.496  13.957  0.1426 -0.0169 -0.1405
25370W        W41631   3.868   8.026   3.520 -0.1906 -0.4374  0.1136
25371W        W41632   0.201  15.315   3.120  0.0424 -0.0212 -0.0217
25372W        W41633  13.790   2.153  11.874  0.1951 -0.3955 -0.1234
25373W        W41634  10.546  11.477  12.752 -0.0616 -0.0870  0.1903
25374W        W41635   8.935   8.924  13.899 -0.2416  0.2791  0.1545
25375W        W41636  19.391   3.207  12.150  0.5336  0.1116  0.2213
25376W        W41637   6.429   9.574   2.240  0.0207  0.0269  0.0274
25377W        W41638  15.422   7.103  10.531  0.2204 -0.0664  0.0027
25378W        W41639   6.204   9.122  10.459 -0.2811 -0.2898  0.2363
25379W        W41640   8.126   3.580   1.132  0.0673 -0.2455 -0.2207
25380W        W41641  14.702   4.176  11.010  0.4131  0.2080 -0.0988
25381W        W41642   9.046  16.917   2.367  0.1439  0.2952  0.2773
25382W        W41643   5.952   8.578  12.933 -0.2795 -0.0128 -0.4572
25383W        W41644   5.539  15.219  11.627  0.0192  0.1000 -0.0614
25384W        W41645   1.268  15.581   2.413  0.0720  0.0571 -0.2047
25385W        W41646  13.231   2.191  11.682 -0.2110  0.0013  0.0353
25386W        W41647  18.936   5.616  13.989 -0.0339 -0.1386  0.0107
25387W        W41648   9.310  10.656  11.816  0.0624 -0.0369  0.0281
25388W        W41649  16.993  14.718  12.136 -0.1449 -0.2047 -0.2846
25389W        W41650   8.638  17.238   1.756 -0.0701  0.2277  0.0222
25390W        W41651   6.630   6.165  14.212 -0.0199  0.0501  0.0681
25391W        W41652   0.548  19.435  13.850  0.2650  0.0386 -0.0589
25392W        W41653   3.358  11.356  11.621 -0.0009 -0.2549  0.1295
25393W        W41654   1.508  16.223  10.845 -0.1129 -0.1506 -0.2079
25394W        W41655   7.460  14.393   3.510 -0.2950 -0.3517 -0.0626
25395W        W41656   0.406   6.624   3.783  0.0649 -0.3305  0.0485
25396W        W41657  12.878  16.843   1.610 -0.3465 -0.2111 -0.2137
25397W        W41658   7.654  16.045   3.709 -0.1882  0.4810  0.1165
25398W        W41659   0.055  12.687  11.279 -0.0228  0.1107 -0.1649
25399W        W41660   3.330   2.969   5.163  0.0745 -0.0319 -0.2530
25400W        W41661  16.568   2.346  12.383  0.0734 -0.0144  0.1347
25401W        W41662  17.417   2.339   2.384 -0.1642 -0.4375 -0.3802
25402W        W41663  15.004  11.712  11.329  0.1920  0.2653 -0.0380
25403W        W41664  11.389  17.459   3.267 -0.4812 -0.0703  0.0676
25404W        W41665   2.427   8.422  14.788  0.0895  0.2450  0.2568
25405W        W41666  15.517  16.494   4.912  0.0911 -0.1709 -0.1074
25406W        W41667   6.931  15.784   0.290 -0.0597 -0.0814 -0.0488
25407W        W41668  16.179   8.833  12.422 -0.0919 -0.2483 -0.0533
25408W        W41669  15.119  12.263   2.802 -0.3176 -0.0894  0.1214
25409W        W41670   7.303   1.420   0.815  0.2898  0.0961  0.1092
25410W        W41671   5.999  18.538   1.633  0.0191  0.3315  0.0927
25411W        W41672   8.565   1.827   3.095 -0.5390  0.0175 -0.1202
25412W        W41673  16.429  15.871  14.102 -0.1369  0.0054 -0.0973
25413W        W41674   3.385   2.524   3.948 -0.0678  0.2412  0.1965
25414W        W41675  19.094  12.190   8.780  0.1675 -0.3682  0.1811
25415W        W41676  16.515   8.590   0.857  0.2604 -0.3795 -0.0029
25416W        W41677  17.223   0.637   1.975 -0.0701 -0.3194  0.1307
25417W        W41678   4.551   2.690   5.282 -0.0527 -0.0624  0.0886
25418W        W41679  13.765  16.962   3.058 -0.1025  0.2579 -0.1033
25419W        W41680   8.331   5.669  10.601 -0.2091 -0.2199  0.0191
25420W        W41681  13.509   5.910   5.273  0.4098 -0.1499  0.0787
25421W        W41682  18.767  17.412   4.694  0.0385  0.2098 -0.0804
25422W        W41683   7.302   4.708  13.206  0.3688  0.2005  0.1525
25423W        W41684   2.231   1.066   2.300  0.0379  0.1561 -0.0552
25424W        W41685   1.976  18.760  14.212  0.1436 -0.1407  0.3353
25425W        W41686  15.387  13.330   2.255 -0.2526 -0.0206 -0.1618
25426W        W41687  10.034  12.704   2.998 -0.0594 -0.0958  0.2413
25427W        W41688  15.551   3.950   5.432 -0.3112  0.1539  0.1480
25428W        W41689  13.863  14.898  10.882  0.2492  0.3038 -0.2227
25429W        W41690  10.387  11.523  11.746 -0.0086 -0.1280 -0.0614
25430W        W41691  12.521  19.117   2.731  0.2298  0.0306 -0.0424
25431W        W41692  16.098   1.874   1.489  0.0004 -0.0991  0.0231
25432W        W41693  16.778   1.614   4.093  0.2417  0.1477  0.1554
25433W        W41694   0.745   6.172  14.818  0.1062 -0.5262  0.1460
25434W        W41695   3.395  13.150   0.792 -0.0574 -0.0364 -0.4395
25435W        W41696   1.177  17.951   2.403  0.2188 -0.0567  0.2539
25436W        W41697  11.534  16.473   2.883  0.1125  0.1821  0.0695
25437W        W41698   2.860  14.666   0.084 -0.1900 -0.0410  0.1469
25438W        W41699  14.319   4.455  10.869 -0.3209 -0.3082  0.0480
25439W        W41700   9.561  17.215  14.686 -0.0707 -0.4184 -0.1187
25440W        W41701   6.994   0.132  12.990 -0.2141  0.1620  0.0727
25441W        W41702   5.857   0.186   0.836 -0.0728 -0.4061 -0.0206
25442W        W41703  15.348  19.348   0.564 -0.1960 -0.1220  0.0074
25443W        W41704   7.939  11.921   2.210  0.0501 -0.1424 -0.1353
25444W        W41705  14.609  11.944  11.570 -0.0676  0.1103  0.0210
25445W        W41706  11.223  13.918   3.596 -0.0167 -0.1820  0.0884
25446W        W41707   0.592  14.248  13.286  0.0195  0.0300  0.1631
25447W        W41708  18.196   2.621  11.963 -0.2251  0.0106  0.1716
25448W        W41709  15.618  18.041  14.541  0.2871  0.3126 -0.0178
25449W        W41710   5.396  18.440   3.792  0.0937 -0.4038 -0.0238
25450W        W41711  14.437   4.316   2.406  0.2957  0.0320 -0.0094
25451W        W41712   2.388  12.592   2.739 -0.1088  0.0433  0.1473
25452W        W41713   7.204   7.547  14.753  0.1253 -0.3355  0.0668
25453W        W41714  15.976   9.244  14.595  0.2800 -0.0021  0.0291
25454W        W41715   5.537   7.240   1.229 -0.1796 -0.0043 -0.1839
25455W        W41716   8.848   6.035   4.150 -0.1614  0.2616 -0.1605
25456W        W41717   6.266   5.608  13.104 -0.1877 -0.2242 -0.0793
25457W        W41718  11.684   6.238  14.292  0.2477 -0.1174  0.1535
25458W        W41719  11.689   6.307  12.282  0.2790 -0.1307  0.1853
25459W        W41720   4.594   4.686   3.309 -0.0816  0.0845  0.2121
25460W        W41721  14.247  17.096   0.146  0.0638  0.1458  0.0218
25461W        W41722  14.295  10.869   3.645  0.2861  0.4510  0.0167
25462W        W41723   8.048   0.583   2.400 -0.0188 -0.0941  0.2199
25463W        W41724   5.039   3.035  10.986  0.2256  0.1813  0.1462
25464W        W41725   9.159  17.773   4.335  0.0762 -0.1544 -0.0869
25465W        W41726  16.547   0.311  14.717  0.2888  0.0197 -0.2565
25466W        W41727   2.272   2.446   2.285  0.1275  0.0920 -0.1169
25467W        W41728   2.995   2.810  14.642  0.0689 -0.1296 -0.0320
25468W        W41729  18.525  10.531   5.139  0.3972 -0.5300  0.0097
25469W        W41730  14.766   0.192  13.966 -0.0323  0.0728 -0.0109
25470W        W41731  17.504  13.197  12.770  0.1607  0.2324  0.1296
25471W        W41732   7.635   5.487   4.973  0.0001  0.2331  0.1799
25472W        W41733  14.608  11.400  13.053  0.3402  0.2661  0.2001
25473W        W41734  11.620   1.451  14.859 -0.1796 -0.1714 -0.2362
25474W        W41735  14.049  12.945   4.184 -0.3521  0.0961  0.0358
25475W        W41736  11.772  12.203  11.830  0.0501 -0.0131 -0.0355
25476W        W41737   3.584  17.557   0.473  0.2753 -0.1665 -0.1510
25477W        W41738   3.442  10.207  12.486  0.0416  0.3431  0.1343
25478W        W41739   1.535   2.466   5.078 -0.1970  0.0094 -0.0334
25479W        W41740   3.353  15.624   4.633 -0.2414  0.1877  0.0014
25480W        W41741  16.043   8.212  13.406 -0.0567 -0.0932 -0.0333
25481W        W41742   8.385  15.223   0.244  0.1946 -0.0601 -0.1425
25482W        W41743  12.567   4.428   3.041  0.1534  0.1032  0.0876
25483W        W41744  18.323  14.019   9.759  0.1737 -0.2936  0.4573
25484W        W41745   4.903  13.464   0.198  0.1785 -0.2848 -0.0802
25485W        W41746  15.979   0.308   9.410  0.2070 -0.3681 -0.2251
25486W        W41747   8.179   7.451   2.573 -0.0680 -0.2234 -0.0218
25487W        W41748  11.694  14.234  11.368  0.0441 -0.2642 -0.0519
25488W        W41749   8.389  17.508  12.588  0.1677  0.1926  0.0218
25489W        W41750  18.646  18.189   1.526 -0.2253 -0.0863 -0.1145
25490W        W41751  18.174   0.328  11.497 -0.0349  0.0527 -0.0559
25491W        W41752   0.579   1.285   3.057 -0.2979  0.1802  0.2706
25492W        W41753  12.883   0.954   2.184  0.0282  0.1597  0.2159
25493W        W41754  17.028   9.611   2.720  0.1211 -0.1994 -0.2097
25494W        W41755   2.315  17.012  10.886 -0.1874  0.0444  0.2558
25495W        W41756  10.987   2.114  14.349 -0.1784 -0.0823 -0.4533
25496W        W41757   8.011  17.147  13.057 -0.0048 -0.0781  0.0616
25497W        W41758  19.005  11.479  14.701  0.3759 -0.0342  0.4307
25498W        W41759  10.053  11.947   2.207 -0.0802  0.3421 -0.4935
25499W        W41760  18.854  16.378   0.600 -0.1154 -0.4016  0.0314
25500W        W41761  13.690  11.751   0.862  0.1037 -0.0342 -0.0888
25501W        W41762   1.410   2.082  12.392 -0.1164 -0.0913 -0.0564
25502W        W41763   3.426  12.936  14.474 -0.2422 -0.1811 -0.1365
25503W        W41764   2.961  14.706  14.474  0.2881 -0.2334 -0.1024
25504W        W41765   3.246  12.418  10.804  0.1071  0.0657 -0.1020
25505W        W41766   1.404  17.746  10.270  0.2010  0.3588  0.0524
25506W        W41767   3.094   0.907  10.339 -0.1985  0.2045 -0.1720
25507W        W41768   0.183  18.760  11.175 -0.2716  0.2758  0.1428
25508W        W41769   5.793   5.413   2.882  0.2312  0.0645  0.0490
25509W        W41770   2.273   0.905   2.785  0.0338  0.0689  0.1582
25510W        W41771  10.906   2.115   4.173 -0.1601  0.3314  0.0895
25511W        W41772   1.210   7.879   2.667 -0.0769 -0.0199  0.0157
25512W        W41773  17.884   8.662  14.234  0.0820  0.0661  0.4318
25513W        W41774  17.218  16.004  14.550  0.0551  0.0272  0.0377
25514W        W41775   3.887   1.287  13.094 -0.1709 -0.4389 -0.2855
25515W        W41776  18.004   1.898  14.469 -0.0413  0.1925  0.2057
25516W        W41777  12.833   1.066  10.464  0.0149  0.0925 -0.0531
25517W        W41778  15.814   3.301   0.330 -0.0252  0.0007 -0.1000
25518W        W41779  17.158  17.091   1.537 -0.0262 -0.5230 -0.4205
25519W        W41780   9.483   0.788   1.149 -0.3203 -0.2538  0.0338
25520W        W41781  12.408  13.159  14.816  0.1203  0.3706 -0.4530
25521W        W41782   8.704   5.074   0.877 -0.1414  0.3107 -0.0909
25522W        W41783  12.401   0.037  13.013 -0.1652  0.0677  0.1258
25523W        W41784   5.701  14.064   4.853 -0.3109  0.0835  0.3271
25524W        W41785  12.959   5.415  13.518 -0.3184 -0.3922  0.0741
25525W        W41786   0.703  14.916  11.374  0.0860 -0.2306 -0.4101
25526W        W41787   1.916  10.463   2.202 -0.0092 -0.0511 -0.1654
25527W        W41788   5.753   3.210  11.426 -0.0384 -0.2898 -0.0196
25528W        W41789  14.300   3.746   0.743  0.2057  0.0415 -0.1310
25529W        W41790   0.005   2.901  12.543  0.0383 -0.0079 -0.0325
25530W        W41791   7.733   3.658  10.577  0.0741  0.0781 -0.0814
25531W        W41792  10.953   6.813   4.744 -0.1097 -0.0074 -0.1900
25532W        W41793  10.038   4.796   0.502  0.2660  0.3613  0.2085
25533W        W41794   1.174  15.936   3.705  0.1797 -0.1076  0.0553
25534W        W41795  14.160   1.614   5.075 -0.2524 -0.3901  0.0735
25535W        W41796  12.107   0.200   9.728  0.1933 -0.1563  0.1260
25536W        W41797   6.531   6.291  13.679  0.2591 -0.1053  0.1007
25537W        W41798   1.193  19.450   2.837 -0.0850  0.1786 -0.0739
25538W        W41799  10.127   7.189   4.176  0.0341  0.0143 -0.1273
25539W        W41800   5.983   4.960   3.081  0.0440  0.0454 -0.2824
25540W        W41801  16.885   6.227   0.070  0.0750  0.3607  0.0955
25541W        W41802  19.144   4.798   5.474  0.0357  0.1785 -0.0059
25542W        W41803  15.448  10.748   3.287  0.1514 -0.5578 -0.2674
25543W        W41804  13.701  18.217   1.860  0.0958 -0.1166 -0.0039
25544W        W41805   6.986   2.918   5.048  0.0776  0.3697  0.1204
25545W        W41806   3.432   6.780   5.824 -0.0151 -0.3536  0.1343
25546W        W41807  14.176  15.474   0.309 -0.1284 -0.1648  0.0244
25547W        W41808   8.157  15.155   2.250  0.0405  0.1863 -0.2054
25548W        W41809   6.551   7.941   9.761  0.1884  0.1354  0.2044
25549W        W41810   7.817   7.901  12.706  0.0073 -0.3279  0.2641
25550W        W41811   6.789   1.430  11.277 -0.2412 -0.0231 -0.2039
25551W        W41812   1.783   1.920   5.006  0.0034 -0.0336 -0.2907
25552W        W41813   6.614  18.144  13.966  0.1591  0.0534 -0.2352
25553W        W41814   8.320   3.836   2.429 -0.2139 -0.2015  0.3150
25554W        W41815   1.237   2.675   0.302 -0.0077  0.1196 -0.1225
25555W        W41816  15.243  10.803   3.985  0.0267 -0.0679  0.0597
25556W        W41817   1.477   9.038  10.902 -0.1322 -0.0799 -0.0207
25557W        W41818  10.725  15.311  10.025  0.2940 -0.1377 -0.3375
25558W        W41819  16.596   7.842  10.493  0.0932 -0.0800 -0.3398
25559W        W41820   3.787  18.036   4.507 -0.1610 -0.2796  0.0071
25560W        W41821  18.532   0.070  13.560 -0.1590  0.0286  0.2089
25561W        W41822   0.791  15.165  13.136  0.1240 -0.1060  0.2742
25562W        W41823  17.928  13.817   4.809  0.1683  0.2027  0.4031
25563W        W41824   3.914  14.682   1.524 -0.1038  0.1416 -0.1621
25564W        W41825   4.112  16.136   3.336 -0.0716 -0.4164  0.3340
25565W        W41826   9.950   2.228   1.695  0.1127 -0.1002  0.2858
25566W        W41827   1.287   9.299  11.299 -0.2266 -0.1803  0.2204
25567W        W41828   3.621   7.062   4.840  0.3581  0.1512 -0.0861
25568W        W41829   1.032   2.325   4.546 -0.2036 -0.0927 -0.0312
25569W        W41830   4.696   0.295   1.219  0.2152  0.4613  0.2694
25570W        W41831   6.956   2.649   3.519  0.1569  0.1048 -0.1781
25571W        W41832  12.845   0.126  12.709 -0.1696 -0.2511 -0.4641
25572W        W41833   7.738   2.655   2.665  0.1037  0.1714 -0.1533
25573W        W41834  15.815   8.319   0.213 -0.0170  0.0119  0.1180
25574W        W41835   8.279  18.464  11.029  0.3502 -0.4436 -0.0114
25575W        W41836  17.248   6.996  10.839 -0.1315 -0.2984 -0.2605
25576W        W41837  10.270  19.250   0.488  0.4080  0.1018 -0.1626
25577W        W41838   4.260   8.938   4.613  0.0036 -0.2086 -0.1551
25578W        W41839   7.880   2.749   5.142 -0.1271 -0.0335  0.0207
25579W        W41840  12.982   3.856   2.748 -0.1213 -0.2813 -0.2024
25580W        W41841   3.281   4.829  14.007  0.0762  0.1728 -0.3050
25581W        W41842  12.632   6.383  12.140 -0.2420  0.2838  0.1637
25582W        W41843  17.158  13.410   3.458 -0.0555  0.0991 -0.5986
25583W        W41844  13.023  18.223   1.904 -0.0731  0.0936 -0.1340
25584W        W41845   7.775  12.917  11.340  0.1150  0.1017  0.2162
25585W        W41846  12.744   1.973  13.304  0.1178  0.0419  0.1565
25586W        W41847   2.023  16.380   3.535 -0.0927  0.0129 -0.2381
25587W        W41848   6.738   6.212   2.162  0.0327  0.0608  0.0268
25588W        W41849  18.785  15.265   9.477  0.4284  0.1071 -0.0642
25589W        W41850  10.109   4.553   3.478  0.1690 -0.1346  0.4799
25590W        W41851  18.753   5.078  10.286 -0.1621 -0.1374  0.0766
25591W        W41852  14.236   6.250  10.834  0.1275  0.3513 -0.1525
25592W        W41853   3.731  11.679  13.621 -0.0249  0.1086  0.1004
25593W        W41854   3.551  15.673  13.091  0.0604  0.4016 -0.4827
25594W        W41855   1.788   6.426   2.073  0.1282 -0.0490  0.2155
25595W        W41856   1.499  12.877  11.058  0.1398  0.0743  0.0511
25596W        W41857  12.112  14.373  11.643 -0.3265 -0.3742 -0.1996
25597W        W41858  10.099   9.135   2.335  0.2794 -0.3465 -0.0120
25598W        W41859  13.755   2.760   1.304 -0.4206  0.1713 -0.2597
25599W        W41860  11.851   3.981  10.814 -0.2543  0.2100 -0.0997
25600W        W41861  14.539   6.525  14.360 -0.1217  0.1343  0.0180
25601W        W41862   8.495   6.440  12.128 -0.2286 -0.0043 -0.1839
25602W        W41863  13.198  11.394   1.848 -0.0417  0.1078  0.0281
25603W        W41864  17.270  12.480   1.318 -0.1190  0.0579  0.1171
25604W        W41865  15.145  18.399   3.398  0.2196  0.3365 -0.2770
25605W        W41866   6.022   8.501   5.173 -0.1047  0.2054  0.0997
25606W        W41867   4.584  10.095   4.835 -0.1016  0.0323 -0.0791
25607W        W41868  11.513   5.437  10.531 -0.2933 -0.2772 -0.1087
25608W        W41869  12.362   9.176  12.751  0.0136  0.1489 -0.1377
25609W        W41870   4.988  13.602  10.178  0.0236  0.1159  0.2760
25610W        W41871  18.909  11.420  10.066 -0.0698 -0.1589  0.2504
25611W        W41872  19.262  19.104  13.620 -0.0648 -0.1118  0.0028
25612W        W41873   2.394   7.332  11.391  0.1600 -0.1225  0.0689
25613W        W41874  10.694   0.411  11.647 -0.1826 -0.1676  0.2356
25614W        W41875   5.974  13.735   4.010 -0.1121 -0.1396  0.0402
25615W        W41876  17.246   3.492  12.351 -0.2325 -0.1913 -0.0497
25616W        W41877   2.479  13.827  11.833  0.4832 -0.3131 -0.1708
25617W        W41878   3.279   4.351   0.654 -0.1113 -0.0221 -0.0461
25618W        W41879  15.252  15.237  13.525 -0.2771  0.0272  0.2743
25619W        W41880   4.616   5.225  11.263  0.2939 -0.1195  0.1234
25620W        W41881   6.305   5.702  14.417  0.1276 -0.1945 -0.2301
25621W        W41882   8.785  11.289  13.638 -0.1274  0.2686 -0.2290
25622W        W41883  14.273  12.277  10.663  0.5868 -0.0489  0.0607
25623W        W41884   3.707  15.235   5.758  0.0709 -0.2121  0.0676
25624W        W41885  11.614  18.442   0.563 -0.1414 -0.0744 -0.0582
25625W        W41886  18.837   8.488  13.059  0.2454 -0.0070  0.0104
25626W        W41887   4.414  14.339   5.210  0.2420  0.3492 -0.1686
25627W        W41888   0.208   8.803  11.700  0.3693 -0.0807  0.0240
25628W        W41889   8.715  15.927   3.668  0.3156  0.0381  0.1928
25629W        W41890   6.052  15.242   1.914  0.3794  0.1853 -0.1783
25630W        W41891  12.122  15.912  14.469 -0.0505  0.0325 -0.0219
25631W        W41892  18.243   1.441  10.246 -0.1627  0.3243 -0.2694
25632W        W41893  13.746  14.614  11.697  0.0258 -0.0822  0.1195
25633W        W41894  15.220   2.015  14.851 -0.1633 -0.1655 -0.1170
25634W        W41895   7.544   0.716   0.328  0.3319  0.0984 -0.0607
25635W        W41896  13.362  13.123  13.367 -0.0867 -0.0304 -0.2077
25636W        W41897   7.150  17.665  13.225  0.3313  0.1071  0.2873
25637W        W41898  18.750   1.731  13.108  0.0116 -0.1056  0.0237
25638W        W41899   8.925  11.665   5.082  0.0180  0.2886  0.3055
25639W        W41900  11.605   3.061  14.066 -0.0923  0.1772 -0.1974
25640W        W41901   6.247  13.948  13.832 -0.1753  0.0493 -0.2839
25641W        W41902  15.911  18.620  11.837 -0.2247 -0.4601  0.2569
25642W        W41903   5.137  17.651   4.051 -0.0451  0.0720 -0.0652
25643W        W41904  16.713  15.381  12.720 -0.1199 -0.0756  0.1631
25644W        W41905  15.664   5.042   0.539 -0.0407  0.2207  0.0020
25645W        W41906   1.788   9.275   3.762  0.0418 -0.0973  0.0671
25646W        W41907   0.598  11.767  12.504  0.1490  0.2887 -0.0708
25647W        W41908   0.614   7.489   5.214 -0.1146 -0.3628 -0.0287
25648W        W41909   4.411  13.079   0.483  0.3345  0.0477  0.0727
25649W        W41910   8.840  12.686  14.835 -0.1642 -0.3239  0.0805
25650W        W41911  12.504   0.951   0.099 -0.0585  0.0577  0.0979
25651W        W41912   3.391  15.578   5.559  0.2235  0.1454  0.1083
25652W        W41913   5.148  15.550  14.177  0.1185 -0.0155  0.1125
25653W        W41914   1.836   7.475   4.607 -0.0534 -0.2155 -0.1766
25654W        W41915  15.655   5.709  13.100 -0.0522 -0.1522  0.1701
25655W        W41916  14.547   8.329  13.276  0.0169  0.0808 -0.4724
25656W        W41917   8.070   0.753   1.047 -0.0634 -0.4564 -0.0860
25657W        W41918  15.148   2.712  10.916  0.0492 -0.1316  0.4630
25658W        W41919   1.376  10.829  11.928 -0.0943 -0.0445 -0.0221
25659W        W41920  12.104  11.829  13.678  0.0604 -0.1164 -0.4163
25660W        W41921   7.257   1.493  12.873 -0.1411  0.1533  0.1950
25661W        W41922  16.595  17.991  14.069  0.0709 -0.0126  0.4326
25662W        W41923  15.930   8.865   1.056 -0.0968 -0.1366 -0.0430
25663W        W41924   0.203  15.961   0.761  0.2858 -0.0163 -0.0405
25664W        W41925   2.862  19.223  10.860  0.2625 -0.0983 -0.1656
25665W        W41926  12.557  10.177  10.201  0.0458  0.2222  0.1272
25666W        W41927  13.845  16.620   0.323  0.0709  0.1024  0.0945
25667W        W41928   7.117   3.695   4.655 -0.0046  0.0216  0.1038
25668W        W41929   0.326   8.290   3.985  0.2025 -0.0548 -0.0613
25669W        W41930  18.979  14.337   3.307 -0.0090 -0.0373  0.0823
25670W        W41931  11.066   3.425  13.386  0.1727 -0.2260  0.1397
25671W        W41932   0.223  15.732   1.900  0.1015  0.0219  0.1807
25672W        W41933   4.100   4.937   4.958  0.0798 -0.0786 -0.1361
25673W        W41934   5.310  10.916   2.852  0.0283 -0.0418  0.4707
25674W        W41935  18.095   0.175  14.062  0.1812 -0.2794 -0.1463
25675W        W41936  10.214   1.229  13.874  0.1243 -0.2223  0.0387
25676W        W41937  11.286   0.480  13.126  0.0210 -0.0422 -0.1602
25677W        W41938  11.977  13.696   2.792 -0.0743 -0.0503  0.2172
25678W        W41939  16.347  17.050   3.151 -0.1184 -0.2852 -0.1229
25679W        W41940  18.028   8.266   2.985  0.1015  0.2990  0.3678
25680W        W41941   9.973   0.874   4.664 -0.1727  0.1585  0.2283
25681W        W41942   6.652   0.027   3.110  0.0944 -0.2803  0.0937
25682W        W41943  15.320  16.581   3.495 -0.1651  0.3085 -0.0520
25683W        W41944   5.513  11.469  11.351 -0.1559  0.3846  0.4340
25684W        W41945  19.056  13.605  12.677 -0.0676  0.2050  0.1593
25685W        W41946  11.602   5.453   1.952  0.0757  0.1294 -0.2466
25686W        W41947  14.447   0.811  13.191  0.1023 -0.1839  0.1010
25687W        W41948  15.481  12.727   0.212 -0.1482 -0.0677 -0.4001
25688W        W41949  13.036  10.688   1.221 -0.1927 -0.0400  0.0500
25689W        W41950  16.077  19.167   1.365 -0.0423  0.1764  0.0877
25690W        W41951  18.952   7.510   4.615 -0.1062 -0.1301  0.3105
25691W        W41952  13.623   0.483   1.826  0.0055  0.0530  0.4038
25692W        W41953   3.797   6.540   1.795  0.2831 -0.2603  0.0944
25693W        W41954   7.566  19.209   2.966  0.0943  0.2329 -0.1989
25694W        W41955   8.226   7.029  13.024  0.3201  0.1861 -0.2522
25695W        W41956  15.375  12.238   3.247 -0.2228  0.1054  0.2739
25696W        W41957   1.625  13.347  11.189 -0.2574 -0.0951 -0.0078
25697W        W41958   9.459  12.871  13.529 -0.0134  0.1457 -0.4407
25698W        W41959   6.507   7.393   4.447 -0.2936  0.2342 -0.2884
25699W        W41960   6.626   8.853  13.555 -0.4036 -0.3944 -0.2259
25700W        W41961  14.421  10.123  14.235 -0.0664  0.0242 -0.1818
25701W        W41962   5.867  19.389  10.514  0.0922  0.2772  0.0179
25702W        W41963   2.393   2.507  13.744 -0.1531 -0.1935  0.1765
25703W        W41964   3.538  15.158  12.072 -0.0183  0.1516  0.1875
25704W        W41965  15.880  12.255   9.945  0.3777  0.2681 -0.5108
25705W        W41966  10.375  19.108  14.290 -0.1962 -0.0573 -0.3726
25706W        W41967  14.883   0.937   5.155  0.1879 -0.2529  0.1112
25707W        W41968  15.374  14.321  12.487  0.1673 -0.0818  0.3773
25708W        W41969   4.620  15.562  11.084 -0.1590 -0.0309 -0.0702
25709W        W41970  18.481  12.760  14.108 -0.0831 -0.0414 -0.1501
25710W        W41971   3.580  13.165  12.061 -0.2216  0.3084 -0.1399
25711W        W41972  13.421  17.275   3.342  0.3876  0.3082 -0.1519
25712W        W41973   4.872   5.434  13.467  0.0299  0.0300 -0.1213
25713W        W41974   2.550  16.496  11.400 -0.3186  0.1546  0.0930
25714W        W41975   8.278  12.210   2.967  0.0092  0.2723  0.1775
25715W        W41976   4.967  13.001  14.216 -0.2654  0.0443  0.1062
25716W        W41977  10.279   3.017  11.864 -0.2472 -0.3237 -0.1153
25717W        W41978  13.276  13.501   3.166 -0.3680  0.1906 -0.2209
25718W        W41979  14.889  17.862  12.468  0.1582 -0.4276  0.2569
25719W        W41980  16.566  19.273   0.862  0.0033 -0.0488  0.0820
25720W        W41981  15.099  10.426   0.553  0.0889 -0.0244  0.1663
25721W        W41982  19.107  19.352  14.485 -0.4502  0.2642  0.3918
25722W        W41983  13.486  10.180  14.200  0.3053 -0.0593 -0.1170
25723W        W41984   4.222  14.577   4.288  0.1044  0.2862 -0.1539
25724W        W41985   1.297   6.493   2.244  0.0055  0.1087 -0.3450
25725W        W41986   7.396  13.383   0.835 -0.3371  0.0097 -0.0918
25726W        W41987  11.599  14.091  11.841 -0.2146 -0.1216 -0.4144
25727W        W41988  10.999  11.890   9.967  0.0311  0.0822  0.2167
25728W        W41989  11.103  18.384  10.262  0.1764 -0.0652 -0.1592
25729W        W41990  11.502   8.013   3.793 -0.0355  0.1635  0.0940
25730W        W41991  17.607  10.453   0.517  0.2601 -0.3502  0.1124
25731W        W41992   6.861  11.999   0.392  0.2422 -0.2096 -0.1879
25732W        W41993  13.267  16.609  10.543  0.2916 -0.2375 -0.2298
25733W        W41994  15.214  15.282   1.329  0.0877  0.0724  0.2230
25734W        W41995   1.567  19.389  11.772 -0.0104  0.1160  0.0657
25735W        W41996  12.231   2.991   3.286  0.0980 -0.1351  0.4001
25736W        W41997   9.767   6.751   2.420 -0.3740 -0.0078 -0.2162
25737W        W41998   9.057   0.021  14.228  0.0693  0.1638  0.3012
25738W        W41999  17.720   5.276   0.186 -0.0696 -0.0204  0.1482
25739W        W42000  15.373  18.706   4.511  0.0774 -0.1094  0.0206
25740W        W42001   2.042  11.904  10.213 -0.3952 -0.0914 -0.2612
25741W        W42002   6.857   6.554   3.932  0.0012 -0.1358  0.3827
25742W        W42003   7.376   4.220   1.371 -0.0290 -0.0258  0.3510
25743W        W42004   0.431   4.122   2.272 -0.0124 -0.1360  0.2193
25744W        W42005   0.983   4.028   4.711  0.2355 -0.1362 -0.3164
25745W        W42006  10.891   0.101   3.366  0.2085 -0.1315  0.0702
25746W        W42007   3.160   5.738  14.212 -0.1343 -0.5219 -0.2164
25747W        W42008   8.652  11.426  11.118  0.1549  0.1898  0.0225
25748W        W42009  10.511   1.454  10.377  0.0785  0.1072 -0.0917
25749W        W42010  12.364   2.475   4.513  0.2920  0.1019 -0.2464
25750W        W42011   0.984  17.623   1.923 -0.2147 -0.1251  0.1542
25751W        W42012  10.587   8.366   0.166 -0.0899  0.3351 -0.2397
25752W        W42013  11.028   1.933   2.454  0.4175  0.1750  0.1556
25753W        W42014   9.295   9.930   2.903 -0.2039  0.2094 -0.2070
25754W        W42015   2.048   3.632   2.486 -0.0269 -0.0808 -0.1047
25755W        W42016   7.199  17.012  12.686  0.1587  0.1496 -0.1909
25756W        W42017  16.776  16.808  11.674 -0.0802  0.0539  0.1276
25757W        W42018  12.859   9.582   2.895 -0.1703 -0.3388 -0.0389
25758W        W42019   3.699   1.636   3.187 -0.1586 -0.2141 -0.0910
25759W        W42020  19.295   0.146   4.355 -0.1498  0.3154  0.0541
25760W        W42021  10.911   0.442  13.487  0.1686 -0.0474  0.0112
25761W        W42022   8.213  18.417  12.568  0.2367 -0.0312 -0.1263
25762W        W42023  14.543  16.324  11.175  0.2887 -0.1063  0.4908
25763W        W42024   4.865  12.674  14.604  0.1175  0.0568 -0.2982
25764W        W42025  13.332  16.022   3.470 -0.0956  0.0855 -0.0484
25765W        W42026  14.357   8.877   1.817  0.4284  0.2163 -0.1595
25766W        W42027   6.533  15.743  14.311  0.2145 -0.3799  0.2906
25767W        W42028  12.543  14.750   3.274  0.0946 -0.0743  0.0415
25768W        W42029   9.392  11.253  10.525 -0.3383 -0.2732  0.1018
25769W        W42030   2.899   1.631  14.830 -0.0050  0.0543 -0.2310
25770W        W42031   4.087   5.164   3.186 -0.2000 -0.0657  0.2771
25771W        W42032  10.752  13.070  11.245 -0.0800  0.2690 -0.1183
25772W        W42033  16.935  11.704  12.521 -0.1415 -0.0821 -0.0805
25773W        W42034   0.038  16.517  11.789  0.0917 -0.0289 -0.3472
25774W        W42035   0.560  15.631   0.645  0.0769  0.1842  0.0421
25775W        W42036  12.016  12.675   2.512  0.1427  0.1072  0.2756
25776W        W42037   7.701  19.201   1.652  0.0042 -0.0345 -0.0195
25777W        W42038   2.806  13.033  13.337 -0.0546 -0.3560  0.2045
25778W        W42039   6.623  14.601   3.047 -0.4755  0.2776  0.0859
25779W        W42040   4.578  16.797   1.871 -0.0632  0.2332 -0.1841
25780W        W42041   0.163   7.526   5.659  0.1687 -0.4844  0.1186
25781W        W42042  10.331  10.727  12.212  0.1462  0.0495 -0.4487
25782W        W42043   2.922   8.860  11.336 -0.0543  0.3484 -0.2490
25783W        W42044   2.427  13.113  12.994  0.1924 -0.0428  0.2575
25784W        W42045   5.737   4.142   3.565 -0.0078 -0.0081  0.2402
25785W        W42046   3.630   3.041   3.846  0.1672  0.2859 -0.0658
25786W        W42047   5.727  15.174   3.835 -0.0291 -0.2706 -0.2217
25787W        W42048  11.515  18.453  11.156 -0.0705 -0.3101  0.0085
25788W        W42049   9.795   7.063   0.904 -0.1826  0.0740 -0.0254
25789W        W42050  12.170  18.847   3.348  0.2082 -0.2705  0.0111
25790W        W42051   9.322  18.610   0.288  0.2905 -0.1938 -0.2100
25791W        W42052   2.113   6.180   1.174  0.0311 -0.1139  0.0765
25792W        W42053  18.355  19.170   4.279 -0.0118 -0.2904 -0.3047
25793W        W42054  12.044   0.648   3.519  0.0821 -0.0946 -0.0554
25794W        W42055   3.672   9.153   4.649 -0.0758  0.0607 -0.0101
25795W        W42056  14.568   8.988  10.234 -0.2796 -0.0512  0.0544
25796W        W42057  19.168  15.688   3.330  0.0283  0.0218 -0.2414
25797W        W42058   6.462  15.866  11.692  0.0290  0.1691  0.0398
25798W        W42059   1.556  14.006   2.029  0.0974  0.1799 -0.3188
25799W        W42060   4.069  18.374  10.944  0.3465 -0.1087  0.0900
25800W        W42061  15.432  18.956  14.248  0.2519 -0.2748  0.0641
25801W        W42062  11.553  18.054  12.367 -0.3526 -0.1786 -0.2400
25802W        W42063   8.344   6.841  13.961 -0.3483 -0.2394 -0.1021
25803W        W42064  15.268   5.927  14.243 -0.1713 -0.0858 -0.1201
25804W        W42065   5.364  11.437   2.526  0.1869  0.0238 -0.1124
25805W        W42066   9.781  14.869   0.557 -0.3277 -0.0857  0.3538
25806W        W42067   8.592   4.550   2.631 -0.1041 -0.0212  0.0401
25807W        W42068  13.717   4.313   1.066  0.1914 -0.0597 -0.1214
25808W        W42069  10.057   1.146   0.985  0.2580 -0.1881  0.2020
25809W        W42070   4.198   1.655   1.233  0.0297  0.1913  0.1174
25810W        W42071  13.498   3.095   4.648 -0.1249  0.4019  0.0026
25811W        W42072  10.464   3.833   5.669  0.0510  0.4289  0.2220
25812W        W42073   1.023   1.255   3.729  0.0932 -0.0366 -0.3182
25813W        W42074   5.833   7.471   1.553 -0.0733  0.2547 -0.1855
25814W        W42075  11.799   0.360   4.114  0.0494 -0.3449  0.0725
25815W        W42076  15.198   0.048   3.115  0.2793  0.0654 -0.0450
25816W        W42077   2.823  10.149   1.463  0.0335 -0.1889 -0.1312
25817W        W42078  15.851   7.753   0.474  0.1536  0.1061  0.1711
25818W        W42079  10.623  17.365   2.710 -0.1032 -0.0311  0.6141
25819W        W42080   1.477   7.621  14.050  0.0690  0.5544 -0.0876
25820W        W42081   4.300  18.026   0.811 -0.1318 -0.4088 -0.2578
25821W        W42082   9.989   3.606   1.092 -0.0711  0.1326 -0.2220
25822W        W42083  19.045  10.890   5.570 -0.2525  0.2829 -0.1412
25823W        W42084  15.646   4.848   3.879  0.1110  0.2326  0.1381
25824W        W42085  11.948  10.631   3.329 -0.1534 -0.0585  0.0304
25825W        W42086  17.574   7.432   4.929  0.0855  0.0346 -0.3251
25826W        W42087   5.355   0.036  10.181  0.1702 -0.3112  0.1944
25827W        W42088   0.258  15.130   0.903 -0.2000 -0.0118  0.1107
25828W        W42089   5.456  14.544  12.509 -0.1410 -0.1118  0.1732
25829W        W42090   6.693  16.195  10.077 -0.0251  0.0516  0.1985
25830W        W42091  11.891   0.630  11.434 -0.0708 -0.1916  0.1634
25831W        W42092  15.754  12.597   3.294 -0.1030 -0.0116 -0.1454
25832W        W42093  16.033   1.378  13.541  0.0073  0.2426 -0.3813
25833W        W42094  17.826   5.791  12.400  0.2212 -0.1282 -0.4986
25834W        W42095   8.315   8.741   3.244 -0.0844  0.0081 -0.4008
25835W        W42096   5.982   6.650   3.850  0.0816 -0.0967 -0.3011
25836W        W42097  12.780   2.158  13.764  0.0565  0.0069  0.1150
25837W        W42098   4.059   7.966  11.540 -0.1316 -0.2348 -0.1325
25838W        W42099   3.928   9.472   1.825  0.0158  0.3309 -0.4140
25839W        W42100  13.254   9.616  11.341  0.1997 -0.0823  0.1563
25840W        W42101   7.037  12.475  14.319  0.1633 -0.2286  0.0277
25841W        W42102   1.999  18.001   2.195 -0.0362 -0.0780  0.1242
25842W        W42103   7.897   2.648   4.654 -0.2698 -0.1724  0.0448
25843W        W42104  14.595  11.243   3.663  0.2192  0.0178 -0.0187
25844W        W42105  15.084   5.784   3.986  0.2882 -0.4305  0.0090
25845W        W42106  12.315  16.951  14.186  0.0172 -0.1457 -0.1210
25846W        W42107  14.835   2.741   3.262  0.2154  0.1961 -0.0136
25847W        W42108   4.025   9.510  12.882  0.1783 -0.1970  0.1740
25848W        W42109   5.907   2.475  12.597 -0.0665  0.1104  0.3449
25849W        W42110  17.260  18.475   0.795  0.2404 -0.2857  0.1252
25850W        W42111   5.634  10.660   2.652  0.0937  0.1621 -0.0028
25851W        W42112  14.530  17.133   1.337 -0.1635 -0.1179 -0.2067
25852W        W42113  15.885  10.151   3.971  0.1343  0.1108 -0.2011
25853W        W42114   3.366  13.238  10.662 -0.1100 -0.3863 -0.2974
25854W        W42115   5.389   0.390   4.908 -0.0575 -0.0049  0.4194
25855W        W42116  17.050   7.490   4.970  0.0671  0.0084  0.0740
25856W        W42117  13.583  14.015   0.291  0.1728  0.0766  0.0058
25857W        W42118  10.071   1.801   4.880  0.2576  0.0275 -0.3448
25858W        W42119  19.287  11.216  14.412 -0.1394 -0.0508 -0.1845
25859W        W42120  16.004  10.128   0.316 -0.1807 -0.1147  0.1786
25860W        W42121   7.867   0.639   1.691  0.1490 -0.1593 -0.0725
25861W        W42122  11.075   0.310   0.626  0.3411 -0.1263  0.1157
25862W        W42123   1.315  13.035  11.620  0.0229 -0.5012 -0.3568
25863W        W42124   5.745  15.289   3.281  0.2264 -0.0171 -0.1200
25864W        W42125   3.819   6.120  12.042 -0.0500 -0.0916  0.0601
25865W        W42126   7.569   2.742   3.790  0.0879 -0.0089 -0.1626
25866W        W42127   0.641  15.808   1.557  0.1556  0.2244 -0.1400
25867W        W42128   7.039   4.497   2.547 -0.0183  0.2214 -0.3164
25868W        W42129   6.767  16.699  12.993  0.0427  0.2119  0.3095
25869W        W42130  12.971  17.765   0.331 -0.0333 -0.0256 -0.1766
25870W        W42131  14.496   9.493  13.684 -0.2439 -0.0400 -0.2361
25871W        W42132  15.424   9.221  10.552 -0.2662 -0.1108 -0.1175
25872W        W42133   4.333   3.684  14.200 -0.2035 -0.1421  0.0097
25873W        W42134  14.075  12.710  10.542  0.3507  0.0241 -0.0757
25874W        W42135   9.077   7.674   5.089  0.1269 -0.1836  0.0898
25875W        W42136   5.154  16.239  13.377  0.3801  0.1350 -0.1930
25876W        W42137  12.677   4.451  11.166  0.1767 -0.0462  0.2526
25877W        W42138  17.261   8.085   0.966  0.1974 -0.1677 -0.1350
25878W        W42139  11.801   8.314   4.387 -0.0196 -0.0979  0.0201
25879W        W42140  15.304   9.954   2.729 -0.1114  0.0017  0.0591
25880W        W42141  12.783  10.548   3.057  0.0126 -0.3245  0.2401
25881W        W42142  17.887   4.934   4.371  0.3481  0.1840 -0.1865
25882W        W42143   6.826  13.089  13.497 -0.0884 -0.0832 -0.0509
25883W        W42144  10.994   9.279   2.765  0.1160 -0.0384 -0.0128
25884W        W42145  13.722   8.849  14.402  0.1437 -0.0538  0.1061
25885W        W42146   8.935  10.599   3.468  0.0194 -0.0776  0.0261
25886W        W42147  14.229   0.055   3.348 -0.0071 -0.2007  0.0999
25887W        W42148   0.900  10.944   0.093 -0.2701 -0.0063 -0.3724
25888W        W42149   0.767  14.960   0.665  0.0548  0.0612 -0.3861
25889W        W42150  15.144   1.276   1.725 -0.1139  0.0418 -0.2036
25890W        W42151   0.410   3.856  13.755 -0.3242 -0.3023  0.0639
25891W        W42152   8.370   5.416  12.561  0.1058 -0.0815  0.0633
25892W        W42153  18.955   5.470  10.499  0.2383  0.0873  0.2431
25893W        W42154  12.440   2.519  11.432 -0.1056  0.2159 -0.0133
25894W        W42155  12.645   3.200   3.448  0.0793 -0.2293  0.0443
25895W        W42156   8.018   1.843   9.506 -0.0512 -0.0539  0.0550
25896W        W42157  15.977   5.922   5.695 -0.2091  0.2484  0.2756
25897W        W42158   7.404   6.098  13.697 -0.4155 -0.0495 -0.0275
25898W        W42159   7.482  10.072   0.871 -0.0527 -0.1731 -0.0420
25899W        W42160   4.576   4.308  12.446  0.2226  0.0228 -0.0872
25900W        W42161  14.625   8.808  10.756  0.0758 -0.1931  0.1638
25901W        W42162  11.277  18.832   3.527 -0.3426 -0.1413  0.1575
25902W        W42163   2.580   9.276  11.050  0.1274 -0.2901 -0.1793
25903W        W42164   2.876   8.002  12.748  0.3499 -0.1505  0.0155
25904W        W42165  17.178  18.364   1.535 -0.1084  0.3768  0.2209
25905W        W42166   2.161   2.378  12.147 -0.4556 -0.4490  0.4889
25906W        W42167  12.418   6.087   1.202  0.0380  0.0495  0.1890
25907W        W42168  11.156   5.405  14.462 -0.1439  0.1293 -0.4121
25908W        W42169   5.745   9.076   5.014  0.2018 -0.1821  0.2359
25909W        W42170  17.823   0.639  14.834 -0.3241 -0.0240  0.2363
25910W        W42171  18.820  11.505  11.470  0.1431  0.1571 -0.1224
25911W        W42172   3.091   5.016   5.607  0.1181 -0.0175  0.2418
25912W        W42173   8.746  16.689   0.318  0.0625  0.1782 -0.1250
25913W        W42174  13.692  15.575  14.273  0.0823 -0.0461 -0.1569
25914W        W42175  14.230   8.050  12.590  0.0776  0.1821  0.2893
25915W        W42176  19.194  17.479   0.525 -0.2227  0.1543  0.1595
25916W        W42177   8.789  15.500   1.628 -0.1285 -0.1804  0.0043
25917W        W42178   1.133  18.960   3.031 -0.2377  0.0414 -0.2746
25918W        W42179   9.084   5.559   1.963  0.2176 -0.1902  0.0230
25919W        W42180  16.500  11.540  12.279 -0.1899 -0.2694  0.3076
25920W        W42181  11.734  15.270  13.807 -0.0389 -0.2433 -0.4391
25921W        W42182  10.306  12.129  10.823 -0.2029  0.0613  0.5507
25922W        W42183   1.553   5.936   4.428  0.1066 -0.0527  0.0274
25923W        W42184  16.817  18.698   0.337 -0.1909  0.2748 -0.1519
25924W        W42185   1.440   6.824   1.886 -0.2205 -0.0533  0.1330
25925W        W42186  12.924  13.597  14.705  0.3101  0.0283 -0.0017
25926W        W42187   5.050  10.431  13.006 -0.0661 -0.0707 -0.2276
25927W        W42188   3.605   6.842   3.135  0.0475 -0.1802 -0.3239
25928W        W42189  17.199  10.821   0.727 -0.1415 -0.5379 -0.0512
25929W        W42190   4.818   5.498   2.105  0.0953 -0.4098 -0.1760
25930W        W42191   7.394   1.286   1.322  0.0334 -0.1322  0.0301
25931W        W42192  18.722  19.273   5.129  0.2282 -0.3439  0.1278
25932W        W42193   0.441   4.924  13.247  0.2498  0.2563 -0.0404
25933W        W42194  14.562  17.829  12.934 -0.1509  0.0011  0.2226
25934W        W42195  16.952   4.823   2.468  0.3381  0.0085 -0.1426
25935W        W42196  11.808   4.540  14.705  0.0657  0.1420  0.1750
25936W        W42197  18.905   3.529  10.934  0.0277 -0.3825 -0.0905
25937W        W42198  10.673  13.855  12.415  0.2460 -0.0816  0.0128
25938W        W42199  18.734  14.922  14.003  0.1076 -0.1678 -0.0305
25939W        W42200  15.138   2.730   1.261  0.0067  0.5320 -0.0205
25940W        W42201  17.843   9.995  13.666 -0.1480  0.1860 -0.0372
25941W        W42202  15.832   9.111   1.461  0.1360  0.1396  0.2768
25942W        W42203  18.603  19.304  13.144  0.0395  0.0311 -0.1845
25943W        W42204  10.770   5.830   9.473 -0.0104 -0.2797  0.4531
25944W        W42205  10.062   3.701  13.736  0.1033  0.1272 -0.3173
25945W        W42206  17.183  13.831   0.564  0.2454  0.1159 -0.0946
25946W        W42207   1.631   1.636  12.406 -0.0359 -0.4666 -0.1968
25947W        W42208  17.344   8.245   1.579  0.0214  0.1577 -0.1933
25948W        W42209  13.782  13.494   4.059  0.0284  0.2409  0.0243
25949W        W42210  15.412  15.269  10.846  0.1569 -0.2564 -0.1558
25950W        W42211  12.297  14.559  14.279 -0.1210  0.2773  0.2994
25951W        W42212   3.091  14.273  12.207  0.1521 -0.1174  0.0583
25952W        W42213  14.746  15.084  13.447  0.3019 -0.1380 -0.1159
25953W        W42214   9.821  18.811   2.137 -0.1337  0.0215 -0.0021
25954W        W42215   9.310  15.450   0.109 -0.0397  0.0536 -0.1173
25955W        W42216   3.267  18.449  11.923 -0.1420 -0.0120  0.0761
25956W        W42217   5.397   1.159  10.058 -0.0634  0.1347  0.1144
25957W        W42218   0.844   8.783   0.624 -0.1434  0.1260  0.0582
25958W        W42219   6.281   8.513  10.616 -0.0925  0.1082  0.1703
25959W        W42220  10.457  13.771   3.464  0.1520  0.2980 -0.0514
25960W        W42221   6.732  16.667   3.987  0.2991  0.0617  0.0084
25961W        W42222   0.662  13.932  13.944 -0.2454 -0.2557  0.0678
25962W        W42223  16.165   4.461  10.549  0.0780  0.2994 -0.3469
25963W        W42224  10.759   4.956   2.724 -0.2703  0.1007 -0.1463
25964W        W42225   9.823  14.949   1.946  0.3876 -0.0139 -0.0817
25965W        W42226  13.355  14.290  11.509 -0.1616  0.0102  0.0571
25966W        W42227   8.407   3.826   3.805 -0.3084  0.3605 -0.1476
25967W        W42228   6.169  11.811  13.392  0.2895 -0.0046 -0.1245
25968W        W42229  10.287   7.427  14.170 -0.4330 -0.0105 -0.0589
25969W        W42230   4.699  10.263  11.201 -0.1207  0.1284 -0.1267
25970W        W42231   9.373   7.806   1.617 -0.1182  0.0106 -0.0982
25971W        W42232   2.023  11.761   3.379 -0.0261 -0.1712  0.0827
25972W        W42233   0.565   0.840  14.192  0.0628 -0.1122  0.1711
25973W        W42234  14.481  11.155   0.708  0.2088 -0.0442 -0.3555
25974W        W42235   0.775  17.821   2.789  0.3035  0.1094  0.1679
25975W        W42236   8.609   9.679  10.720 -0.0906  0.0346  0.1410
25976W        W42237   0.951  17.054   0.712 -0.1225 -0.2667 -0.0338
25977W        W42238   1.954   5.787   5.211 -0.0682  0.1662  0.1473
25978W        W42239  17.151   9.622  14.313 -0.2980  0.1260  0.0603
25979W        W42240   5.600  10.294  10.302  0.1058  0.1290 -0.3670
25980W        W42241  11.458  16.050  10.534  0.0186  0.0854 -0.2116
25981W        W42242   3.948   7.594  13.351 -0.1706 -0.2781  0.2298
25982W        W42243  15.255   6.804  13.987 -0.1518  0.0112  0.0697
25983W        W42244   3.506  10.426   2.002  0.0330 -0.0652 -0.0437
25984W        W42245   3.431   9.515   3.675  0.1042  0.3089  0.2845
25985W        W42246  17.277  18.896  10.629 -0.1159  0.0171  0.1544
25986W        W42247   0.144   1.459   0.092  0.1398  0.5021  0.2293
25987W        W42248   2.911  16.970   0.117  0.1881 -0.0817 -0.0448
25988W        W42249  14.549   9.135   3.369  0.2628  0.3425 -0.2456
25989W        W42250   5.249  17.933   3.617  0.3097 -0.0556  0.2918
25990W        W42251  13.805  18.949   3.718 -0.1097 -0.2702  0.0553
25991W        W42252   7.440  12.047   4.067 -0.0763 -0.2152 -0.0661
25992W        W42253   2.958  16.753  13.780 -0.0137  0.0904  0.0387
25993W        W42254   7.001   5.338   3.763 -0.3364 -0.3371  0.0539
25994W        W42255   9.764  11.352   5.146  0.1349 -0.1994 -0.1985
25995W        W42256  14.125   0.444  10.394  0.0075  0.2286  0.3180
25996W        W42257   4.557   4.168  14.101 -0.2834  0.1960  0.0596
25997W        W42258  11.066   2.610   1.751 -0.1535  0.0062 -0.0005
25998W        W42259  16.283   2.482  11.811  0.0666 -0.1243 -0.0259
25999W        W42260   3.879   9.306  13.509 -0.2557 -0.1364 -0.2082
26000W        W42261  17.365   6.408  10.778  0.1526 -0.2750  0.0993
26001W        W42262   5.903   0.582  13.657 -0.1802  0.0147  0.1716
26002W        W42263   6.765  10.449  13.481  0.2090 -0.3139  0.2304
26003W        W42264   2.963   1.735   5.031 -0.2709  0.3450 -0.0721
26004W        W42265  17.163  19.342   3.304  0.0945  0.1577 -0.0755
26005W        W42266  16.484  16.132   3.195  0.4296 -0.1071  0.1455
26006W        W42267   9.083   8.657  12.464  0.0607 -0.0308  0.1481
26007W        W42268   1.248   1.939  11.901  0.0023 -0.2695 -0.4579
26008W        W42269  12.992   5.109  14.590 -0.2477 -0.1992 -0.0239
26009W        W42270   0.251  13.831  10.574 -0.0717  0.2055 -0.1949
26010W        W42271  10.633  14.149   2.826  0.0630 -0.2386 -0.2153
26011W        W42272   7.680   3.213   3.398 -0.0991 -0.0696  0.2450
26012W        W42273   8.797   5.257   1.582 -0.0927  0.0854 -0.1307
26013W        W42274   7.434  12.430   1.056  0.0243  0.1476 -0.4444
26014W        W42275   6.025  13.782  14.292  0.1708 -0.0988 -0.3744
26015W        W42276  11.033   1.354   0.145 -0.1690  0.2749  0.0136
26016W        W42277   5.991   2.781  11.231 -0.1036 -0.2124 -0.1787
26017W        W42278  15.226   8.273   2.765  0.0161  0.0322  0.4276
26018W        W42279  18.854   1.035   0.574  0.0044  0.0066 -0.0060
26019W        W42280   4.069  14.499  10.346  0.2098 -0.0102 -0.1772
26020W        W42281   1.071   0.745   0.132 -0.0660 -0.1983  0.1643
26021W        W42282   2.052  12.346  14.342 -0.1253  0.3221  0.0949
26022W        W42283  13.573   5.555  11.638 -0.0946 -0.2513 -0.3818
26023W        W42284  19.346  15.638   0.960 -0.0691  0.1202  0.0746
26024W        W42285   2.205  12.761   0.160  0.2195 -0.0082  0.2471
26025W        W42286   0.394  11.456  14.248  0.0013 -0.0079  0.1173
26026W        W42287  16.246  17.994   2.978 -0.1238 -0.0628  0.1715
26027W        W42288  10.019  18.668   2.844 -0.2524  0.1295 -0.0423
26028W        W42289  10.402   9.532  13.018  0.0877  0.0222  0.0875
26029W        W42290   8.375   5.326  11.980 -0.1843 -0.4109  0.0716
26030W        W42291   7.193  12.256   4.860  0.0009 -0.1240 -0.1565
26031W        W42292  13.378   6.372  12.105  0.4809 -0.2369  0.0166
26032W        W42293  16.833  18.878  14.297 -0.0923 -0.0183  0.0626
26033W        W42294  18.534  13.123   2.667  0.0583 -0.2837  0.1245
26034W        W42295   2.991  15.994   3.428 -0.2441  0.2759  0.2946
26035W        W42296  10.737  13.902  10.993 -0.0090 -0.2005  0.1314
26036W        W42297   1.206   1.525  10.274 -0.1625  0.1715 -0.1522
26037W        W42298   6.278   9.096  14.360 -0.2818  0.0155  0.1008
26038W        W42299   2.570   2.336   4.050 -0.2823 -0.1042  0.4363
26039W        W42300   8.184   5.239   4.949  0.1317 -0.0749  0.1832
26040W        W42301  17.046  12.153  14.617 -0.2291 -0.4001  0.0151
26041W        W42302  16.029   4.423  14.580  0.0424 -0.5731  0.1194
26042W        W42303   7.023  17.359  10.691 -0.3921 -0.0560 -0.2279
26043W        W42304   7.718  15.770  12.722 -0.2242 -0.2047  0.1779
26044W        W42305  13.802   0.604  12.470  0.3543 -0.1361 -0.1254
26045W        W42306  16.321   9.148  10.668 -0.1598 -0.0075 -0.0315
26046W        W42307   2.498   9.330   0.349  0.1147 -0.4120  0.2071
26047W        W42308   3.630   5.858  14.317 -0.1069 -0.2162 -0.0649
26048W        W42309  14.209  11.459  14.505 -0.1225 -0.2554  0.3500
26049W        W42310   0.817   4.771   0.021  0.0378  0.0429 -0.0624
26050W        W42311   1.141   2.510  12.161 -0.1820 -0.0911  0.0439
26051W        W42312  14.002   7.559  13.966 -0.3636 -0.1192 -0.1310
26052W        W42313   6.924   0.885   3.331  0.0009 -0.3350  0.0085
26053W        W42314   5.809   7.252  12.915 -0.1409 -0.0361  0.1553
26054W        W42315   1.520   6.153  11.422 -0.0328  0.3058  0.1296
26055W        W42316  18.268  18.108   3.213 -0.0622 -0.0227 -0.0653
26056W        W42317   5.354  10.563   1.384  0.2463  0.2874 -0.1076
26057W        W42318  17.092  14.399   1.896  0.1838  0.3927 -0.0567
26058W        W42319  11.255  10.610   0.213 -0.4875 -0.3205 -0.1762
26059W        W42320  15.006   6.697   3.963 -0.0799  0.3510  0.0927
26060W        W42321  17.135  16.393   9.896 -0.0946  0.0244  0.2428
26061W        W42322   6.150   5.368  13.685 -0.2337 -0.3466 -0.2001
26062W        W42323   1.201  11.124   1.620 -0.3562  0.1698 -0.4705
26063W        W42324   6.985  18.752   0.514 -0.0841  0.1827 -0.0090
26064W        W42325   4.062  11.637  11.164  0.1862 -0.3332 -0.2931
26065W        W42326  13.189  16.062  10.416 -0.0312 -0.1652 -0.0078
26066W        W42327   1.455  12.813  12.237  0.0334  0.0049  0.1353
26067W        W42328  14.073   2.633   2.762 -0.2528 -0.1065 -0.1253
26068W        W42329   1.158  16.221   4.786 -0.0688 -0.1978  0.3350
26069W        W42330  15.582   4.267  14.386 -0.2118  0.0094  0.0132
26070W        W42331   1.138   9.346  13.023  0.0018  0.2136  0.1354
26071W        W42332  11.139   3.667   1.172 -0.0885 -0.2957  0.1690
26072W        W42333  10.826  11.089   2.784  0.1833 -0.2706  0.0854
26073W        W42334   1.950   8.806   4.466 -0.0977  0.0564  0.2239
26074W        W42335   1.216  16.473   5.556 -0.0545 -0.2972  0.1632
26075W        W42336   1.198   4.487   3.908  0.1982 -0.1635  0.2051
26076W        W42337   8.119  18.848  12.963  0.1203 -0.1332 -0.0127
26077W        W42338   1.594  11.695  13.913 -0.1868 -0.1944 -0.0644
26078W        W42339  13.832  11.509   3.961 -0.1187 -0.1549 -0.0370
26079W        W42340   2.782   9.717   1.222 -0.1356  0.1386  0.3446
26080W        W42341   8.818  12.197   3.823  0.0775 -0.0472  0.1892
26081W        W42342  16.907   2.085  12.155  0.3989 -0.4338  0.0843
26082W        W42343   1.533   3.013   5.041  0.0254 -0.0107 -0.0951
26083W        W42344   2.896  19.238   3.546  0.2565  0.1226  0.2502
26084W        W42345   9.484  11.201   3.078 -0.4674  0.2791 -0.1787
26085W        W42346   6.705  16.545   0.853 -0.0138 -0.1052 -0.0149
26086W        W42347   6.934   8.428   0.558  0.0968 -0.3763 -0.0002
26087W        W42348  19.327  12.281  11.007  0.3550 -0.3161  0.0145
26088W        W42349   5.624  16.678  11.520  0.1970 -0.2852 -0.0682
26089W        W42350   7.359  16.962   1.642  0.1621  0.1315  0.2156
26090W        W42351   4.779   3.832   4.651 -0.2990 -0.0912  0.0194
26091W        W42352  12.802  10.477   5.398 -0.0807 -0.0066  0.0128
26092W        W42353   5.112  17.576  14.674  0.3423  0.2189  0.1500
26093W        W42354  13.386  12.848  11.087  0.0480 -0.1387 -0.0202
26094W        W42355   1.843   8.086   1.495 -0.1379  0.2186  0.4187
26095W        W42356  16.293  10.179  14.534 -0.0884  0.2740 -0.2176
26096W        W42357  17.592   0.005   3.595  0.0007 -0.0631  0.0790
26097W        W42358   3.722   2.701  11.434 -0.0343  0.0501 -0.0621
26098W        W42359  14.310   6.189  11.779  0.0860  0.2335 -0.1903
26099W        W42360   4.508  14.748  12.249 -0.0419  0.2296 -0.0053
26100W        W42361  19.432   6.704   1.890 -0.1920 -0.0978 -0.0123
26101W        W42362   6.159  11.788  12.693 -0.1314 -0.1259 -0.1082
26102W        W42363  11.550   5.491  13.854  0.0136 -0.2135 -0.2110
26103W        W42364  18.925  14.672  12.000  0.2857  0.1487 -0.2256
26104W        W42365  11.871   5.616  11.814 -0.0328  0.0819  0.1682
26105W        W42366   8.565   7.116   3.949  0.1154  0.1381  0.4564
26106W        W42367  14.521   9.574  14.178 -0.1186  0.0651  0.1480
26107W        W42368  14.059  14.113  13.649 -0.0329  0.2686 -0.0148
26108W        W42369   9.898  14.311   0.206  0.0285 -0.2816 -0.0735
26109W        W42370   9.531   7.329  13.112 -0.1326 -0.2104  0.0089
26110W        W42371   4.340   6.863   0.498  0.1270 -0.4447  0.2344
26111W        W42372   7.342   9.979   1.858 -0.2217  0.1851 -0.1916
26112W        W42373   7.401  12.851   3.197  0.0603 -0.0328  0.0160
26113W        W42374  10.054  10.461   2.455  0.2773 -0.2163 -0.0107
26114W        W42375   6.373   3.544   0.028 -0.2001  0.1041  0.0920
26115W        W42376  18.723  17.045   3.729 -0.3460 -0.0362  0.1157
26116W        W42377  12.164   7.159  13.075 -0.1040  0.1935 -0.0146
26117W        W42378  18.924  18.489   2.285 -0.1171 -0.2664 -0.1144
26118W        W42379  19.429   2.700  14.229 -0.2153  0.0164 -0.0785
26119W        W42380  19.324   0.609  12.394 -0.2452 -0.4549 -0.0672
26120W        W42381  14.160  13.168   3.743 -0.1444 -0.0666  0.2400
26121W        W42382  18.783   2.499  13.637  0.1887  0.2539  0.0335
26122W        W42383   7.367   0.847   1.578 -0.0413  0.0750 -0.0435
26123W        W42384  18.177  11.763   2.807  0.0506  0.1741  0.1312
26124W        W42385  12.420   3.900   0.350 -0.0540 -0.2616  0.1114
26125W        W42386  18.492   5.451  14.050 -0.2450 -0.0508 -0.7976
26126W        W42387   7.770   5.547   3.150  0.4613  0.1345  0.0257
26127W        W42388  18.962  10.128  11.486 -0.3861 -0.2671  0.1965
26128W        W42389  10.087   1.557  12.403 -0.2193  0.1542  0.2998
26129W        W42390  13.321  12.122  10.458  0.0390  0.1057 -0.0483
26130W        W42391  15.064   3.975   2.413 -0.2472  0.5036  0.0299
26131W        W42392   6.503   2.226   2.771  0.1864 -0.2034  0.2238
26132W        W42393  19.061   9.271   9.973  0.0590  0.0414 -0.2036
26133W        W42394   1.286   3.436   2.912  0.1973  0.0435  0.1885
26134W        W42395   8.074   9.430   4.602 -0.2585 -0.0837  0.0833
26135W        W42396   3.413  17.462   4.601 -0.0952 -0.2556 -0.1207
26136W        W42397  10.715  13.105   4.800 -0.2608 -0.0392 -0.1724
26137W        W42398  10.104   6.805  13.535 -0.1550  0.0755 -0.3412
26138W        W42399  16.777   6.175  13.118 -0.1202  0.1577 -0.0857
26139W        W42400   3.518   0.373   3.332  0.0661  0.0117 -0.2301
26140W        W42401   1.761  10.485   3.103 -0.0006  0.0198  0.0302
26141W        W42402  11.890  18.140  14.029 -0.0252  0.0323 -0.0298
26142W        W42403   2.419  10.687   2.214  0.4902 -0.2262 -0.2250
26143W        W42404   9.016  12.090   1.868 -0.0278 -0.3165  0.1260
26144W        W42405  18.630  10.419  12.207  0.1821  0.1056  0.0147
26145W        W42406  13.826  10.818   1.278  0.1786 -0.3511 -0.2851
26146W        W42407   5.676   9.652   1.146 -0.4362 -0.2682  0.2524
26147W        W42408  16.004  15.967  12.618  0.0634 -0.1334 -0.1585
26148W        W42409   5.169   2.320  13.150  0.0055  0.0046  0.0996
26149W        W42410  18.827  18.226  14.286 -0.1968 -0.0177 -0.2257
26150W        W42411  16.212  14.198  10.503 -0.1907 -0.0766  0.1263
26151W        W42412   4.851   4.688   4.399 -0.1217 -0.1481  0.0389
26152W        W42413   5.781  17.169  10.008  0.2475 -0.1040 -0.0931
26153W        W42414  14.342  16.371  13.877 -0.0158  0.1324  0.1750
26154W        W42415   1.743   7.393   3.349  0.0123  0.0713  0.0684
26155W        W42416  10.389   7.552   2.419 -0.0493 -0.1360  0.2456
26156W        W42417  15.417  15.041   3.161 -0.1271 -0.4201  0.2864
26157W        W42418  14.384  10.367   3.874 -0.2216 -0.0445  0.1369
26158W        W42419  19.084  18.125  13.102  0.0177  0.1514 -0.3537
26159W        W42420  13.730  16.393  14.753 -0.0748 -0.3383 -0.2690
26160W        W42421   6.030   6.017   2.169 -0.2974  0.1624  0.0028
26161W        W42422   9.266  19.085  13.240 -0.0137  0.2886  0.1754
26162W        W42423   8.174   8.712   1.909 -0.0548  0.2151 -0.1166
26163W        W42424  14.604   7.064   1.839  0.1796 -0.1007 -0.0140
26164W        W42425   5.796  18.469   1.069  0.2652 -0.0871 -0.0202
26165W        W42426  14.585   4.903  13.571 -0.0166 -0.1052 -0.0216
26166W        W42427  11.311   2.299   0.212  0.2786 -0.0212  0.1643
26167W        W42428   0.584   0.198   1.073  0.2268 -0.3011  0.2352
26168W        W42429   6.633   8.882   4.000  0.3629  0.0299 -0.0583
26169W        W42430   8.569  17.644  12.045 -0.2491  0.0066 -0.0728
26170W        W42431  11.734   0.099   2.450 -0.1165  0.2126  0.0443
26171W        W42432   7.034  18.973   2.396  0.0676 -0.1216  0.0610
26172W        W42433  17.190  14.008  13.796 -0.1882 -0.0786 -0.0838
26173W        W42434   2.375   4.220   5.918 -0.0492  0.2621 -0.1605
26174W        W42435  16.895  15.980   4.127  0.0481 -0.1112 -0.0896
26175W        W42436  12.647   0.511   2.202  0.0032  0.3335 -0.1993
26176W        W42437  15.556   0.251   0.848 -0.2973 -0.0529  0.3526
26177W        W42438  14.888  18.615   0.146 -0.0655 -0.2023 -0.2515
26178W        W42439   2.893   0.990   5.046 -0.1072 -0.1017  0.3320
26179W        W42440  10.779   3.650   0.182  0.1327  0.2847 -0.3367
26180W        W42441  15.436  13.636   1.546 -0.0334  0.1325 -0.2549
26181W        W42442   3.408  13.190   4.553 -0.0759  0.3239  0.1198
26182W        W42443   8.052   9.410  11.617  0.2239  0.1290  0.4269
26183W        W42444   3.262   1.965  11.145 -0.2536  0.0127  0.1242
26184W        W42445  10.613  15.944   0.374  0.1861 -0.0726 -0.1421
26185W        W42446  18.576   6.934   4.997 -0.0665  0.0993  0.3819
26186W        W42447   4.079  17.531   0.919  0.0732 -0.1547 -0.0478
26187W        W42448  11.740   3.101   1.588  0.3682  0.1379  0.0308
26188W        W42449   2.216  10.263  13.727  0.0197 -0.2937 -0.4579
26189W        W42450  18.457   8.269  11.180 -0.5223  0.0472  0.1622
26190W        W42451  16.392  12.910   3.478  0.0902  0.0362 -0.3462
26191W        W42452   2.981  17.477   4.280  0.4029  0.0293 -0.1003
26192W        W42453  11.797   7.502   2.265  0.1804 -0.2272 -0.0033
26193W        W42454  12.080   1.018  12.205 -0.2520 -0.1676  0.1395
26194W        W42455   7.611  11.382   1.443  0.1853  0.0981 -0.1410
26195W        W42456  14.153  11.433   0.106  0.0566 -0.0937 -0.0875
26196W        W42457   4.590  17.867   5.495  0.0868 -0.0789 -0.1622
26197W        W42458  19.436  12.385  13.306  0.1195 -0.0707  0.0358
26198W        W42459  10.113  16.844  14.117  0.2987  0.2853 -0.1206
26199W        W42460   2.842   2.781   0.884  0.0407 -0.3309 -0.1752
26200W        W42461  15.436   6.771  14.447  0.2471 -0.1502  0.0096
26201W        W42462   0.211   4.143  14.107 -0.1548 -0.0392  0.2074
26202W        W42463   5.980   6.854   2.095 -0.2088  0.1089  0.0099
26203W        W42464  10.016   4.786  13.307 -0.1106  0.1203 -0.0751
26204W        W42465  15.440  14.943   3.655  0.3426 -0.1567  0.1398
26205W        W42466   7.486   4.392   4.794  0.0891  0.1506  0.0964
26206W        W42467   6.547  11.897  10.313  0.1553  0.0416  0.0351
26207W        W42468   3.241   8.928   1.053 -0.1972 -0.0802 -0.2428
26208W        W42469  11.786  18.651  14.169 -0.0221 -0.1775  0.4449
26209W        W42470  16.942  18.693  11.865  0.0455  0.0943  0.4470
26210W        W42471   5.811  10.856   3.654  0.0292  0.0148  0.2703
26211W        W42472   3.722  11.952  12.918 -0.3656 -0.1721  0.2260
26212W        W42473   1.827  18.312   1.238 -0.0604 -0.1392  0.1116
26213W        W42474  11.929   7.811   4.427 -0.4353 -0.0197  0.1006
26214W        W42475   4.326   4.749   1.761 -0.1108  0.1273 -0.0191
26215W        W42476  16.276  16.596   4.333  0.0183  0.1082  0.2513
26216W        W42477   5.261   9.150   4.030 -0.0595 -0.0345  0.0341
26217W        W42478  11.389   6.774   0.562  0.0321  0.1512  0.0364
26218W        W42479  19.444  16.573  11.230  0.0618  0.0105  0.0986
26219W        W42480  10.325  10.316  10.446  0.1267 -0.0856 -0.1815
26220W        W42481   7.893   4.032   2.221  0.2009 -0.1483  0.0579
26221W        W42482   5.100   0.907  13.200  0.0950 -0.4624 -0.1314
26222W        W42483  17.805   5.730   0.448  0.0789 -0.0298  0.2768
26223W        W42484  11.643  19.112   3.262  0.2845 -0.2319  0.0826
26224W        W42485   3.417   6.711  13.693 -0.0554 -0.1452 -0.4266
26225W        W42486  14.838   4.807  12.761  0.4188  0.0576 -0.1106
26226W        W42487  16.289   6.538   3.627 -0.0025  0.3437  0.0069
26227W        W42488  18.322   9.965   4.040  0.0637  0.3653  0.0343
26228W        W42489  17.409   2.512   3.240  0.2999 -0.2827 -0.2773
26229W        W42490   1.219   3.975   0.083 -0.2551  0.2293 -0.0576
26230W        W42491   3.684   7.381  12.922 -0.3590 -0.0845 -0.0158
26231W        W42492  12.282  13.483   3.579 -0.3502 -0.1147 -0.1669
26232W        W42493  13.990  15.029   2.489  0.1167  0.1203  0.1320
26233W        W42494  14.180   7.795  14.497  0.1626  0.0747  0.2627
26234W        W42495  14.493  18.664  11.109 -0.1070 -0.1766 -0.0573
26235W        W42496   5.865  16.432  11.147  0.2979  0.1880 -0.0972
26236W        W42497   4.017   8.404   3.790  0.0967 -0.0455  0.2357
26237W        W42498   8.665  13.877   2.404 -0.3826  0.1910  0.1368
26238W        W42499  10.406  15.952   3.280 -0.2154  0.0313 -0.1758
26239W        W42500  10.872   0.372  14.541 -0.0240 -0.0935 -0.0670
26240W        W42501  18.620   3.768  10.025  0.1426 -0.0997 -0.0755
26241W        W42502  14.170  13.485  14.138  0.0337 -0.0454  0.0374
26242W        W42503   8.721   7.704   0.395 -0.1261 -0.4377  0.4109
26243W        W42504   7.381  10.518  10.911 -0.0123 -0.4023  0.3030
26244W        W42505   4.900  19.081   3.551  0.2038  0.0258 -0.1013
26245W        W42506  12.619   6.916  13.117  0.0871  0.0445  0.2505
26246W        W42507   5.826   5.597   1.280 -0.0098  0.0881 -0.2459
26247W        W42508   8.779  18.147  10.762  0.0276 -0.1512  0.1386
26248W        W42509  12.936  12.441   0.303 -0.1997 -0.1351 -0.1868
26249W        W42510   0.521   8.877   2.350  0.0117 -0.0012  0.0096
26250W        W42511  12.013  18.792  13.237 -0.1683  0.0281  0.2022
26251W        W42512   1.715   0.113   2.199  0.1916 -0.0395  0.0905
26252W        W42513   5.675   3.155   1.737  0.0943  0.2199  0.0144
26253W        W42514   5.996  16.418   2.844  0.1071  0.3312  0.1061
26254W        W42515   2.407   5.952  10.761 -0.0598  0.0762 -0.4167
26255W        W42516  12.475  13.219  12.877  0.1433  0.2705 -0.1358
26256W        W42517   1.088   4.344   5.090 -0.1190 -0.1361 -0.2249
26257W        W42518  18.916   7.678   0.845 -0.0721 -0.1238 -0.2168
26258W        W42519   7.222   9.725  11.223  0.0354 -0.0236  0.0714
26259W        W42520   7.171   4.109  10.502  0.0068  0.3179 -0.2052
26260W        W42521   1.113  17.911   4.310 -0.0219 -0.0666 -0.2201
26261W        W42522   2.011  15.621  11.191 -0.0913  0.2570  0.2568
26262W        W42523   6.645   0.910  11.905  0.0645  0.0075 -0.3562
26263W        W42524  14.719  10.532   2.682 -0.2096  0.1594  0.0102
26264W        W42525  19.363  12.667  14.443 -0.1173  0.2104 -0.0562
26265W        W42526   9.063   9.863   9.802  0.1671 -0.2019 -0.3059
26266W        W42527  19.264  13.259  11.089  0.1103 -0.6101  0.4223
26267W        W42528   1.594  10.805   3.519  0.2791 -0.3232 -0.0285
26268W        W42529   2.373   0.732   1.387  0.2598 -0.0003 -0.0057
26269W        W42530   5.144   3.835   3.486  0.1047 -0.0793 -0.0220
26270W        W42531   6.470   8.441   4.164 -0.1469  0.2607 -0.0110
26271W        W42532   7.830  13.509  14.364 -0.1138  0.1038 -0.1563
26272W        W42533  11.719   3.077   4.844 -0.2958 -0.2735 -0.0440
26273W        W42534  15.390  15.376   4.592  0.0024 -0.2575  0.1875
26274W        W42535   7.178  10.678  14.095 -0.0561 -0.0841  0.0813
26275W        W42536   0.212   2.157  14.049 -0.3347 -0.1217 -0.0489
26276W        W42537   3.491   0.997  13.235 -0.3240 -0.0298 -0.1365
26277W        W42538   9.080   1.643   1.277  0.1040 -0.1746 -0.0419
26278W        W42539   4.228  17.554  13.275  0.0132 -0.0666  0.0518
26279W        W42540  17.035   8.857   2.291  0.0236  0.1172  0.1494
26280W        W42541   0.575  13.234  12.794  0.0964  0.0110 -0.1894
26281W        W42542   6.832  13.267   2.187 -0.0105  0.1121 -0.0661
26282W        W42543  15.887  11.013  14.388 -0.0306  0.0397  0.1554
26283W        W42544   5.019  14.744   3.094 -0.0754 -0.2061  0.1042
26284W        W42545   3.331   5.387   5.368 -0.1144 -0.2189 -0.1947
26285W        W42546  16.757  17.122   2.688  0.1098 -0.0633 -0.0045
26286W        W42547  13.917   1.494   3.171 -0.3975  0.1142  0.1464
26287W        W42548   9.705   0.406  12.935 -0.2388  0.3972  0.0092
26288W        W42549   9.050  14.033  14.805 -0.0318  0.1346  0.0242
26289W        W42550  15.579  17.860   0.581 -0.2103  0.0946  0.0137
26290W        W42551  12.219  17.700   0.416  0.1600  0.1222  0.3149
26291W        W42552   1.018  12.049  12.387 -0.3529  0.1433  0.2728
26292W        W42553  14.716  14.580   5.450 -0.4044 -0.0118 -0.1693
26293W        W42554   1.597  13.900   2.922 -0.3902 -0.2085  0.4883
26294W        W42555   4.870  12.569   3.952  0.0504  0.3344 -0.3638
26295W        W42556   2.513  11.725   3.307 -0.0002 -0.2129  0.2629
26296W        W42557   7.222  14.998  11.421 -0.0251 -0.1661 -0.3078
26297W        W42558  12.469  14.696  11.725 -0.2382 -0.2509 -0.0456
26298W        W42559   7.279  17.247   0.667  0.1576 -0.2643  0.1412
26299W        W42560   6.460  14.350   9.116  0.2528  0.0085 -0.1310
26300W        W42561   9.865   5.366  14.025 -0.0538 -0.0773  0.1399
26301W        W42562  13.471  17.997  10.090  0.1166 -0.0573 -0.0786
26302W        W42563  11.646   3.956   1.002 -0.0459 -0.0148 -0.0507
26303W        W42564   2.585   8.086  13.177  0.1353  0.0080  0.0376
26304W        W42565  12.292  10.724   9.497 -0.0883  0.0243  0.2045
26305W        W42566  15.619  10.554  13.053  0.3291 -0.3259  0.2820
26306W        W42567  15.489  11.728   4.373  0.1030  0.0379 -0.1213
26307W        W42568  16.572   2.981  10.956 -0.0388  0.5077  0.1041
26308W        W42569   6.201  14.093  11.313  0.0206 -0.0151  0.2711
26309W        W42570   2.842   5.311  11.571 -0.2422 -0.2103  0.0276
26310W        W42571   8.806  13.306   3.883 -0.0793  0.1231  0.2594
26311W        W42572   8.551   4.400  13.025  0.0427 -0.1052 -0.1205
26312W        W42573   9.361   2.169  11.093  0.2396  0.0089  0.1358
26313W        W42574  13.443  14.020  14.705  0.0240  0.1714 -0.2439
26314W        W42575  13.598  16.549   0.799 -0.3894  0.3252 -0.2136
26315W        W42576  10.981   2.581  13.860 -0.0143  0.0670  0.0159
26316W        W42577   7.685   2.395  12.452 -0.1509 -0.0407 -0.3705
26317W        W42578   6.920   6.782   2.921  0.1091 -0.0179 -0.0599
26318W        W42579   6.142   9.876   1.142  0.3248  0.2004 -0.1367
26319W        W42580  12.182  14.990   2.446 -0.0291 -0.3115  0.1412
26320W        W42581   4.381   5.675   2.496 -0.1277 -0.1492 -0.3823
26321W        W42582  17.931   9.146   1.122 -0.1380  0.1317 -0.1684
26322W        W42583   0.814  12.603   4.868  0.1616 -0.0159 -0.1000
26323W        W42584   7.717  10.581  14.213  0.2964  0.0295 -0.3611
26324W        W42585  10.685  14.318   1.226 -0.1692  0.1462  0.1387
26325W        W42586   6.413  13.415   4.925  0.0494  0.1467  0.0311
26326W        W42587  14.940  12.094   0.656 -0.0639  0.1292  0.1093
26327W        W42588   4.674  16.837   4.670  0.1863 -0.2322  0.0650
26328W        W42589  11.624  19.116  10.091  0.2040 -0.3747  0.1038
26329W        W42590  19.219   6.774   0.177 -0.3261 -0.0372 -0.0489
26330W        W42591  16.553  19.150   2.838 -0.0626 -0.2490  0.1862
26331W        W42592   1.253   8.706   4.375  0.4755 -0.0294 -0.0254
26332W        W42593  15.829   8.674   2.717  0.0708  0.5365  0.0725
26333W        W42594  11.538  17.722   5.015  0.2779  0.1450 -0.5483
26334W        W42595   3.254  14.444   2.593 -0.0034 -0.1998 -0.0635
26335W        W42596   0.579  15.127  14.688 -0.0069  0.0982  0.3772
26336W        W42597   7.824  19.393   0.878 -0.1853  0.3337  0.4328
26337W        W42598   5.029  17.558  11.775 -0.3483  0.5153 -0.1662
26338W        W42599   9.119  14.358   0.945  0.2591  0.3462  0.0325
26339W        W42600  19.178  12.995   0.403  0.3490 -0.2195  0.0593
26340W        W42601  17.209  18.808  12.352  0.0005 -0.1411  0.1537
26341W        W42602  16.004  19.404  11.793  0.0931 -0.0362 -0.1308
26342W        W42603   6.609   0.495   0.679  0.1154 -0.0389  0.1355
26343W        W42604   2.631   8.405  12.729  0.1291 -0.2568  0.0340
26344W        W42605   2.146  15.044  14.614 -0.0851 -0.0863 -0.0078
26345W        W42606  16.989  19.258   4.634  0.0160 -0.0089 -0.1363
26346W        W42607   8.478  10.464  12.311  0.0325  0.0085  0.1154
26347W        W42608  17.448   9.512   0.090 -0.2996 -0.1815 -0.1156
26348W        W42609  16.573   3.348   3.934 -0.5035 -0.2428 -0.0194
26349W        W42610  15.591  13.433   1.045  0.1583  0.2548 -0.1756
26350W        W42611   0.249   7.599   1.424 -0.0900  0.1328  0.1147
26351W        W42612   4.551   0.329  13.469  0.1473 -0.1978  0.1214
26352W        W42613  12.798  17.329  14.300  0.0107 -0.0171  0.0776
26353W        W42614   3.019  16.451   3.299 -0.1321  0.0915  0.4182
26354W        W42615   5.519   8.521  12.748 -0.0383 -0.0661  0.1258
26355W        W42616   0.772  14.858  12.709  0.1956  0.2669 -0.2993
26356W        W42617  17.420   5.061   4.761 -0.3113  0.1800  0.1027
26357W        W42618   8.813  10.605   2.750 -0.1484 -0.4256 -0.2415
26358W        W42619   9.363  16.692   1.013 -0.1622 -0.1071  0.0777
26359W        W42620   8.043  10.457   2.001  0.1021  0.2362  0.0697
26360W        W42621  15.836  16.059   2.087 -0.1549  0.0851 -0.0948
26361W        W42622  15.069   6.678   3.148 -0.1127 -0.0662 -0.0285
26362W        W42623  12.067  10.490  11.129 -0.2677 -0.0991 -0.0163
26363W        W42624   4.572   7.728   1.612 -0.5157 -0.0439  0.0906
26364W        W42625   8.484  18.001   0.498  0.5330  0.1464 -0.2002
26365W        W42626   9.585  15.378   9.876  0.0965  0.3464 -0.0612
26366W        W42627   2.833   1.506   1.139 -0.2745 -0.1570 -0.1310
26367W        W42628  15.183   7.163  12.666 -0.0542  0.2270  0.1874
26368W        W42629   6.591  11.554  12.585  0.0961  0.2474 -0.1131
26369W        W42630  17.192   2.957  12.234  0.3909  0.0937 -0.0432
26370W        W42631   1.814  16.639  13.144  0.3458  0.1456  0.0519
26371W        W42632   3.158  16.952   3.064 -0.1608  0.2765  0.1056
26372W        W42633  12.449  16.061   4.886 -0.0509 -0.0675  0.0550
26373W        W42634   2.085  11.582   4.605  0.1555 -0.2016  0.0268
26374W        W42635   7.137  16.137   3.325 -0.0234  0.0223 -0.0275
26375W        W42636   8.765   2.302   4.088 -0.0400  0.0777  0.0875
26376W        W42637  15.206   7.931  10.427 -0.1573  0.2244 -0.1679
26377W        W42638   2.972   8.540  13.170  0.0130 -0.3910  0.0186
26378W        W42639   9.603   8.008  11.282  0.2599 -0.0461  0.0733
26379W        W42640   2.722   4.093  13.609 -0.4017 -0.1087 -0.0723
26380W        W42641   8.319  11.683   1.941  0.2077 -0.1542  0.2335
26381W        W42642  16.336   0.889   2.199  0.0465  0.0149 -0.0892
26382W        W42643  15.072  13.354  13.419  0.2016  0.1845 -0.1997
26383W        W42644   3.063  17.222  14.083 -0.0723 -0.0218 -0.1175
26384W        W42645  19.308   5.447   5.268 -0.1267 -0.0776 -0.2356
26385W        W42646  18.943  15.409   0.019  0.3228  0.1316  0.1709
26386W        W42647  11.933  19.349  14.451 -0.1246  0.3418 -0.2556
26387W        W42648  15.984  17.120   2.164  0.1261 -0.0639  0.0290
26388W        W42649   4.105  19.323   1.631  0.3742 -0.1862  0.0807
26389W        W42650  11.043   2.691   3.689  0.1696 -0.0628  0.2742
26390W        W42651   5.034   2.616  13.580 -0.2125 -0.2474 -0.0980
26391W        W42652   9.173  15.100   3.824 -0.0060 -0.3913  0.3145
26392W        W42653   6.247  16.732  13.068  0.1257  0.1713 -0.0587
26393W        W42654  11.520   3.536  11.171 -0.2386 -0.0133  0.0587
26394W        W42655  12.986   4.389  13.988  0.0091  0.3084  0.1073
26395W        W42656  14.706  14.200   1.446 -0.1210  0.0804 -0.2897
26396W        W42657  13.811   8.663   1.651 -0.1129  0.1746 -0.0331
26397W        W42658  12.067   8.332   4.817  0.2981  0.0023  0.0826
26398W        W42659  12.837   9.381  11.131 -0.3308  0.0317 -0.0786
26399W        W42660  19.132   2.107  11.440 -0.1546  0.3495 -0.1745
26400W        W42661   1.609   5.445  13.656  0.1338 -0.1059  0.0945
26401W        W42662   6.030   5.608   2.535  0.0882 -0.0278  0.0262
26402W        W42663  13.577   7.837  13.263 -0.0060 -0.1948  0.1165
26403W        W42664   2.326   8.599   3.666 -0.1983 -0.2668 -0.1840
26404W        W42665   7.978   9.787   4.212 -0.0511  0.0371  0.0322
26405W        W42666   1.105  16.764   3.053  0.0808 -0.0435 -0.1454
26406W        W42667   4.346   9.717   1.904  0.2528 -0.0839  0.2012
26407W        W42668   9.803  10.748   3.203 -0.3200 -0.0403 -0.1238
26408W        W42669  13.687  12.658   2.996  0.0544  0.2800  0.1403
26409W        W42670  16.156  16.438  10.009 -0.0412  0.2268  0.0153
26410W        W42671   9.561  13.237  14.395  0.0874 -0.1910  0.1015
26411W        W42672   9.514  18.998  12.346 -0.1709  0.0640 -0.2012
26412W        W42673   6.305  17.246   3.530  0.2318  0.1007 -0.2619
26413W        W42674  12.427  17.004   1.499  0.1596  0.0180 -0.1128
26414W        W42675  18.709   3.795  14.000 -0.1085  0.1440  0.0101
26415W        W42676  12.888  15.587   0.576  0.1806 -0.0374 -0.1074
26416W        W42677   6.005  12.181  14.844  0.0636  0.1406 -0.1172
26417W        W42678   5.501  12.184  10.272  0.2206 -0.1664 -0.0069
26418W        W42679  14.177  11.954  14.495  0.0961  0.0847  0.2467
26419W        W42680  13.496  14.824  10.118  0.2864  0.2493 -0.1286
26420W        W42681   5.682  13.991  14.589 -0.1850  0.1144 -0.0279
26421W        W42682   7.181   3.413   4.214 -0.1945 -0.2656 -0.2067
26422W        W42683   7.829  12.997  12.043  0.0612  0.0649  0.0299
26423W        W42684   8.464   5.459   2.508  0.2580  0.2058 -0.2204
26424W        W42685   1.299   4.115   2.388  0.1635 -0.4550  0.2580
26425W        W42686   3.378   9.347   0.532  0.2572  0.0891 -0.5823
26426W        W42687  13.904  18.186  12.506 -0.1105  0.1606  0.1590
26427W        W42688  12.543   7.842   2.917 -0.0050 -0.1561  0.0308
26428W        W42689  10.964   0.574   1.462 -0.0015 -0.1522 -0.0436
26429W        W42690   0.386   9.885   2.558 -0.0370 -0.0749  0.0144
26430W        W42691   0.810   5.377   4.975 -0.0381 -0.0820 -0.1777
26431W        W42692  12.166   0.594   4.755  0.1593  0.0069  0.0256
26432W        W42693  19.322  13.756   0.606  0.1529  0.0449 -0.1759
26433W        W42694   1.556  14.019  14.396  0.0065  0.0780 -0.2273
26434W        W42695   0.302  11.750   4.792  0.1481 -0.5722 -0.2723
26435W        W42696  10.340  15.009  10.239 -0.1836  0.0354 -0.3382
26436W        W42697   9.997  13.310  10.130  0.2546 -0.1197 -0.0559
26437W        W42698   2.201   9.027   1.519 -0.1112  0.0645  0.5024
26438W        W42699  17.443  17.410   0.738 -0.3082 -0.1895 -0.2909
26439W        W42700  11.434  18.161   1.016  0.1354 -0.2391 -0.1712
26440W        W42701   0.807  10.811  10.473 -0.0502  0.1141 -0.0579
26441W        W42702   5.386  17.143   4.083  0.2252 -0.1213  0.1549
26442W        W42703   8.133   0.566   9.054  0.0478 -0.3620  0.2230
26443W        W42704  10.948  17.048   4.565 -0.2853  0.1512  0.0362
26444W        W42705  18.830   1.817   1.011 -0.1361 -0.4764  0.0242
26445W        W42706  11.710   7.420  13.924 -0.1916 -0.0536  0.2752
26446W        W42707  11.233   0.630  14.236  0.0347  0.0730 -0.1843
26447W        W42708   0.268   2.269   0.675 -0.2018  0.1189 -0.1521
26448W        W42709  19.219   3.957  12.679  0.1568  0.1807 -0.1801
26449W        W42710   7.872   1.174  11.159  0.2095  0.0414 -0.2107
26450W        W42711  12.691  15.346  10.063  0.1008 -0.2345 -0.2801
26451W        W42712  13.699   1.729  12.684 -0.0992 -0.3798  0.2130
26452W        W42713  15.142   2.747   2.288  0.0544 -0.2215 -0.2607
26453W        W42714   7.222  10.739  11.703  0.4795  0.2198  0.2449
26454W        W42715  10.690   0.258   9.928 -0.2378  0.2428 -0.3297
26455W        W42716   8.006   8.713  10.997  0.1024  0.0766  0.2126
26456W        W42717   9.403  16.576  12.883 -0.0675  0.0691 -0.2476
26457W        W42718   8.732   0.364  12.851 -0.3026  0.1451 -0.1537
26458W        W42719  12.434  16.359   1.422 -0.0110  0.1054 -0.1616
26459W        W42720  10.760   7.122  11.382  0.2114 -0.0731  0.2923
26460W        W42721   3.018  17.378   1.732  0.0453 -0.0146 -0.0436
26461W        W42722  12.336   4.390   0.549 -0.0350  0.0817  0.1043
26462W        W42723   4.941   0.503  10.972  0.0002  0.1226  0.3570
26463W        W42724  12.554   3.648   5.705 -0.0916  0.1170  0.2139
26464W        W42725  13.925  16.529  13.614 -0.2817 -0.1260  0.1745
26465W        W42726  17.896   9.249   4.080  0.3158  0.1031  0.5208
26466W        W42727  17.649  14.572   3.836 -0.2144  0.3260  0.1834
26467W        W42728   9.598   2.617   2.887  0.1548  0.0167 -0.0648
26468W        W42729   3.780  18.760   0.766 -0.2125  0.0115 -0.0123
26469W        W42730   8.171  14.589   2.332  0.0051  0.1893  0.1554
26470W        W42731   5.527  16.262   2.773 -0.2330  0.1941 -0.0813
26471W        W42732   0.619   1.427  13.037 -0.1405 -0.0305 -0.2934
26472W        W42733   2.830   0.115   3.980 -0.0210 -0.1526 -0.0095
26473W        W42734  18.620  15.550   1.594 -0.0941 -0.2482  0.1567
26474W        W42735   9.425   6.043  12.488 -0.2111 -0.1415 -0.1456
26475W        W42736   0.208  13.266  11.441 -0.0897 -0.0258  0.0798
26476W        W42737   3.156   9.381   1.206  0.0171 -0.2616 -0.2437
26477W        W42738   6.299   5.354   3.075 -0.0466 -0.0055 -0.2966
26478W        W42739  12.359   1.002   5.053 -0.2683 -0.0494  0.2237
26479W        W42740   0.738  12.075  11.551  0.2008  0.2650  0.0025
26480W        W42741   4.980   8.198  12.542  0.0074 -0.2688  0.0663
26481W        W42742  13.785  17.039   1.919  0.3173  0.0698  0.0666
26482W        W42743   9.503   8.748  10.750  0.2349  0.2783 -0.1447
26483W        W42744   5.141   8.493  10.941  0.1181  0.3617 -0.1111
26484W        W42745  12.754  15.644  12.860 -0.1990  0.2600 -0.1366
26485W        W42746  16.582   7.995   4.209  0.0926 -0.2575 -0.0938
26486W        W42747  11.487   0.654   0.547  0.0997 -0.0543 -0.3420
26487W        W42748  17.573  13.846   2.310  0.1851 -0.0050 -0.1632
26488W        W42749   4.910  12.635   1.586 -0.0874  0.1602 -0.2212
26489W        W42750   2.039   5.080  12.505  0.4747 -0.4945 -0.1963
26490W        W42751   4.128   5.169   0.733  0.0978 -0.1450  0.0118
26491W        W42752  19.322   5.929   3.456  0.1369  0.0054 -0.0673
26492W        W42753   1.152  19.443  12.031 -0.1636  0.4447 -0.1263
26493W        W42754  15.339  14.512  12.018  0.1983  0.1248 -0.0206
26494W        W42755  13.352  10.768   2.498 -0.0916  0.3759  0.0054
26495W        W42756   5.155   8.302   1.745 -0.4326  0.1734 -0.0324
26496W        W42757   1.072  15.662  12.367 -0.1011 -0.2348 -0.2685
26497W        W42758   6.035  16.318  13.548  0.2854  0.1357  0.2827
26498W        W42759   0.897  10.659  11.928  0.2305  0.0305  0.0256
26499W        W42760   6.320  16.070  11.270  0.0737  0.2270  0.0385
26500W        W42761   0.613  10.377   3.378  0.1248 -0.0094 -0.1156
26501W        W42762   8.634   1.495   0.568 -0.0041 -0.0637 -0.1081
26502W        W42763  13.189  12.837   0.036 -0.0234  0.2884 -0.1638
26503W        W42764   7.176  15.968   0.666 -0.1392 -0.0149  0.3930
26504W        W42765  15.206  14.733   2.207 -0.1494 -0.0594 -0.1927
26505W        W42766   1.924  18.442  13.377 -0.1525  0.1226  0.1301
26506W        W42767   2.878  16.652  11.716 -0.0268  0.3027 -0.1565
26507W        W42768   7.290   4.259  11.005 -0.2009  0.0750 -0.0704
26508W        W42769   9.747  15.775   3.511  0.2032  0.2093 -0.1111
26509W        W42770  19.014  15.104  10.449  0.0438 -0.1322  0.0902
26510W        W42771   7.389  10.998  10.746 -0.0491  0.2133  0.1128
26511W        W42772  12.610  15.520   2.950 -0.1937 -0.1643  0.1700
26512W        W42773  17.430   0.695  12.832  0.0221 -0.1048  0.0787
26513W        W42774  13.945   4.945   3.557  0.4206 -0.2365  0.1856
26514W        W42775  11.679   4.126  12.168  0.2647 -0.2743 -0.0733
26515W        W42776  12.015   5.216  11.509 -0.1680 -0.0750  0.0344
26516W        W42777   3.552  17.670  14.832  0.0612 -0.2124 -0.0420
26517W        W42778   8.030  15.760  10.974 -0.1350 -0.0786 -0.2719
26518W        W42779   7.288   5.096   0.948 -0.1433  0.1722  0.0554
26519W        W42780  11.089  15.318   4.503  0.3201 -0.1014  0.4000
26520W        W42781   3.780   1.728  14.744  0.0399  0.0040 -0.2859
26521W        W42782   2.462  17.068   0.026  0.0653  0.3911 -0.0066
26522W        W42783  18.412   1.166  12.011  0.0629  0.0744  0.0476
26523W        W42784   3.932  14.346   1.160  0.0248 -0.1510 -0.0251
26524W        W42785   3.293  15.362   0.244  0.3036 -0.0533  0.1207
26525W        W42786   7.358  11.167  13.115 -0.1719 -0.2907 -0.1848
26526W        W42787   7.241   8.809   4.246 -0.2031 -0.1477 -0.0378
26527W        W42788  13.999   7.692   3.025 -0.0415 -0.1931 -0.1482
26528W        W42789   4.148  13.114  11.218  0.0719 -0.0347 -0.0643
26529W        W42790  10.829   4.284   1.224  0.0047 -0.1181  0.1632
26530W        W42791  16.726  10.570   4.350 -0.0167 -0.3220 -0.1681
26531W        W42792  12.304   4.801   9.555  0.0319  0.0714  0.1221
26532W        W42793   5.051   4.255   4.804 -0.1391  0.1626 -0.1378
26533W        W42794   9.408   7.875   0.262 -0.2107 -0.1942  0.1638
26534W        W42795  17.469  17.876   1.511  0.3239 -0.0009  0.0626
26535W        W42796   3.782   6.949  11.100 -0.0042  0.3779  0.0383
26536W        W42797  17.546   4.140  11.582  0.3084  0.2184 -0.4766
26537W        W42798  17.550   1.676  12.663 -0.1683  0.1227  0.1299
26538W        W42799   8.765  13.711  11.552 -0.1488 -0.4435 -0.1420
26539W        W42800   8.179   5.977   1.656  0.2430 -0.1436  0.1643
26540W        W42801   2.054  14.389  14.327 -0.2349  0.1979 -0.2491
26541W        W42802   8.230   3.196  13.853 -0.2274  0.1069  0.1804
26542W        W42803  18.657   9.453   1.774  0.2802 -0.0392 -0.0700
26543W        W42804   6.515   9.278   2.618  0.1272 -0.1188 -0.1272
26544W        W42805   9.752   1.192  10.137 -0.2378  0.0453 -0.1397
26545W        W42806  14.382   1.998   4.279  0.0993 -0.2337 -0.0392
26546W        W42807   9.431  16.823   2.015 -0.2331 -0.2349 -0.2154
26547W        W42808   6.255   6.541  12.902 -0.0522 -0.2145 -0.0829
26548W        W42809   7.914   6.528  10.313  0.0087  0.0489  0.1548
26549W        W42810  13.882  10.409  10.575  0.0834 -0.0684 -0.0046
26550W        W42811   9.354  11.819   0.960 -0.0798 -0.1566  0.1785
26551W        W42812   6.151  17.066  12.508 -0.1862 -0.1925  0.1084
26552W        W42813  10.942  17.914  10.017  0.5898 -0.1900  0.0180
26553W        W42814  12.475  18.269  14.550 -0.0543 -0.2680 -0.1724
26554W        W42815   0.797   7.342   3.809 -0.2366  0.1219 -0.2593
26555W        W42816  18.256  18.759  10.625 -0.2864  0.0011 -0.1758
26556W        W42817   6.241   8.686  13.881  0.2337 -0.0110  0.0826
26557W        W42818  19.366   1.927   2.444 -0.0663 -0.1810 -0.2786
26558W        W42819  16.404  15.696   2.851 -0.0404 -0.0071 -0.0602
26559W        W42820   7.968   7.025  13.666  0.3529  0.1140  0.0565
26560W        W42821  17.460   7.508   4.429 -0.0221  0.1970  0.2394
26561W        W42822   6.349   1.468  13.422 -0.1898 -0.0140 -0.2154
26562W        W42823  12.858  14.601   0.283  0.2563 -0.0192  0.0047
26563W        W42824  17.862   3.897  13.329  0.4651  0.3064  0.0614
26564W        W42825   5.994   7.220  12.494 -0.0899 -0.1072 -0.0613
26565W        W42826  11.657  17.079   2.170 -0.4366  0.1672  0.0191
26566W        W42827  12.678  13.165  11.596  0.1476 -0.2859  0.3356
26567W        W42828   4.383  15.162  12.489 -0.0389  0.3238  0.0109
26568W        W42829  10.410   1.133   4.261  0.3515 -0.2546  0.0877
26569W        W42830  16.510   4.821   2.190  0.1824  0.3525 -0.1645
26570W        W42831  12.826  15.777   3.330 -0.3029  0.0466 -0.1179
26571W        W42832   9.316   0.803  12.202  0.2470 -0.0338  0.1912
26572W        W42833  15.971   9.433   2.282  0.1604 -0.1433  0.1986
26573W        W42834   6.814  13.899  14.718  0.0043 -0.1803  0.0038
26574W        W42835  14.143   1.369  11.722 -0.2455  0.0220 -0.0156
26575W        W42836  12.630   0.402  14.171  0.2045  0.1705 -0.1860
26576W        W42837   8.118   2.519   0.241  0.5711 -0.0084  0.0185
26577W        W42838   3.005  11.734   4.590 -0.0549  0.2567 -0.1396
26578W        W42839   4.216  10.451  10.797 -0.1463  0.1224  0.1132
26579W        W42840   3.756   5.348  11.575  0.0120 -0.2848  0.0216
26580W        W42841  16.800   1.739  13.330 -0.3113 -0.2834  0.0233
26581W        W42842  18.643   6.326   1.894  0.1383 -0.0283 -0.0026
26582W        W42843   2.237   0.393  12.421  0.0592 -0.3947 -0.2238
26583W        W42844  19.284  10.342  12.418  0.0992  0.0178 -0.0483
26584W        W42845   0.024   4.934  13.569  0.0875 -0.1235 -0.1103
26585W        W42846   6.147  18.265  11.985  0.1768 -0.2040  0.1213
26586W        W42847   8.776  18.328   5.117 -0.3275 -0.1023 -0.1077
26587W        W42848  18.601   1.243  14.457 -0.1482  0.0911  0.1105
26588W        W42849   4.032  11.640  10.665 -0.1044 -0.1742  0.4933
26589W        W42850  18.759   4.693   2.665 -0.0202 -0.0981  0.1043
26590W        W42851  12.964  15.411   4.555 -0.3112 -0.1288 -0.2848
26591W        W42852   9.341  15.071   1.864  0.3550  0.2808  0.1350
26592W        W42853   4.310  12.975  14.116  0.0159 -0.2923 -0.1883
26593W        W42854   8.002  14.927   3.330 -0.0404  0.0061  0.3676
26594W        W42855  16.573  11.827   5.258 -0.3267  0.0441  0.0133
26595W        W42856  11.632  16.547  13.390 -0.2124  0.0445 -0.2359
26596W        W42857   3.632   1.755  12.100  0.2513 -0.0226 -0.0729
26597W        W42858   5.378  18.024   0.116 -0.1456 -0.1091  0.5861
26598W        W42859  13.712  17.924   0.567 -0.0324 -0.2351 -0.1146
26599W        W42860  17.597   8.406  10.758  0.0514  0.0052 -0.0037
26600W        W42861   3.791   4.676  13.129 -0.1215  0.2093  0.0673
26601W        W42862   6.561  17.828   0.213  0.1886 -0.0868  0.0194
26602W        W42863   3.638  16.941   4.869  0.1153  0.2170  0.1618
26603W        W42864   3.493  10.892   0.716 -0.2176  0.3752 -0.0200
26604W        W42865  19.386   7.732   4.735 -0.2986 -0.0556  0.2579
26605W        W42866   7.422  18.428  13.515 -0.0569  0.1846 -0.1161
26606W        W42867   5.953   9.509  11.791 -0.1935 -0.1133 -0.2963
26607W        W42868   1.075  15.362   1.489 -0.2804 -0.0131 -0.1809
26608W        W42869  10.554  18.154   3.613  0.1309 -0.1536 -0.2382
26609W        W42870   2.341  15.131   2.148 -0.0855  0.0811 -0.0396
26610W        W42871  17.308   0.429   1.007  0.1827 -0.0294  0.5265
26611W        W42872  12.313  13.398   1.825  0.5760 -0.2704 -0.4115
26612W        W42873  18.413   7.055  12.474 -0.0345  0.0359 -0.1681
26613W        W42874   8.931  14.096  13.917 -0.1019 -0.0631  0.3244
26614W        W42875   6.193  13.169   9.973 -0.4161  0.0837  0.1091
26615W        W42876  17.195   6.778   3.681 -0.2974  0.0091  0.1096
26616W        W42877   1.408  11.331   3.004 -0.3700  0.1000 -0.2466
26617W        W42878   2.097   7.705  13.944  0.2547  0.1122 -0.3583
26618W        W42879   4.495  19.434  13.950 -0.1862 -0.0453  0.0148
26619W        W42880  11.617  15.873  10.985 -0.1843 -0.0094  0.1207
26620W        W42881  14.926   0.126  10.065 -0.2240  0.0401  0.1681
26621W        W42882  17.959  10.979   3.362 -0.0066  0.0723 -0.1820
26622W        W42883   8.703   7.203   1.859  0.4360 -0.0907  0.1362
26623W        W42884   2.043   5.235   4.083 -0.2972  0.0311  0.2368
26624W        W42885   2.306   8.297   4.481  0.1977 -0.2325  0.2655
26625W        W42886  13.511   4.181  12.546  0.1730  0.1137  0.1918
26626W        W42887   5.841   9.043  14.620  0.1982 -0.4319 -0.1110
26627W        W42888   7.576  19.426  10.469 -0.3033  0.0539 -0.2647
26628W        W42889   5.828   1.182  14.571 -0.0890  0.4366 -0.1428
26629W        W42890   3.918   7.507  11.266 -0.3400  0.1974  0.0455
26630W        W42891   3.535  14.877  10.186 -0.0074 -0.0481  0.1393
26631W        W42892  17.535   9.016   1.338  0.0252  0.0087  0.2239
26632W        W42893  13.343  16.430   3.786 -0.3548 -0.0507  0.2127
26633W        W42894  16.138   7.027   3.402 -0.0828  0.0444 -0.0130
26634W        W42895  13.218  15.910  12.890 -0.1343 -0.0338  0.3496
26635W        W42896  14.946  14.722   3.185  0.0193 -0.0524  0.3004
26636W        W42897  12.271  16.260   3.500 -0.0508  0.4066 -0.0130
26637W        W42898  17.683  17.405  13.236 -0.1525  0.0768 -0.3596
26638W        W42899   9.934  17.290   4.677  0.0055 -0.0379 -0.0881
26639W        W42900   8.102  13.952  14.268 -0.1801 -0.1877  0.2255
26640W        W42901   6.949  18.265   3.079  0.0525 -0.5864  0.1414
26641W        W42902   8.818   4.755  13.820 -0.0268 -0.3705  0.1159
26642W        W42903  18.175  11.553   0.786  0.0889 -0.0223  0.1743
26643W        W42904   2.437   6.735  12.481 -0.1377  0.0318 -0.0921
26644W        W42905  18.447   2.682   0.050  0.0144 -0.0278  0.1926
26645W        W42906   3.624   1.966   4.790  0.0271  0.1261 -0.0118
26646W        W42907   5.478   2.623  11.751 -0.2310  0.0427 -0.2947
26647W        W42908   7.168  12.695  10.174  0.0693 -0.3562  0.0149
26648W        W42909   1.971   6.618   2.957  0.1140 -0.2666  0.2026
26649W        W42910  12.855  17.690   1.294 -0.0982 -0.1495 -0.0793
26650W        W42911  11.497  13.618   4.669 -0.2074  0.0716  0.1561
26651W        W42912  14.573   5.838   4.931 -0.0356 -0.1763 -0.0532
26652W        W42913   3.284  16.204  10.848 -0.3653 -0.0440 -0.0735
26653W        W42914   7.945   6.744   1.412  0.2598 -0.0264 -0.1011
26654W        W42915   3.523   5.836   1.183 -0.1772 -0.0340  0.2524
26655W        W42916  12.916  12.083   3.374  0.0247 -0.1461 -0.1445
26656W        W42917  15.278   4.702  11.946  0.1955 -0.0017 -0.2642
26657W        W42918   4.061   3.483  13.097 -0.0751 -0.1728 -0.0767
26658W        W42919  17.337   9.047   4.002 -0.0153  0.2914 -0.2249
26659W        W42920   6.571  14.307  10.164  0.1317 -0.1466  0.1217
26660W        W42921   7.511   5.226  10.532 -0.1536 -0.1837  0.0223
26661W        W42922  15.028   7.801   2.955  0.2578 -0.3735 -0.1016
26662W        W42923   3.080   6.252  10.588 -0.0423  0.4490  0.0748
26663W        W42924  17.356   5.015   2.218  0.2429 -0.3982 -0.0343
26664W        W42925  12.525   2.153  14.222  0.2141 -0.1564 -0.2278
26665W        W42926  13.433  12.412  14.002 -0.1233  0.4764  0.0768
26666W        W42927   3.612  18.192   0.028 -0.2133  0.0337  0.0722
26667W        W42928   1.503  18.718   2.810  0.2096  0.1684  0.1033
26668W        W42929  16.726  12.121  13.108  0.1849  0.0675  0.0480
26669W        W42930   3.260   9.617   9.363  0.3074  0.1041  0.0551
26670W        W42931  12.860   0.042  13.210  0.3377  0.1194 -0.0436
26671W        W42932   2.587  16.179   4.438  0.2205  0.2888 -0.0548
26672W        W42933  11.013   6.970   3.310  0.2000 -0.1234 -0.5403
26673W        W42934   1.210   7.414  12.883  0.3380 -0.1606 -0.1091
26674W        W42935  14.394  10.307  10.749  0.2963  0.0851 -0.2684
26675W        W42936   9.233  19.093   3.241 -0.0190  0.1387 -0.1850
26676W        W42937   4.636   6.933   3.678  0.0150  0.2339  0.0250
26677W        W42938   8.746  18.536  13.382  0.0694 -0.0748  0.1771
26678W        W42939   3.584  11.318   0.483 -0.2838 -0.0103  0.1675
26679W        W42940   5.881   8.815   1.605  0.2105 -0.1669 -0.1416
26680W        W42941   5.481  17.209  11.328 -0.0208  0.0346 -0.1144
26681W        W42942  11.471  16.462   4.583 -0.0576 -0.2926 -0.0069
26682W        W42943  10.413  15.048  14.458  0.3092  0.1322  0.1155
26683W        W42944  15.917  16.054   4.125 -0.0664 -0.0227 -0.0496
26684W        W42945   0.874  19.077  13.378 -0.1918  0.2212  0.0792
26685W        W42946  18.423  15.471   2.481  0.2520 -0.0407  0.0240
26686W        W42947  19.428  11.122  13.937  0.1572 -0.0809 -0.3002
26687W        W42948   8.400   0.189   2.975  0.1106  0.2300  0.0047
26688W        W42949  16.883   1.256   2.756  0.2892  0.2534  0.0722
26689W        W42950   7.661   4.042   1.777  0.1199 -0.0335 -0.0772
26690W        W42951   5.534  15.540  13.508  0.0653  0.1865  0.0997
26691W        W42952  16.147   0.120   3.474 -0.1765 -0.1171 -0.0215
26692W        W42953   1.947   6.850   5.385  0.0979 -0.0443  0.2463
26693W        W42954   8.520   5.895  13.691  0.1144 -0.2516  0.0997
26694W        W42955   4.846   5.416  14.003 -0.0627 -0.3693 -0.1216
26695W        W42956   6.701   7.565   1.549 -0.3512  0.0072  0.0862
26696W        W42957  10.489  16.441   1.956 -0.2958  0.0536  0.1535
26697W        W42958   4.244   9.883  11.471 -0.1992 -0.0717  0.1661
26698W        W42959   6.740   5.036   3.978 -0.2827  0.2982 -0.0732
26699W        W42960  15.708  19.106   1.702  0.1356 -0.0704  0.0075
26700W        W42961  16.346   1.421   1.557  0.1841  0.2178 -0.0687
26701W        W42962   0.673   7.950   1.386 -0.1162  0.0831 -0.1522
26702W        W42963  10.225   7.300   0.114  0.3113  0.1051 -0.5227
26703W        W42964  10.154  12.857   0.116 -0.0002 -0.2979 -0.0141
26704W        W42965   2.310   3.849   0.065 -0.1941 -0.1653 -0.0156
26705W        W42966  18.184  14.695   0.301 -0.0264 -0.3747  0.1317
26706W        W42967  16.973   6.279   1.415 -0.0686  0.0285  0.5342
26707W        W42968   1.484   4.648   4.952 -0.0874  0.0155 -0.3083
26708W        W42969  10.981  13.030  12.594 -0.0361  0.1078 -0.0175
26709W        W42970  14.054   3.854   3.009  0.1007 -0.0835 -0.0012
26710W        W42971   3.223  16.963   4.482  0.0235  0.2857 -0.1772
26711W        W42972   0.490   8.773   0.153 -0.2498  0.1545 -0.3431
26712W        W42973  18.675   3.551   5.946 -0.2721  0.1393 -0.1804
26713W        W42974  15.010   2.149  13.362 -0.1523  0.1849  0.0090
26714W        W42975  15.208  13.164  10.488 -0.2797 -0.1394  0.1785
26715W        W42976   1.111  10.917  11.477  0.1699  0.1039  0.0901
26716W        W42977  17.606  12.707  10.569 -0.0255 -0.0420  0.1589
26717W        W42978  10.484   2.843   4.929  0.3033 -0.1621 -0.1446
26718W        W42979   7.073   3.185  14.322  0.1537 -0.0934 -0.0356
26719W        W42980  14.296   7.863  10.365  0.1158 -0.2682 -0.2070
26720W        W42981  18.109  17.748   4.030 -0.0411 -0.2443  0.2882
26721W        W42982  18.097  17.037  14.155  0.0974 -0.0808 -0.0955
26722W        W42983   0.231   8.020   1.717  0.0111 -0.1536  0.0306
26723W        W42984  19.229  11.879   4.750  0.0398 -0.0276  0.0498
26724W        W42985   1.143  10.046   1.981  0.2480 -0.1334  0.1633
26725W        W42986  11.355  13.405   3.327  0.2390 -0.1014 -0.0075
26726W        W42987   3.992  17.855   0.299 -0.0065  0.3242 -0.2767
26727W        W42988   7.331   3.948   2.303  0.1233  0.0907  0.1235
26728W        W42989   3.286   7.208  12.720  0.1250  0.0665  0.3194
26729W        W42990   3.021   2.118   2.825 -0.0509 -0.1351 -0.0163
26730W        W42991   2.135  14.608  10.786  0.1022 -0.0029  0.1809
26731W        W42992  12.557  16.098  13.626 -0.0380 -0.1737 -0.4080
26732W        W42993   2.231   5.536  12.311 -0.0680 -0.1757  0.1631
26733W        W42994  12.087   6.774  12.761 -0.2489 -0.1011 -0.1249
26734W        W42995   8.258  18.889  11.368  0.0630  0.1960  0.0842
26735W        W42996  18.582  17.166  13.210  0.2549  0.0891 -0.0051
26736W        W42997  19.060  14.672   2.050 -0.0079  0.1134 -0.1666
26737W        W42998  17.090   0.630  10.345  0.2022  0.2808  0.1455
26738W        W42999  13.839   6.412  11.735  0.0723 -0.0485 -0.0108
26739W        W43000   2.409   1.643   4.764  0.2572  0.0161  0.1321
26740W        W43001  14.822  11.899   2.957 -0.0083 -0.1365 -0.0718
26741W        W43002   9.897  17.363   0.655  0.3507  0.3268 -0.2655
26742W        W43003   7.733  16.638  10.928  0.1436  0.1819  0.2292
26743W        W43004  14.294  14.604  10.765  0.0392 -0.1007 -0.3211
26744W        W43005   4.293   1.323   3.793 -0.3397 -0.2177  0.1779
26745W        W43006  10.340   6.776   0.438 -0.0566  0.1613  0.1104
26746W        W43007  14.199   6.746  11.605  0.1905 -0.0065  0.0155
26747W        W43008  14.812   6.480   4.489  0.1235 -0.2905 -0.2072
26748W        W43009  17.562   8.518   2.691  0.2229 -0.1271  0.1617
26749W        W43010  16.767   5.987  13.616 -0.0481 -0.0461 -0.0457
26750W        W43011  13.226   4.376  11.373  0.1187  0.0768  0.1436
26751W        W43012  19.156  11.377  13.097 -0.2107 -0.0812 -0.1943
26752W        W43013  12.250   8.146   2.652  0.0780  0.0631 -0.1357
26753W        W43014  17.567  15.703  14.271  0.1193 -0.2740  0.0986
26754W        W43015   6.713  10.633   0.103 -0.3026 -0.0096  0.1108
26755W        W43016   0.734  10.975   0.678 -0.1348  0.4267  0.0310
26756W        W43017  12.916  18.725   1.828  0.2911  0.2705  0.0782
26757W        W43018   3.189  17.949   9.647  0.0513  0.4024  0.2538
26758W        W43019  10.663   0.363   0.888  0.0884  0.3058 -0.0246
26759W        W43020  12.784   5.033   1.814 -0.3749  0.1168 -0.0375
26760W        W43021   3.379   2.531   4.967  0.1510  0.0488  0.0900
26761W        W43022   7.773   7.769  13.349 -0.2739 -0.0692  0.3109
26762W        W43023   1.801   6.657  11.671 -0.0817  0.0345  0.3424
26763W        W43024   9.671   9.733   3.559 -0.3599  0.0911 -0.1016
26764W        W43025  14.308   5.271  10.422 -0.0052 -0.0371  0.2129
26765W        W43026   3.415  17.199  10.800  0.1055 -0.1456  0.3413
26766W        W43027  13.063  12.629  11.421  0.1063  0.1118  0.2279
26767W        W43028  18.798  17.743   0.776 -0.0236  0.0917  0.1696
26768W        W43029  12.150  15.257   3.407 -0.0925 -0.0429  0.0989
26769W        W43030   3.557  10.925   4.040  0.2541 -0.1216  0.2264
26770W        W43031  17.037   4.241   3.603 -0.0233 -0.0643  0.0893
26771W        W43032  12.984  17.363  10.303 -0.0348 -0.0439 -0.3643
26772W        W43033   1.746  13.032  14.183 -0.2302  0.2226 -0.0169
26773W        W43034  10.495   6.572   3.932  0.3278 -0.2477  0.0568
26774W        W43035   0.634  16.932   4.378  0.1916 -0.0097  0.1766
26775W        W43036  16.803   9.967   3.013 -0.4551  0.3704  0.2551
26776W        W43037   2.222   5.891  14.055  0.2297  0.2961  0.0079
26777W        W43038   4.141   2.452  13.539  0.0707  0.2512 -0.0513
26778W        W43039   7.855   0.862   9.443 -0.1925 -0.0510 -0.0396
26779W        W43040  10.611  14.952   0.937  0.4314 -0.0376  0.1044
26780W        W43041   4.940  12.983   9.490 -0.0769 -0.2026 -0.0435
26781W        W43042  11.957  12.673  10.499  0.2743 -0.1229  0.2576
26782W        W43043   3.135   7.228   4.895 -0.1987  0.0878  0.2056
26783W        W43044  12.713   2.199   1.473  0.1009  0.1646  0.0186
26784W        W43045   0.489   0.475   0.618 -0.4014 -0.0165  0.1717
26785W        W43046  12.608  11.984   2.364 -0.2510  0.0595 -0.5829
26786W        W43047  18.738  12.145  12.545  0.0976 -0.1331 -0.3231
26787W        W43048   1.915  12.058  12.505  0.3335  0.5647  0.1331
26788W        W43049  15.357  17.100  12.034  0.0527 -0.1383 -0.0740
26789W        W43050   0.565   4.256  12.708  0.1849 -0.3307 -0.0959
26790W        W43051   2.337   1.539   2.519  0.5080  0.0046 -0.3567
26791W        W43052  16.642  16.768  10.896  0.2431 -0.2193  0.0365
26792W        W43053  12.473   2.367  10.975 -0.0935 -0.0827 -0.3295
26793W        W43054   3.082   0.829   2.125  0.0256 -0.0161  0.0837
26794W        W43055   7.290  11.967   0.787 -0.2095  0.3205  0.0371
26795W        W43056   1.921   7.409  11.239  0.0074  0.1104 -0.4920
26796W        W43057   2.451  14.507   1.675 -0.1914 -0.1315  0.1455
26797W        W43058   2.574  18.578   0.322 -0.2716 -0.1743  0.0994
26798W        W43059   9.420  18.216  13.309  0.1424  0.0262  0.4425
26799W        W43060  17.211   6.261  12.074 -0.0997 -0.1978 -0.1026
26800W        W43061   7.584  18.082  11.688  0.0844 -0.3455  0.2936
26801W        W43062   6.931  12.589  14.786  0.0251  0.0269 -0.0686
26802W        W43063  18.547  10.580   0.054  0.1547  0.1803  0.0250
26803W        W43064   5.625   3.238   5.384 -0.0721 -0.4127 -0.0302
26804W        W43065  15.509  13.739  14.239  0.0117  0.1507  0.0528
26805W        W43066   4.933   6.135  13.026  0.1279 -0.1967  0.1416
26806W        W43067   3.748   2.549   9.865  0.1053  0.0721  0.1539
26807W        W43068  12.829   9.822  11.601 -0.1083  0.1166  0.0242
26808W        W43069  18.845  14.094  13.266  0.0784  0.2794 -0.0214
26809W        W43070   9.627   3.958   0.826 -0.2114 -0.2648  0.0786
26810W        W43071  15.192  14.101   1.570  0.0623 -0.1609 -0.1686
26811W        W43072  10.312  11.597  14.850  0.0558 -0.3210 -0.0728
26812W        W43073   7.539   0.815  10.189  0.0434  0.2853 -0.1183
26813W        W43074  17.278   3.095  13.759  0.0925 -0.0872 -0.3140
26814W        W43075  12.553  16.482   5.100  0.1095  0.2594 -0.2018
26815W        W43076   6.171   5.881   3.808 -0.0019  0.0116  0.3039
26816W        W43077  11.822   4.726   4.485  0.1778  0.2019 -0.0480
26817W        W43078  14.473   2.040  13.505 -0.2112  0.0207 -0.1224
26818W        W43079   6.942   9.549   3.999  0.0409 -0.3529  0.3304
26819W        W43080  12.804   4.058  10.746 -0.0255 -0.0504 -0.1540
26820W        W43081   4.648   4.555   0.645 -0.1245  0.2317 -0.1883
26821W        W43082   1.655  17.640   0.913 -0.2590  0.2827 -0.2749
26822W        W43083   2.991   7.530   4.002 -0.1540  0.1084  0.1960
26823W        W43084   3.886  10.147   0.689  0.0332 -0.1350  0.1266
26824W        W43085  10.474   1.769   2.573 -0.2453 -0.2279  0.3919
26825W        W43086   1.835   7.358  10.294  0.3116 -0.1082  0.1987
26826W        W43087  19.268  15.270   2.725  0.1836  0.0158 -0.1611
26827W        W43088  10.868   2.914   2.867  0.0382  0.0349  0.4138
26828W        W43089  18.622   0.233  14.276 -0.3381 -0.1256  0.2808
26829W        W43090  11.791  12.874  11.053  0.0773  0.0370  0.0717
26830W        W43091  16.023   6.911   9.898  0.0948 -0.2512 -0.0636
26831W        W43092   6.161   3.151  11.655 -0.1788 -0.2527  0.0702
26832W        W43093  13.398  13.289  12.512 -0.1446 -0.0140  0.1409
26833W        W43094  13.568   6.695   2.774  0.3002  0.1609  0.1498
26834W        W43095   0.309  11.132   5.051  0.1679  0.1082 -0.1320
26835W        W43096   1.230   8.574   3.893 -0.2057 -0.0694 -0.0544
26836W        W43097   2.823   3.115   5.123 -0.0621  0.0447  0.0519
26837W        W43098  10.421  11.115  10.877 -0.0314  0.0416  0.1402
26838W        W43099  15.222  12.845   2.081  0.3520  0.1913  0.4327
26839W        W43100   9.288  15.802  14.075 -0.0297  0.0511 -0.0140
26840W        W43101  12.632  11.611   3.972 -0.2578 -0.0865 -0.2587
26841W        W43102   0.236   9.942   4.178 -0.0496 -0.1414  0.1162
26842W        W43103   7.787  13.074  13.172  0.3483  0.1376  0.1604
26843W        W43104   6.454  14.923   3.394  0.2011  0.1400  0.0621
26844W        W43105  12.513   4.661  13.283  0.3000  0.0281  0.0621
26845W        W43106  16.303   1.177  10.422  0.1224 -0.1599  0.2002
26846W        W43107  10.104   6.623   0.853  0.4163  0.0540  0.0763
26847W        W43108   0.308  13.365  14.854  0.1717  0.0426  0.2646
26848W        W43109   8.178  12.452  11.374  0.0768  0.0616 -0.3728
26849W        W43110  12.141   6.783  11.291  0.0009 -0.2136 -0.0274
26850W        W43111  19.127   0.725   5.067 -0.2946 -0.2162 -0.1736
26851W        W43112  10.303  11.371  10.361  0.1553 -0.0637 -0.0940
26852W        W43113   9.757  16.820   3.353 -0.3259 -0.2109  0.3326
26853W        W43114  18.641  12.985  11.242 -0.1019 -0.0846 -0.0702
26854W        W43115  14.961   2.656  13.271 -0.2655  0.1022 -0.3906
26855W        W43116  19.066  13.137   9.861 -0.0856  0.0329 -0.1216
26856W        W43117   3.059  17.583  11.735 -0.0896  0.2983  0.0382
26857W        W43118  16.167  18.637   9.293 -0.1461 -0.0389 -0.3875
26858W        W43119   1.962   0.365   5.527  0.0033 -0.1095 -0.0191
26859W        W43120  10.523  12.054  13.780 -0.1483  0.3724 -0.0040
26860W        W43121   3.786   2.232   5.153  0.0832  0.1282  0.0093
26861W        W43122  17.951   0.059   4.484 -0.0654  0.0248 -0.0223
26862W        W43123   1.945  10.287  12.565  0.1565 -0.2543  0.1866
26863W        W43124  14.680   7.712   3.895 -0.0117 -0.1372  0.2781
26864W        W43125  16.104  14.859   1.361 -0.0938  0.0765  0.3368
26865W        W43126  16.115  16.526   1.411  0.2708  0.1798  0.0487
26866W        W43127   3.582   0.157   2.860  0.3262 -0.3668 -0.2458
26867W        W43128  14.297  13.086  12.161  0.1451  0.0693  0.0775
26868W        W43129   9.695  13.783  11.652  0.0473 -0.5806  0.2014
26869W        W43130   9.140   4.114   1.539  0.0150  0.0481  0.0481
26870W        W43131  12.779  16.544   3.690 -0.2856 -0.1034 -0.3251
26871W        W43132  13.824   7.902  14.815  0.0087 -0.1198 -0.1152
26872W        W43133   2.948  14.892   2.961 -0.0890 -0.3685 -0.0676
26873W        W43134   9.358  15.188   2.792 -0.2558 -0.1059  0.1149
26874W        W43135  19.396  11.513   0.091  0.1718  0.0790  0.2657
26875W        W43136   2.130   5.506  10.668  0.0327  0.0084 -0.0104
26876W        W43137  15.938   7.045  10.383 -0.1045 -0.0274  0.0210
26877W        W43138  14.860   5.673   2.207 -0.0539 -0.2753  0.0345
26878W        W43139   8.309   5.832  12.885 -0.2203 -0.1044 -0.0361
26879W        W43140   9.478  17.181  10.839  0.0510 -0.3284  0.1939
26880W        W43141   9.366  11.765   1.996 -0.1629 -0.2084  0.2794
26881W        W43142   5.336  17.628  11.130  0.1775  0.1293  0.1349
26882W        W43143   1.489  16.446   3.244  0.0731 -0.1796  0.3754
26883W        W43144   2.145   3.952   1.266 -0.0989  0.1366 -0.2238
26884W        W43145   0.227   4.596   3.116 -0.2351 -0.3656  0.0132
26885W        W43146   0.736  16.834  10.508  0.2511 -0.0223  0.0999
26886W        W43147   3.154   9.012   2.480  0.0061  0.1497 -0.0902
26887W        W43148  16.622  16.151   2.633 -0.0901  0.4063  0.0620
26888W        W43149   7.979  18.957  10.951  0.2514  0.0400  0.0370
26889W        W43150  14.857   0.256  12.103  0.0391  0.1906 -0.0354
26890W        W43151   7.510  17.520   0.140 -0.0807  0.6673  0.1181
26891W        W43152  13.238   0.783   3.981  0.0069 -0.0957  0.0915
26892W        W43153   2.191  14.131  12.161 -0.1203  0.0560 -0.0583
26893W        W43154   0.587   0.870  12.842  0.1496  0.2545 -0.1496
26894W        W43155   6.477   7.293   3.892 -0.2506  0.0120 -0.3449
26895W        W43156  18.917  12.463  11.178 -0.0416  0.0114  0.1030
26896W        W43157   9.657   8.326  11.660  0.0304  0.2935  0.1647
26897W        W43158  12.043  15.003   0.699  0.2849 -0.2856  0.1311
26898W        W43159  18.450  10.127   2.324 -0.1281  0.1069  0.0960
26899W        W43160   1.676   3.847  11.564  0.3773 -0.1396  0.2596
26900W        W43161  11.050  16.578   4.253  0.1415  0.3613 -0.2790
26901W        W43162   2.241  18.009   0.261 -0.0095 -0.1615 -0.1669
26902W        W43163   9.690   7.500  12.249  0.3901 -0.1256 -0.2291
26903W        W43164   4.828   0.051   0.160  0.1700 -0.0842 -0.4693
26904W        W43165   8.405   5.762   5.339  0.1445  0.2264  0.0433
26905W        W43166  15.734   7.469  11.671  0.2436  0.2103 -0.1856
26906W        W43167   7.343  18.840  10.184 -0.0098 -0.2205  0.1145
26907W        W43168   9.695   1.842   1.456  0.1761 -0.0264 -0.0010
26908W        W43169  15.898  14.763   0.921  0.3271  0.2226  0.0138
26909W        W43170  11.633  12.345  10.636 -0.0751 -0.2894 -0.2151
26910W        W43171   4.643  16.042   6.073 -0.0576  0.0882  0.1886
26911W        W43172  13.833   5.420   0.557  0.1347 -0.2132 -0.5094
26912W        W43173   0.351  16.495   1.133  0.2230 -0.3065  0.0015
26913W        W43174   4.543  11.611   3.030  0.2554  0.2738 -0.0114
26914W        W43175   1.807   2.524   2.258  0.1878 -0.1727  0.1576
26915W        W43176  15.385   8.388  11.078  0.2155  0.1459  0.2055
26916W        W43177  12.445  18.857   1.637  0.0140 -0.1311 -0.2157
26917W        W43178  19.266  12.344  12.434  0.2045 -0.0920 -0.2661
26918W        W43179   3.564  16.183   3.134 -0.1784 -0.2735 -0.1119
26919W        W43180   6.195   3.366   3.226 -0.1892  0.0029 -0.2253
26920W        W43181   9.321   6.258   3.936 -0.1561  0.2571  0.2705
26921W        W43182   5.425  18.305   2.926  0.1681 -0.2211  0.2636
26922W        W43183   9.316  12.006  11.648  0.0752 -0.1293  0.1279
26923W        W43184   4.770  10.403  14.323 -0.2196  0.0078 -0.0368
26924W        W43185  10.497  18.348   1.532 -0.4705 -0.0933 -0.1724
26925W        W43186  14.854   7.216   5.138 -0.2603 -0.0901  0.3223
26926W        W43187  18.209  15.388  10.724  0.0338 -0.1296 -0.0768
26927W        W43188   6.818   1.515   1.437  0.3397 -0.0145  0.1491
26928W        W43189   6.736   0.788   1.091  0.0629  0.1187 -0.0965
26929W        W43190  15.685  18.119  11.150 -0.3461  0.1278  0.1329
26930W        W43191   1.968   5.791   4.637 -0.2474  0.1926  0.4224
26931W        W43192  16.027  17.686   2.068 -0.1434 -0.0726 -0.2014
26932W        W43193  11.797  10.225  14.092  0.0135 -0.0698  0.3555
26933W        W43194   8.908  13.859  10.899  0.0338  0.0384 -0.3113
26934W        W43195   7.958   8.525  10.244  0.0354  0.0673 -0.1359
26935W        W43196   6.445  13.241   0.130  0.1209  0.3961 -0.0029
26936W        W43197   5.912  14.201  10.755 -0.0690  0.3078 -0.2997
26937W        W43198  16.766  15.822   1.652  0.0165 -0.0825 -0.2371
26938W        W43199  17.017  13.552  10.748  0.0321  0.0964 -0.3340
26939W        W43200   8.533  12.822   2.382 -0.0932 -0.0620 -0.1250
26940W        W43201  14.553   7.364  14.715 -0.0312  0.0258  0.0761
26941W        W43202   8.599  15.100   4.461  0.1803 -0.2263  0.2658
26942W        W43203  15.625  16.795   3.153 -0.0294  0.1770  0.1739
26943W        W43204   1.210   7.684   1.950  0.0144  0.2927  0.1297
26944W        W43205   5.604   4.615   5.770 -0.0776  0.0872  0.0812
26945W        W43206   7.488   5.320   1.682 -0.0121  0.0345 -0.1826
26946W        W43207  11.950   0.223  11.155 -0.2975 -0.0755 -0.4091
26947W        W43208  14.684  16.872  11.035 -0.2263  0.4370 -0.4881
26948W        W43209   7.183  12.972   2.439 -0.1553 -0.0055 -0.1512
26949W        W43210   6.118  19.304   3.903 -0.2208 -0.2043  0.2486
26950W        W43211  17.088   3.485   0.062  0.1157  0.3837  0.1924
26951W        W43212  13.369   8.445   1.616  0.1086  0.1092  0.1054
26952W        W43213  16.656   1.503  10.592  0.0495  0.3956 -0.1123
26953W        W43214  11.859  13.745   0.410  0.0525 -0.1953 -0.0269
26954W        W43215   6.645   9.337   3.253 -0.1568  0.5119  0.0693
26955W        W43216  18.619   9.995   0.499  0.1105  0.1788  0.0435
26956W        W43217   3.872   9.100  14.052 -0.2378  0.2781  0.0852
26957W        W43218   1.162   1.796   0.163 -0.1259  0.3044  0.1226
26958W        W43219   8.649  15.810   1.272  0.0136  0.0146 -0.2473
26959W        W43220  11.361   1.133   5.105  0.0486 -0.2189 -0.0613
26960W        W43221   7.582  10.001  13.474  0.0233  0.0844  0.0150
26961W        W43222   9.732   0.620   4.209  0.4295 -0.0119 -0.0827
26962W        W43223   5.428   3.618   2.722 -0.1457  0.1544  0.0079
26963W        W43224  11.714  16.276   2.471  0.0870  0.0619  0.1506
26964W        W43225   3.097  16.492  11.212 -0.2303 -0.6092 -0.3531
26965W        W43226   6.736   4.930   2.510  0.0922  0.0470  0.0956
26966W        W43227  17.336   4.459  14.434  0.3323 -0.2884 -0.0896
26967W        W43228   2.700   7.425  13.814  0.0850 -0.0077 -0.4146
26968W        W43229  12.093  15.868   0.075  0.1919 -0.5110 -0.1445
26969W        W43230  13.301   9.162   0.959 -0.2195  0.1543  0.3380
26970W        W43231   2.372   7.800   0.628  0.2112 -0.1520  0.1591
26971W        W43232   0.782   0.410  14.078 -0.2762  0.3062 -0.0526
26972W        W43233   6.967   9.703  14.624 -0.3175 -0.2844  0.4235
26973W        W43234  13.573  10.446   1.513 -0.1871  0.1070 -0.1628
26974W        W43235  18.081  11.514  14.298  0.0873  0.0496  0.3043
26975W        W43236   2.646  18.439  12.924  0.1222  0.0495 -0.0253
26976W        W43237  19.230  14.605  14.095 -0.3033 -0.0349  0.0471
26977W        W43238  16.889  16.755   3.079 -0.1580 -0.1600  0.1444
26978W        W43239  17.391   0.348  14.759  0.1249 -0.4712  0.0256
26979W        W43240  15.123   9.396   4.467 -0.0298 -0.1563  0.1589
26980W        W43241  10.658   3.213   2.523 -0.0330 -0.2122 -0.1685
26981W        W43242   2.221   0.041   2.119 -0.0312 -0.0216 -0.2054
26982W        W43243  17.818  15.265   9.506  0.1325 -0.2703 -0.0708
26983W        W43244   4.462  19.068   0.852  0.0136  0.1192 -0.1397
26984W        W43245  17.588  13.155  11.601  0.1102  0.1035  0.1217
26985W        W43246   6.970  13.379   3.214  0.0413  0.3998  0.1393
26986W        W43247   4.330  10.745  12.564  0.1289  0.1985 -0.5103
26987W        W43248  16.347  15.957   9.446 -0.1201 -0.1176  0.0523
26988W        W43249  16.396   2.174   0.447  0.1769 -0.1118 -0.1967
26989W        W43250  13.034  18.161  11.011 -0.3886  0.1366  0.1719
26990W        W43251   4.035  12.534   1.757  0.0255  0.0453 -0.0087
26991W        W43252  15.424  17.132   1.389  0.0856  0.0811 -0.0421
26992W        W43253  16.868   5.021   3.149  0.5210 -0.0595  0.3566
26993W        W43254   1.510   5.147   2.453  0.4074 -0.1299  0.1168
26994W        W43255  15.543  16.295   2.555 -0.2765 -0.0189 -0.0512
26995W        W43256  17.890  19.219   0.440 -0.1055 -0.1489 -0.2387
26996W        W43257  13.437  17.575  11.660 -0.2498 -0.0094  0.0191
26997W        W43258   5.618   0.448  14.063  0.1688 -0.1821  0.2027
26998W        W43259   7.256  11.684  13.292  0.0023 -0.0638  0.2765
26999W        W43260   8.574  12.563  11.660  0.0926 -0.0453 -0.3215
27000W        W43261   3.595  14.821  13.372 -0.2183  0.0199  0.2706
27001W        W43262   5.986  18.633   0.041  0.2327  0.1773  0.3500
27002W        W43263  10.680   8.332   3.551 -0.0949 -0.2370 -0.4075
27003W        W43264   7.801  19.210  11.909 -0.2061 -0.2429 -0.2897
27004W        W43265  19.294   0.606   4.331  0.0599 -0.0391 -0.1068
27005W        W43266  16.861   0.827   3.735  0.2718  0.1493 -0.1000
27006W        W43267   5.012   7.582  11.291  0.4630 -0.1601 -0.1473
27007W        W43268  10.472  10.745   2.661 -0.0935 -0.1970 -0.1204
27008W        W43269   6.586  17.892  13.417 -0.0012  0.0650 -0.1365
27009W        W43270   0.928   2.976  11.990  0.1441  0.2521  0.1112
27010W        W43271  10.485   9.346   2.561 -0.0953 -0.3743 -0.4358
27011W        W43272  10.344   7.072   0.938 -0.1707  0.0933 -0.0129
27012W        W43273  17.317   4.453   0.584  0.0699  0.0301 -0.3497
27013W        W43274   9.338  18.122   3.616 -0.1049 -0.0167  0.0054
27014W        W43275  16.271  18.499   1.301  0.1819  0.1533 -0.0004
27015W        W43276   2.210  17.886   1.728 -0.0809 -0.1040 -0.3175
27016W        W43277   7.395   8.390  10.882 -0.4649  0.3411  0.2547
27017W        W43278  13.714  11.472  14.502 -0.0037  0.0460  0.1993
27018W        W43279   3.468   2.710   0.710 -0.0854  0.0745 -0.2000
27019W        W43280   9.201  18.801  11.228 -0.1775 -0.1202 -0.1692
27020W        W43281  17.470   8.493  11.998  0.0402 -0.1038  0.5284
27021W        W43282   9.640  19.105  11.459 -0.1339 -0.2930 -0.2701
27022W        W43283   6.083   4.463   4.474  0.0480 -0.3262 -0.0240
27023W        W43284   6.276  13.240   1.654 -0.1111  0.1645 -0.0687
27024W        W43285  12.037  19.331   4.269 -0.1334  0.2204 -0.0279
27025W        W43286   6.809   8.199  10.727  0.0177 -0.1547 -0.2528
27026W        W43287  11.994  16.927   1.799  0.1469 -0.0346 -0.0835
27027W        W43288  17.768  11.391  10.235  0.2314  0.0761  0.2156
27028W        W43289  13.235   2.731  13.523 -0.0011  0.0904  0.1761
27029W        W43290   1.162  13.156   2.257  0.1395  0.1850  0.1309
27030W        W43291   1.240  13.243  12.094 -0.1225 -0.1857 -0.1894
27031W        W43292  19.052  10.602   1.799  0.0181 -0.1869  0.4710
27032W        W43293  17.881  14.521  11.510  0.1368  0.1262  0.0486
27033W        W43294   8.700  11.604   3.517 -0.1606  0.0519 -0.2723
27034W        W43295   5.964  13.573  10.009  0.0351 -0.2446 -0.4774
27035W        W43296   3.935   7.036  13.929  0.0614 -0.0723  0.0615
27036W        W43297   7.587  15.810   3.209  0.2710  0.1358 -0.0032
27037W        W43298  17.539  11.388   5.485 -0.3156  0.3056 -0.3386
27038W        W43299  17.068   2.676   2.201  0.2413 -0.1620 -0.0318
27039W        W43300  15.591  15.727  12.051  0.1935  0.0687 -0.0043
27040W        W43301  16.879   5.495  11.779 -0.0085  0.0339  0.1402
27041W        W43302  12.543  10.681  11.354 -0.0146 -0.0751 -0.0174
27042W        W43303   7.697   2.970   0.115 -0.1563 -0.0287  0.0170
27043W        W43304  16.901   1.016   2.162 -0.0054  0.1639  0.0896
27044W        W43305  13.378   4.802  10.646 -0.1645  0.1326 -0.1083
27045W        W43306   8.014  15.168  10.204 -0.0734 -0.1096 -0.2005
27046W        W43307   1.777   2.060   3.184  0.2392 -0.3102 -0.2411
27047W        W43308   7.361   6.094  11.597  0.0703  0.0777  0.1195
27048W        W43309   2.893   5.310   1.352 -0.2548  0.2045 -0.1229
27049W        W43310  15.631  17.423   2.479  0.3207  0.2197  0.2192
27050W        W43311   6.749  10.863   4.973 -0.1437 -0.3199  0.0817
27051W        W43312  14.275   6.725   0.381  0.0018  0.0805 -0.2022
27052W        W43313   0.816  17.219  13.196 -0.2992  0.0378  0.1429
27053W        W43314   8.437   4.319  12.545 -0.1413 -0.1947  0.2037
27054W        W43315   5.826  12.107   0.759  0.2196  0.4226 -0.0746
27055W        W43316  10.129  14.410   3.362  0.1434 -0.2252 -0.2093
27056W        W43317  11.752   2.617  14.320 -0.0249 -0.1032 -0.1877
27057W        W43318  13.236   2.182   0.075 -0.1136  0.3769 -0.1475
27058W        W43319  15.435   2.898  13.339  0.0054  0.2858  0.3543
27059W        W43320   0.488   1.311  14.500 -0.1509 -0.3864 -0.1703
27060W        W43321  14.087   1.509   2.308  0.0908  0.2355 -0.1485
27061W        W43322   3.751  18.696  11.245  0.0096 -0.0497 -0.1169
27062W        W43323   4.788   2.322   9.696 -0.1599 -0.4225 -0.0789
27063W        W43324  18.428   1.726   4.856 -0.1273 -0.1118  0.0245
27064W        W43325   9.604   8.870  14.869 -0.2330 -0.0020  0.5530
27065W        W43326  13.954   9.256  11.237 -0.1169  0.0371 -0.2714
27066W        W43327   7.439  15.813  12.061 -0.0535 -0.0764 -0.1386
27067W        W43328   5.680   3.434  12.773  0.1520  0.1155  0.2538
27068W        W43329  12.412   3.652   1.593 -0.1023 -0.1409  0.1794
27069W        W43330   5.263   9.724   0.824  0.0934  0.0058  0.1618
27070W        W43331  14.124  12.513   0.889  0.0105 -0.0048  0.0739
27071W        W43332   2.067  17.478   2.716  0.1220 -0.1070 -0.1852
27072W        W43333   3.082  10.947   0.934  0.3566 -0.1996  0.1110
27073W        W43334   5.387  18.523  11.333 -0.0520 -0.1499 -0.3583
27074W        W43335  12.839  17.005  11.358 -0.1911 -0.2741 -0.2723
27075W        W43336  15.887  13.536   2.997  0.0994  0.1857  0.2186
27076W        W43337   5.185   8.429   2.985  0.2192 -0.1127 -0.2997
27077W        W43338   1.896  17.425  12.345  0.1466  0.2241 -0.2402
27078W        W43339  10.058   5.892   1.964  0.3561 -0.0169  0.0808
27079W        W43340   6.872  11.511  13.018 -0.0729 -0.0298  0.1343
27080W        W43341  10.004   6.555  14.385  0.3372  0.2014  0.0097
27081W        W43342  14.044  10.702   0.001  0.1852 -0.1586  0.3310
27082W        W43343   7.230  10.901  11.213 -0.4259 -0.0502 -0.1890
27083W        W43344   8.951  18.000   3.939  0.1814  0.2520  0.1064
27084W        W43345  16.049  10.816   0.945 -0.1092 -0.0806 -0.0926
27085W        W43346   5.523   0.319  10.563 -0.0654 -0.2249  0.0585
27086W        W43347  12.565  15.913   2.444 -0.1455 -0.0009  0.0130
27087W        W43348   8.792  11.978  13.234  0.1432  0.0638 -0.1467
27088W        W43349   1.514   7.913   0.861  0.0370 -0.3854  0.2342
27089W        W43350  19.093  14.136   4.143 -0.2609 -0.1826  0.1394
27090W        W43351  12.678  10.086   2.987  0.2653  0.0361 -0.2945
27091W        W43352  11.294  17.541  11.550  0.2695 -0.0387 -0.0658
27092W        W43353  15.859  18.969  10.875 -0.2080  0.0584 -0.0038
27093W        W43354   9.687  12.891  10.111 -0.0889 -0.1448 -0.0142
27094W        W43355  14.717  13.049   0.618  0.3180  0.1186  0.2085
27095W        W43356  12.958   4.660   3.300  0.0825  0.0407  0.0778
27096W        W43357  14.872  12.907   1.091 -0.1299 -0.0164  0.0186
27097W        W43358  18.058   7.441   5.692  0.1492 -0.2090 -0.0303
27098W        W43359   4.627   6.815   2.112  0.0753  0.5039  0.0139
27099W        W43360   1.676   3.226   3.242 -0.0741  0.4829 -0.1170
27100W        W43361  11.081   4.918   0.462 -0.0196 -0.1198 -0.0321
27101W        W43362   7.427   7.756   5.585 -0.2585 -0.0409  0.0476
27102W        W43363  10.606   6.547   2.034 -0.1861 -0.2682 -0.2090
27103W        W43364  15.752  12.729   9.758 -0.0776  0.2242 -0.1493
27104W        W43365   4.520  12.429   1.885 -0.2333  0.0650 -0.2158
27105W        W43366   5.715   0.112   2.945  0.2688 -0.4008  0.0487
27106W        W43367  14.838  16.355  13.086 -0.1083  0.3183  0.1686
27107W        W43368   2.876  11.903   2.958 -0.1527  0.0077 -0.0211
27108W        W43369  12.168  16.089  11.781  0.1711  0.2308  0.0122
27109W        W43370   7.877  12.705  12.506  0.0037 -0.3157  0.0805
27110W        W43371  13.215  11.994   0.667 -0.1081  0.1251 -0.0735
27111W        W43372  12.424   7.061   0.732 -0.0970 -0.0609  0.1828
27112W        W43373   0.535   6.592   3.142  0.0697  0.0363 -0.0642
27113W        W43374  11.112  18.449   1.335 -0.0252 -0.0704  0.1574
27114W        W43375  15.068   7.263   3.035  0.0723 -0.2658  0.4590
27115W        W43376   3.064   7.193   3.178  0.1448  0.0196  0.0016
27116W        W43377   9.703  16.120  10.667 -0.1225 -0.1726  0.2797
27117W        W43378   4.266  16.923   2.181 -0.1662  0.4407 -0.0129
27118W        W43379  14.116   3.528  14.502  0.2034 -0.0251  0.0253
27119W        W43380   9.048  10.064  11.083  0.0360  0.0981 -0.0797
27120W        W43381   4.344   9.746  13.357  0.2329 -0.1114 -0.1960
27121W        W43382  16.775  12.110   2.592 -0.0890  0.1905 -0.0744
27122W        W43383  11.514   6.687   2.488 -0.2808 -0.3370 -0.0013
27123W        W43384  14.684  13.361  14.058 -0.0904 -0.1471 -0.1045
27124W        W43385  13.843  12.284   3.402  0.1730  0.2560  0.0890
27125W        W43386  16.041   4.566   4.198  0.1860  0.0656 -0.1359
27126W        W43387  18.275   2.990   3.379 -0.0574  0.0917  0.2258
27127W        W43388  12.345   9.889  11.699  0.0322  0.1060 -0.2178
27128W        W43389  13.353   7.781   0.004 -0.2029 -0.0224 -0.1146
27129W        W43390  13.293  11.844   2.668 -0.2083 -0.0796  0.3502
27130W        W43391   6.942   5.372   0.591  0.1868  0.0559 -0.2433
27131W        W43392   4.277   5.850  12.282 -0.3254 -0.0538 -0.2942
27132W        W43393  10.478  15.453  10.447  0.1505 -0.1457  0.1691
27133W        W43394   1.434  16.281   1.738  0.4694  0.0828 -0.1088
27134W        W43395  18.675   5.677  13.573 -0.5249 -0.0843 -0.1298
27135W        W43396   9.770  19.227  13.606 -0.1302  0.0952 -0.0412
27136W        W43397   5.894  14.132   3.094 -0.0286 -0.0005 -0.3327
27137W        W43398  14.443  11.478  11.553 -0.0726 -0.2254 -0.0155
27138W        W43399  18.409   3.706  13.163  0.2304  0.4269  0.0652
27139W        W43400   6.482   7.075   5.129  0.1699 -0.0600  0.2337
27140W        W43401  18.248   2.022   0.284 -0.0233 -0.1343  0.0452
27141W        W43402  16.960   3.314   5.332  0.0728 -0.0559 -0.1450
27142W        W43403  17.103   2.858  10.703 -0.2350  0.1449 -0.3310
27143W        W43404   9.433   1.005   4.496  0.1166 -0.1268  0.2582
27144W        W43405  16.310   7.729   0.075  0.0794 -0.0824  0.0399
27145W        W43406   0.393  15.815   3.151  0.2587 -0.3223 -0.6387
27146W        W43407  11.634   8.772   4.251  0.0015 -0.2378 -0.3693
27147W        W43408  14.189   5.123   0.381  0.1835  0.2685 -0.1637
27148W        W43409  19.312  10.004   2.296  0.1643 -0.0665  0.1545
27149W        W43410   5.891  16.673   4.471 -0.1421 -0.3850  0.3681
27150W        W43411  15.329   7.567   1.984 -0.0890  0.4104 -0.4617
27151W        W43412   8.993   6.202  12.776 -0.2092 -0.0271  0.0194
27152W        W43413  15.878  15.514  14.850 -0.0462 -0.2433 -0.2438
27153W        W43414   0.134   4.934  11.120 -0.1080 -0.0405  0.2080
27154W        W43415   9.080  15.163   4.455 -0.0261 -0.0836  0.0734
27155W        W43416  18.773  19.137   2.790  0.0380  0.3090 -0.1019
27156W        W43417  19.038   4.411  11.791  0.1497 -0.0741  0.2194
27157W        W43418  11.104  13.573   0.749 -0.1987 -0.3432 -0.1003
27158W        W43419   2.148   6.566   4.653  0.1429 -0.1830 -0.0770
27159W        W43420  16.797  12.548   3.406  0.1609  0.0071  0.2471
27160W        W43421   7.415   4.840  11.779  0.2647  0.1553  0.2677
27161W        W43422  16.003  18.567  13.022 -0.1404 -0.2277 -0.1139
27162W        W43423  10.559  10.664  10.802  0.1850  0.0021  0.0854
27163W        W43424   9.527  18.302   4.084  0.3878  0.1182 -0.0188
27164W        W43425  10.194   9.359   4.006  0.0773  0.2818  0.1376
27165W        W43426   2.625  11.973  12.430  0.0300 -0.2966  0.1515
27166W        W43427  12.637   5.448  13.150 -0.4089 -0.0080 -0.0017
27167W        W43428  14.415   4.367   1.586  0.1236  0.2212  0.0789
27168W        W43429   1.609  15.486  12.369  0.0382  0.0959 -0.0283
27169W        W43430   9.491  13.447  13.240  0.0988 -0.2483 -0.0286
27170W        W43431  12.728   1.385   3.320  0.2386  0.2092 -0.0909
27171W        W43432   1.935   2.816   4.783  0.0450 -0.1366  0.0927
27172W        W43433   0.229  12.883  13.098  0.0722  0.1075  0.0429
27173W        W43434   6.015  10.094  10.556 -0.3876 -0.4418  0.0894
27174W        W43435   8.926   7.427   0.713 -0.3766  0.2331  0.1446
27175W        W43436   7.123  15.319   2.809  0.2156  0.0698  0.2566
27176W        W43437  15.952  14.590  13.079  0.1491 -0.4278  0.0347
27177W        W43438  19.131  16.840   0.406  0.2011  0.0366  0.1600
27178W        W43439  14.079   9.521   4.085 -0.0543 -0.1323 -0.0014
27179W        W43440   3.877  18.746   6.153  0.0256  0.2480  0.1019
27180W        W43441   8.290  10.950  12.521  0.3126 -0.1051  0.1512
27181W        W43442   3.910   5.146  13.066  0.2669  0.0488 -0.1953
27182W        W43443   6.227  10.556   2.871 -0.1788  0.1233 -0.1958
27183W        W43444   0.966   6.802  11.070  0.1221  0.2968  0.2372
27184W        W43445  16.255   5.366   3.637 -0.2540 -0.2951  0.0240
27185W        W43446  16.037  10.991   2.318 -0.3560 -0.1090 -0.1274
27186W        W43447   0.748   2.721   4.718 -0.0830  0.0704  0.0568
27187W        W43448  14.542  18.279  14.095  0.2388  0.3053  0.3469
27188W        W43449  12.500   6.159  12.600  0.0790 -0.5232 -0.2280
27189W        W43450  12.165   7.490   3.270 -0.1684  0.2751 -0.2224
27190W        W43451  18.790   7.403  11.504 -0.0787 -0.2063  0.3733
27191W        W43452  12.381   4.648   2.273  0.0279 -0.2867 -0.0772
27192W        W43453  17.133  17.603   1.155 -0.0384  0.3657 -0.1700
27193W        W43454   6.028  13.084   3.342  0.2275 -0.2818 -0.0188
27194W        W43455  15.062  16.811   1.741 -0.0893  0.1874 -0.0461
27195W        W43456   7.830   0.221   2.104  0.2026 -0.1919  0.3437
27196W        W43457   6.859   0.093  10.743 -0.1650  0.1163  0.2165
27197W        W43458   2.183  19.284  12.684  0.1438  0.3332  0.1926
27198W        W43459  18.767  18.866  12.925 -0.3499 -0.0836 -0.1358
27199W        W43460   8.764  19.336   2.847 -0.1146  0.0038 -0.1509
27200W        W43461   6.750  11.832   0.861  0.0661 -0.0062 -0.1463
27201W        W43462   7.986   1.834  11.172 -0.1011  0.1194  0.0133
27202W        W43463   1.382  14.372   2.292  0.1001  0.0150 -0.3085
27203W        W43464   7.183  17.386   3.921 -0.0099  0.2711 -0.4654
27204W        W43465   7.303   8.728   2.785  0.1081  0.1665 -0.1068
27205W        W43466   6.040  12.304  10.225 -0.0666  0.1385 -0.0406
27206W        W43467   0.061  10.979   4.212  0.0365 -0.2639 -0.1995
27207W        W43468   6.446   5.722   3.426 -0.1017  0.3332 -0.1070
27208W        W43469  17.317   5.367   5.243 -0.0680  0.3165 -0.0970
27209W        W43470   6.191   0.902   9.939 -0.3048  0.1327 -0.0537
27210W        W43471   5.996   8.119  11.027  0.0049  0.3414  0.2561
27211W        W43472   8.542   6.542   5.413 -0.2219  0.0411  0.1221
27212W        W43473   7.837  13.920   3.477  0.1958 -0.4396  0.0868
27213W        W43474  19.088  10.729  12.125 -0.4038 -0.4415  0.1167
27214W        W43475   8.749  14.202   3.419  0.0583 -0.0264 -0.3478
27215W        W43476  12.390  11.131   1.648  0.2708  0.3033  0.0175
27216W        W43477  12.867   8.089  10.755  0.2476 -0.2140 -0.1737
27217W        W43478   6.222   3.981   4.485  0.1109  0.2085 -0.3298
27218W        W43479  18.049  16.561  11.573  0.2488  0.0427  0.2630
27219W        W43480  13.468  16.773   2.418 -0.1292 -0.0475  0.0025
27220W        W43481   5.308   6.181   1.689  0.1385 -0.1252 -0.0805
27221W        W43482   1.183  18.618   3.743 -0.1205  0.2134 -0.5048
27222W        W43483  17.691  11.493  11.790 -0.0457 -0.2192  0.4629
27223W        W43484  14.485   8.976   9.101 -0.0137  0.1156 -0.2520
27224W        W43485  17.551   5.009  10.328 -0.1249  0.0721 -0.0694
27225W        W43486   2.769  14.643  13.959 -0.1283  0.0927  0.0840
27226W        W43487  18.184   5.884  13.265  0.1063 -0.0011 -0.0211
27227W        W43488  10.833  19.424  13.221 -0.2698  0.1408 -0.1750
27228W        W43489  11.348  10.522  13.844 -0.1241  0.0182  0.1517
27229W        W43490   2.769  15.293   3.292  0.1288 -0.1258 -0.0059
27230W        W43491  17.035  18.836   1.684  0.0095  0.0488 -0.0543
27231W        W43492  16.508   4.282  14.651 -0.3822 -0.0470 -0.0569
27232W        W43493   3.593   1.942   2.776  0.2020 -0.0125 -0.2565
27233W        W43494   9.061   2.710  12.912  0.0061  0.1133 -0.1868
27234W        W43495  17.415  17.541  13.907  0.2630  0.4220  0.1276
27235W        W43496  16.820  10.599   4.996 -0.1028  0.2402 -0.1558
27236W        W43497   8.625   2.749   0.324  0.2066 -0.0164 -0.1400
27237W        W43498   4.640   3.556   5.468  0.2591  0.2743 -0.0996
27238W        W43499  10.526   5.641   4.086  0.2734  0.1134  0.0086
27239W        W43500   7.180   6.347  10.871  0.0980 -0.1257 -0.2663
27240W        W43501   9.157   5.900  11.773  0.0507  0.2270  0.0703
27241W        W43502  17.226  13.413   2.257 -0.3759 -0.0530 -0.0004
27242W        W43503   3.054   7.127  14.515 -0.1157  0.0433 -0.3184
27243W        W43504  10.442   3.433   1.010  0.0022 -0.0419 -0.0178
27244W        W43505   7.186  12.367   0.280  0.0930  0.4331 -0.2842
27245W        W43506  18.840   7.057   4.438  0.3217  0.0825  0.0266
27246W        W43507  17.035  17.929   2.459 -0.0268 -0.1567 -0.2044
27247W        W43508   1.301  19.089  13.725 -0.2016  0.2421  0.4677
27248W        W43509  14.953   8.825   2.167 -0.2508 -0.0238  0.0155
27249W        W43510   4.127  16.027  11.308 -0.0586  0.1045 -0.1766
27250W        W43511  11.982  14.401   4.100  0.0407 -0.2815 -0.0409
27251W        W43512   3.651   3.560   3.995  0.2167  0.0005 -0.7436
27252W        W43513  16.347   6.574   2.016 -0.0555 -0.2123  0.0306
27253W        W43514   8.727   4.130  14.263 -0.0881 -0.2223  0.1372
27254W        W43515   2.516   0.303  10.165  0.1413  0.2198  0.4250
27255W        W43516   1.314  18.621  14.691 -0.2056  0.1453 -0.0849
27256W        W43517  14.216  16.749   1.039  0.0710  0.1757 -0.1858
27257W        W43518   3.498   0.308  11.249  0.2504  0.1837 -0.1228
27258W        W43519   8.155  16.892  11.234 -0.1245  0.1205  0.0497
27259W        W43520  12.592  12.856   1.795 -0.1730  0.0348 -0.1351
27260W        W43521   7.239  17.682  11.923 -0.0246 -0.2275 -0.1414
27261W        W43522   8.839   1.157   4.263  0.2136 -0.0027 -0.0138
27262W        W43523   4.131  16.580   1.830 -0.0358 -0.2145 -0.1247
27263W        W43524   3.393   5.218   2.610 -0.0657  0.2788  0.1447
27264W        W43525  10.853  15.021   1.726  0.0624  0.2899 -0.0447
27265W        W43526  14.523  15.018   3.290 -0.1698 -0.0124  0.1310
27266W        W43527  17.998   7.296  10.878  0.2299  0.0295 -0.0670
27267W        W43528  12.480  18.447  12.155 -0.3978 -0.0458 -0.0331
27268W        W43529   2.159  18.724  12.407 -0.0070 -0.3134 -0.2000
27269W        W43530   3.051   0.772   4.203 -0.0159  0.3688  0.1519
27270W        W43531   6.238  16.405   2.338  0.0744  0.0607 -0.1812
27271W        W43532  13.086  10.743  12.671 -0.1394  0.1581  0.1000
27272W        W43533  11.676  11.014   0.419  0.0595 -0.0953 -0.3052
27273W        W43534   8.513  16.576   2.464 -0.0631 -0.2877  0.2318
27274W        W43535  17.303  16.893   1.063  0.1933  0.1106 -0.2857
27275W        W43536   2.268  10.199  12.176  0.1032 -0.1352 -0.4800
27276W        W43537   8.646  16.256  14.127 -0.3767 -0.1761  0.4274
27277W        W43538   9.916  18.470   0.582 -0.0571  0.0938  0.3998
27278W        W43539   4.265  16.711   0.561  0.2384  0.4030  0.1431
27279W        W43540  10.342  15.006   2.996 -0.2811 -0.2431 -0.2226
27280W        W43541   2.644   2.653   1.867  0.1010  0.1080  0.0521
27281W        W43542   1.262  11.132  14.123 -0.3767  0.1718 -0.2198
27282W        W43543   9.566   4.885   0.099 -0.0379 -0.3264 -0.1738
27283W        W43544  15.527   4.979  11.374 -0.1087 -0.2288 -0.0938
27284W        W43545   3.731   1.251  12.058 -0.0263 -0.1120  0.1710
27285W        W43546  13.383  14.866  11.289 -0.1681 -0.0429 -0.5616
27286W        W43547   3.285  12.444   1.718 -0.1488 -0.1052  0.3429
27287W        W43548  16.554   6.073   0.725  0.0769  0.0705  0.1953
27288W        W43549   8.970   9.233   1.351 -0.1338 -0.0138 -0.0408
27289W        W43550   4.256   9.535  14.430 -0.1737  0.3165 -0.3757
27290W        W43551  15.778  13.615   1.941 -0.0862  0.0074 -0.0405
27291W        W43552  16.084   9.757   4.314  0.1167  0.0743  0.0653
27292W        W43553   5.584   5.076   5.569 -0.1743 -0.2066  0.1241
27293W        W43554   6.520   9.337   5.333 -0.0391  0.0777 -0.3042
27294W        W43555  10.237  13.443   3.163 -0.4496 -0.1442  0.2571
27295W        W43556   2.464   2.687   4.924 -0.1249 -0.0617 -0.2951
27296W        W43557  13.627   1.841  13.660 -0.3298 -0.0962  0.2512
27297W        W43558  10.121   3.882  14.230  0.0987  0.0307 -0.0832
27298W        W43559  16.167  10.866   4.394 -0.1524  0.1874  0.0067
27299W        W43560   4.713  16.337  10.542  0.1659  0.3648 -0.0383
27300W        W43561   6.200  15.640   4.508  0.0490  0.1159 -0.1288
27301W        W43562  16.695  10.735  14.032  0.0382 -0.0783  0.0731
27302W        W43563  15.360  11.748   1.645 -0.3239 -0.1137  0.3421
27303W        W43564   4.958  17.862   3.170 -0.3486  0.1540 -0.2511
27304W        W43565  18.272   4.907  12.342  0.1508 -0.0834 -0.0138
27305W        W43566   4.422   5.936   4.151 -0.0845  0.0388 -0.0884
27306W        W43567   3.742  18.914  10.820  0.1492 -0.0691 -0.0500
27307W        W43568  15.681   4.601   3.397 -0.1116 -0.0038 -0.0971
27308W        W43569   7.782  18.635  12.233 -0.5721  0.1708 -0.1053
27309W        W43570   6.346  16.588  12.501 -0.0015  0.2354  0.1075
27310W        W43571   3.270  13.012   2.017 -0.2860  0.0774 -0.1426
27311W        W43572   0.143   7.405  14.632  0.0608  0.1306  0.1672
27312W        W43573   6.589  12.153   1.200 -0.1501  0.2970  0.0547
27313W        W43574   9.651   1.663   5.533 -0.4209 -0.3134  0.3159
27314W        W43575  19.266  18.375   5.439  0.1171  0.0996  0.0514
27315W        W43576  13.513  15.175  11.767 -0.1776  0.1150 -0.2688
27316W        W43577   0.254  14.667   3.899  0.2100  0.1385  0.0296
27317W        W43578   5.173   1.127   3.715  0.0940 -0.0141 -0.3087
27318W        W43579   3.363   9.766  12.901  0.1024 -0.2874  0.0355
27319W        W43580  16.157  14.542   1.802  0.0933  0.0369 -0.1979
27320W        W43581   0.024   2.403  12.301  0.1426 -0.3041  0.0637
27321W        W43582  12.502  12.252  11.071  0.0313 -0.0986 -0.0734
27322W        W43583   6.027  11.001   4.056  0.4310 -0.0489  0.0974
27323W        W43584  11.318  17.541  10.880  0.1921 -0.1538  0.0891
27324W        W43585  16.976   5.744  14.758  0.4140  0.1594  0.0255
27325W        W43586  13.479   3.347  11.183 -0.3107  0.0801 -0.0175
27326W        W43587  10.627   4.673   5.252 -0.2879 -0.3737 -0.0822
27327W        W43588  19.402   1.592   4.052 -0.2319 -0.0691 -0.2398
27328W        W43589  14.657  17.368   0.387 -0.1432 -0.1416  0.1843
27329W        W43590  10.660  12.658   2.164  0.1444  0.2811 -0.0228
27330W        W43591   3.266   4.535   1.236 -0.0202  0.4471  0.1093
27331W        W43592   2.037   7.792  13.236 -0.0755 -0.1804 -0.1031
27332W        W43593   9.792   5.792  12.633 -0.0782 -0.1904 -0.1572
27333W        W43594  17.532  19.215  13.306 -0.0865  0.0296  0.1016
27334W        W43595  14.401  11.360  13.776  0.3991 -0.2847  0.0280
27335W        W43596  18.567  11.941  11.784  0.2032  0.0205 -0.0894
27336W        W43597  17.338   3.500  10.462  0.0978  0.2397 -0.0161
27337W        W43598   5.830   0.392   1.315 -0.0284 -0.0605 -0.1025
27338W        W43599  17.163  13.916  12.673 -0.1055 -0.0908 -0.0035
27339W        W43600   7.608   6.045   4.179  0.0453  0.1198 -0.2309
27340W        W43601  17.807   0.301   1.276 -0.2044  0.1580 -0.1799
27341W        W43602  11.463   4.207   0.541 -0.0969 -0.0185 -0.2520
27342W        W43603   0.634   7.858   4.261 -0.4148 -0.2330  0.1199
27343W        W43604   3.662  12.097  12.400  0.0703  0.0197 -0.2747
27344W        W43605   5.868   4.598   9.573  0.1729 -0.1093 -0.3244
27345W        W43606  10.110   8.177   2.446  0.0190 -0.2728 -0.2948
27346W        W43607   8.989  12.611   2.739  0.3550 -0.0531  0.1724
27347W        W43608  10.563  14.376   3.708 -0.3214  0.1242 -0.1033
27348W        W43609   3.544  12.021  11.955 -0.3127  0.1426 -0.0460
27349W        W43610  17.483  17.764   0.321 -0.3357 -0.1434  0.2046
27350W        W43611  17.561  14.074   3.762 -0.3281 -0.3286 -0.2405
27351W        W43612   9.938  13.619   2.825  0.3131 -0.0368  0.2593
27352W        W43613   0.649   8.782   1.636  0.1187  0.0447  0.2776
27353W        W43614   2.214  13.728   2.947 -0.0393  0.1851  0.2754
27354W        W43615   5.973   1.068  11.419 -0.1665  0.2096  0.2469
27355W        W43616   7.401  19.000   3.444  0.1677  0.0444 -0.4055
27356W        W43617  10.918   3.675   1.658 -0.1290 -0.1836 -0.1538
27357W        W43618   6.274  11.596   1.974  0.0229 -0.0099 -0.0914
27358W        W43619  13.858   7.355   4.259 -0.3358 -0.1822 -0.3138
27359W        W43620   5.110   6.615   4.893  0.3311 -0.1506  0.0158
27360W        W43621  10.282  17.363   9.917  0.0881  0.2167 -0.0067
27361W        W43622   2.571  11.206  11.345 -0.0834  0.0844 -0.0150
27362W        W43623   0.790   0.874  11.125  0.3820  0.1507 -0.2212
27363W        W43624  10.764   0.364  13.924 -0.4075 -0.1991 -0.0131
27364W        W43625   3.165  16.515   1.660 -0.0669  0.3256 -0.0666
27365W        W43626   6.552  11.019   4.120 -0.1287 -0.0781 -0.1115
27366W        W43627  14.663  13.934   4.050  0.0777 -0.2273  0.0867
27367W        W43628   5.266   8.564  12.325  0.2459 -0.1049 -0.1912
27368W        W43629   1.262   6.594   3.420  0.0439 -0.0523  0.3476
27369W        W43630   8.127   3.354   2.560 -0.0465 -0.0761  0.1624
27370W        W43631  10.137  12.982   1.507 -0.2269  0.0603 -0.0748
27371W        W43632   1.165   7.929  13.874  0.1332 -0.2437  0.1229
27372W        W43633   4.387  13.150  10.325 -0.2084 -0.1462  0.2536
27373W        W43634  13.924  13.917   1.039  0.0709  0.0518  0.0491
27374W        W43635   7.553   6.505   3.205  0.1286 -0.0838  0.1387
27375W        W43636  10.754   7.123  11.897 -0.1746 -0.0935  0.2552
27376W        W43637  14.754  11.107   2.714 -0.2488  0.1906  0.2175
27377W        W43638   4.611   2.239  13.347  0.0099  0.0123  0.0709
27378W        W43639  17.058   1.563   1.003 -0.0056 -0.0143  0.2160
27379W        W43640   2.300   8.839   4.798 -0.1148  0.2515 -0.2854
27380W        W43641   1.618  17.004  13.455  0.3073 -0.0546 -0.0693
27381W        W43642  13.617   6.016  11.408  0.1380 -0.0673  0.0372
27382W        W43643  18.645   6.420  14.438  0.0602 -0.1855 -0.0472
27383W        W43644   4.874  11.568   2.489 -0.0500 -0.0364  0.3257
27384W        W43645   3.753  15.261  13.860  0.0371  0.0368  0.3005
27385W        W43646   4.934  14.311  14.697 -0.1033  0.0929  0.2260
27386W        W43647   5.263   2.157   2.293  0.0641  0.3949 -0.1335
27387W        W43648   3.101   0.200  11.723 -0.0752  0.1905  0.0027
27388W        W43649   7.563  18.141  13.055  0.0221  0.1588 -0.3474
27389W        W43650  16.919   2.559   5.582 -0.1902  0.0820  0.1043
27390W        W43651  18.887  17.669   1.735 -0.1035 -0.4476  0.2216
27391W        W43652  17.735  12.263   1.355 -0.1868 -0.0474  0.1015
27392W        W43653  13.341   1.103  11.388  0.1143 -0.2026 -0.1465
27393W        W43654   5.694   6.505  13.131 -0.2548  0.2995 -0.1156
27394W        W43655   5.494  13.730  10.830 -0.3334 -0.1479 -0.2946
27395W        W43656  12.493   4.224   3.989 -0.0809 -0.1086 -0.1443
27396W        W43657  14.178  10.465   3.272  0.2855  0.3500 -0.0307
27397W        W43658  16.641  13.209   9.246  0.0761 -0.1494  0.0253
27398W        W43659   8.998  15.869   2.767  0.2410 -0.0722 -0.0592
27399W        W43660   2.065   7.797  10.513  0.0395 -0.3879  0.4285
27400W        W43661  15.319  17.984  13.463  0.3094 -0.0657  0.2797
27401W        W43662   3.604   9.307  11.279 -0.0568 -0.2558  0.3386
27402W        W43663  12.860   9.594  13.866 -0.1059  0.0699 -0.0502
27403W        W43664  12.945  14.823  14.755  0.0220 -0.0124 -0.0511
27404W        W43665  14.893  16.036  11.360 -0.2265  0.0429  0.1307
27405W        W43666  12.905   6.105   4.559  0.0803  0.1150 -0.1762
27406W        W43667  18.926  11.773   2.981 -0.0369  0.0939  0.0394
27407W        W43668  19.081   8.642   0.027 -0.0556 -0.2230  0.0358
27408W        W43669  15.988   2.192  12.264  0.1228  0.1508 -0.4514
27409W        W43670   7.778  13.662   9.279  0.1373 -0.0230  0.2471
27410W        W43671   1.918   4.973  13.526  0.0778  0.0086  0.1403
27411W        W43672   4.298  12.467   0.840  0.1474  0.1265  0.0769
27412W        W43673  10.416   1.420   2.240 -0.2483 -0.1217  0.2180
27413W        W43674   1.061   5.681  11.627  0.1500  0.2067 -0.0874
27414W        W43675   7.763   7.977   2.355 -0.0342  0.2304  0.0365
27415W        W43676   5.599   0.254   4.426  0.1978 -0.2400  0.2222
27416W        W43677   1.929  13.598  11.477 -0.3475  0.1010 -0.1540
27417W        W43678  18.654   4.840   3.969  0.2503 -0.1740  0.0892
27418W        W43679   1.348   1.065   0.663  0.2943  0.3280  0.2173
27419W        W43680  16.050  11.536  12.096  0.2631 -0.4436  0.0308
27420W        W43681  12.350   5.453  11.908  0.0396  0.0085  0.0942
27421W        W43682   1.234  10.192   4.210 -0.0406  0.0445 -0.0160
27422W        W43683   0.091   6.114   3.014 -0.0138 -0.1750  0.0132
27423W        W43684  14.022   5.801   1.716 -0.1568 -0.1658 -0.1883
27424W        W43685  19.125   3.409   1.548  0.0323  0.0905  0.3103
27425W        W43686   5.644   2.245  12.949  0.2292 -0.0898 -0.1762
27426W        W43687   2.930  16.503  14.826  0.2514 -0.0307  0.1081
27427W        W43688   6.589   2.054   1.997  0.2589  0.4861 -0.1442
27428W        W43689   3.083  10.154  14.509 -0.2155 -0.1621  0.0374
27429W        W43690   4.062   4.344   4.851  0.0743  0.1079  0.3019
27430W        W43691  14.868   9.585   0.788  0.0428 -0.1655 -0.0523
27431W        W43692   4.991   4.208   0.887  0.5179  0.1474  0.0068
27432W        W43693   7.585  10.824   2.157 -0.1327  0.2380  0.1356
27433W        W43694  13.398  13.270   4.217  0.2042 -0.1083  0.1063
27434W        W43695   9.618   6.595   0.842 -0.1749 -0.1179 -0.0570
27435W        W43696   3.919   4.026  10.947  0.0061  0.1128  0.0792
27436W        W43697  16.287  11.255   0.876 -0.4071  0.0728 -0.0409
27437W        W43698  10.941  17.331   3.532  0.1269  0.1002  0.2458
27438W        W43699  13.326  16.654   0.316 -0.2526  0.1992  0.0773
27439W        W43700   0.643  18.209   1.258  0.0248  0.0273  0.0054
27440W        W43701  17.150  15.466  10.568 -0.1503 -0.0704 -0.1256
27441W        W43702  11.269  13.922   2.625 -0.2363 -0.2285 -0.0862
27442W        W43703  13.636  17.261   3.883 -0.1638  0.1297  0.0988
27443W        W43704  15.704  13.443   4.344  0.0300 -0.1138  0.1406
27444W        W43705  13.565  12.200   4.271  0.1463 -0.0799  0.2686
27445W        W43706  12.453   2.989   1.983 -0.0723 -0.0058  0.0782
27446W        W43707  12.281  15.101   2.946  0.1189 -0.0153 -0.1332
27447W        W43708   5.154   1.826  14.515  0.0229 -0.1623  0.0273
27448W        W43709  13.543   4.711   2.377 -0.1143  0.1207  0.0072
27449W        W43710   4.112  13.637   2.927 -0.0312 -0.2338 -0.0032
27450W        W43711   6.623   7.043  12.082 -0.1956  0.0336  0.6275
27451W        W43712  13.094   9.954   2.625  0.1625  0.0516 -0.0126
27452W        W43713   3.947   3.400   4.815  0.1199 -0.1912 -0.3449
27453W        W43714  11.002  15.952   2.980 -0.1939 -0.2766 -0.0591
27454W        W43715  13.930   6.869   3.105  0.0690  0.1391 -0.0314
27455W        W43716   4.581   4.343   4.774 -0.1221  0.0027  0.3003
27456W        W43717  14.476  17.851   3.553  0.1116 -0.1871  0.3060
27457W        W43718  17.232   8.999   0.141 -0.1008  0.0465 -0.0694
27458W        W43719  14.827  14.542  13.199 -0.2322 -0.0859  0.0652
27459W        W43720  17.641   4.173   3.684 -0.1626  0.1179  0.2739
27460W        W43721   4.933   0.219  12.697  0.2281  0.1636 -0.0353
27461W        W43722   8.812   8.461   2.855 -0.0150  0.0981  0.4141
27462W        W43723  17.934  15.767   3.199 -0.0117 -0.2166  0.0323
27463W        W43724  10.081  16.097   2.030  0.2583 -0.0262  0.3510
27464W        W43725   8.939   4.355  10.714  0.2439  0.1612 -0.0292
27465W        W43726  18.787  17.850   4.973 -0.1797  0.1407 -0.2541
27466W        W43727   1.951  10.569  11.162 -0.1354 -0.1913 -0.1933
27467W        W43728   8.047   5.944   3.795 -0.0655  0.1050 -0.2441
27468W        W43729  16.266   5.596   1.534  0.1314 -0.3292  0.1474
27469W        W43730   6.375   0.790   3.403 -0.0192  0.0920  0.1344
27470W        W43731   7.001  13.389   1.205  0.1174  0.0821  0.0374
27471W        W43732   9.686   0.497  11.876  0.1443 -0.0808 -0.1175
27472W        W43733  18.072   3.278  10.529  0.4573  0.0667 -0.0651
27473W        W43734  12.350   2.319   3.721  0.2378 -0.1279 -0.1928
27474W        W43735   8.837   4.810   3.425  0.3547 -0.0538  0.1799
27475W        W43736   7.392   8.266  11.697 -0.1314 -0.1968  0.0678
27476W        W43737  19.293  14.982  13.139 -0.0366 -0.0731 -0.0368
27477W        W43738  14.930   9.899  13.139 -0.2635 -0.1842 -0.0519
27478W        W43739  14.922  17.926   4.755 -0.0333  0.0002 -0.1717
27479W        W43740  10.152  12.262   1.046 -0.0943 -0.0911  0.0578
27480W        W43741  18.828  13.401  14.701 -0.4368 -0.1693  0.3115
27481W        W43742  16.366   0.879   0.773  0.6419 -0.3207  0.5032
27482W        W43743   1.646   7.938  13.650  0.0888  0.0561  0.0830
27483W        W43744   2.909   7.097   0.969 -0.2813 -0.1923 -0.0038
27484W        W43745   2.108  13.213   4.746  0.1050 -0.2416  0.1319
27485W        W43746   9.837  14.178  12.688  0.0545  0.0877  0.2812
27486W        W43747  17.246  11.718   3.771 -0.1045  0.2568  0.0051
27487W        W43748   1.703  18.976  14.597  0.0934  0.1902 -0.0107
27488W        W43749   3.297   8.017  14.168  0.2593  0.2762 -0.1680
27489W        W43750  15.477  18.630   0.488  0.0480  0.0662 -0.1217
27490W        W43751   9.298  14.594  12.129 -0.1122 -0.1005  0.1901
27491W        W43752   6.291  16.230   1.003 -0.3141 -0.0916 -0.3086
27492W        W43753   2.432  18.388  14.346  0.1869  0.3405  0.0413
27493W        W43754  17.803  17.259   1.041  0.0262  0.2478  0.5548
27494W        W43755  17.860   9.667   4.419  0.1833 -0.1906 -0.2490
27495W        W43756   9.058   8.938   4.618 -0.3637  0.3480 -0.2525
27496W        W43757   8.354   6.682   4.380  0.1101 -0.3050 -0.0872
27497W        W43758  11.602  14.901   1.120 -0.1492 -0.2567 -0.2929
27498W        W43759   0.402  14.306   1.592 -0.0601 -0.0755  0.0946
27499W        W43760   4.099   5.933  14.557 -0.0466 -0.0950  0.0173
27500W        W43761   6.965   3.393   5.089 -0.0434  0.2019 -0.1304
27501W        W43762  13.287  16.744  11.102 -0.5457 -0.0698 -0.3208
27502W        W43763  17.691  15.082   5.316 -0.1017 -0.0150 -0.0903
27503W        W43764   9.621   1.019   0.675 -0.1939 -0.1645  0.2175
27504W        W43765  16.800  18.590  12.324 -0.1152 -0.0009 -0.3030
27505W        W43766   4.332  19.054   4.349  0.1574  0.5712 -0.4840
27506W        W43767  13.574   9.437  14.770  0.1315 -0.2346  0.0682
27507W        W43768   4.755  14.158   3.746  0.0703 -0.1426  0.2473
27508W        W43769  17.025  14.774  11.504  0.5910 -0.2132 -0.3319
27509W        W43770   2.888   5.278   2.771  0.0702  0.1208 -0.0640
27510W        W43771   2.698   3.171  13.250  0.3214  0.2923  0.3386
27511W        W43772  12.461  12.653   1.186 -0.2191  0.1196  0.0234
27512W        W43773  12.609  10.736  14.415  0.0514  0.0231 -0.2340
27513W        W43774   6.687  18.090   3.428  0.1425 -0.3219 -0.2976
27514W        W43775  13.457  10.599  11.864  0.0061 -0.1970 -0.2761
27515W        W43776   9.806   8.986  11.393  0.0529 -0.1580 -0.1767
27516W        W43777  10.249  15.659  12.736  0.0601  0.2360  0.3948
27517W        W43778   7.939  17.690  13.201 -0.0040  0.1534  0.1310
27518W        W43779  17.688  13.074   1.461 -0.0963  0.0319  0.1968
27519W        W43780  18.659  11.197  13.781  0.3683  0.1230 -0.0544
27520W        W43781  15.525   9.941   3.671 -0.2677  0.3284 -0.0537
27521W        W43782   2.327   6.055   3.968 -0.1268 -0.1254  0.0260
27522W        W43783   8.320   0.478   1.956 -0.1689 -0.1577  0.2869
27523W        W43784  15.853  15.230   4.565  0.2898  0.0541  0.0067
27524W        W43785   2.070   6.910  12.130 -0.2445 -0.4033  0.4257
27525W        W43786   4.545  12.810   4.744  0.0557 -0.0146 -0.3548
27526W        W43787   7.014  11.775  10.196  0.0381  0.1739 -0.0600
27527W        W43788   2.284   9.186  13.540  0.0749 -0.0882  0.2579
27528W        W43789   5.347   7.233   3.936  0.2546 -0.1284  0.1524
27529W        W43790  15.309  14.137   0.147 -0.3120  0.1377 -0.2159
27530W        W43791  16.574   9.924   3.505  0.5266 -0.3470  0.0626
27531W        W43792   7.473  17.559  10.705 -0.3491 -0.2654 -0.1007
27532W        W43793  10.623  19.131   1.335  0.0747 -0.1226  0.0803
27533W        W43794  18.563   3.048   2.310  0.3935 -0.1695 -0.0061
27534W        W43795  17.307  12.267  10.411 -0.0638  0.3191  0.2608
27535W        W43796  19.409   9.968   2.782 -0.4010  0.0144  0.0254
27536W        W43797   3.825  17.694  12.954 -0.0494 -0.1886 -0.3594
27537W        W43798  18.481   7.409   4.151  0.1264  0.0445  0.0066
27538W        W43799   4.755   0.953  10.737  0.0026  0.2445  0.3704
27539W        W43800   7.005  13.730   0.873 -0.0841  0.4243  0.3715
27540W        W43801  12.657  13.670   2.314  0.1397  0.3766 -0.1093
27541W        W43802  17.673   2.414  13.657 -0.0603  0.1195  0.0314
27542W        W43803   5.414   5.722  10.653 -0.0106  0.0894  0.1733
27543W        W43804  13.128   5.623   0.438  0.2764  0.0257 -0.3182
27544W        W43805   5.875   5.448  11.722  0.1545  0.2438 -0.1952
27545W        W43806   4.440   9.873  10.459 -0.1137  0.1164  0.1190
27546W        W43807   4.600  11.924   2.162  0.0624 -0.1075  0.0948
27547W        W43808   5.837  12.586   4.692  0.1310  0.0204  0.1885
27548W        W43809   0.839  16.931  11.013 -0.0579 -0.1233 -0.1692
27549W        W43810   1.655   9.939   4.368  0.0153  0.0863 -0.1817
27550W        W43811  13.940  16.896  11.763 -0.0556  0.3439  0.2601
27551W        W43812   8.218  10.983   2.899  0.0971 -0.0277 -0.4308
27552W        W43813  15.032   3.058   4.870 -0.1680  0.1336 -0.0399
27553W        W43814  10.070  12.884  12.835 -0.1525  0.2418 -0.1223
27554W        W43815  16.722   3.023  13.117  0.2671 -0.1121  0.4365
27555W        W43816  11.760   7.662   1.178  0.2553 -0.0069 -0.1012
27556W        W43817   0.747   9.921  10.806 -0.1796  0.2946 -0.5231
27557W        W43818  16.086   0.748  10.828 -0.3597 -0.1264 -0.2081
27558W        W43819   9.047   2.880   3.994  0.3037  0.1327 -0.2026
27559W        W43820   8.918  12.967  11.640 -0.2215 -0.4370  0.1043
27560W        W43821   4.205   6.963   2.288  0.0772  0.5123  0.0071
27561W        W43822   2.899  13.447   3.834 -0.2021 -0.2712 -0.1035
27562W        W43823   3.961  15.394  12.181  0.1304 -0.1463  0.4866
27563W        W43824   9.074   6.027  10.890  0.2320  0.0741  0.2346
27564W        W43825  13.963  15.771   3.030 -0.1064 -0.1979  0.0811
27565W        W43826   4.306  18.902   1.619  0.0362 -0.1823  0.0470
27566W        W43827   2.417  14.855   4.266  0.2549  0.1280 -0.1707
27567W        W43828   7.341  17.289  11.053 -0.0204  0.3199  0.0016
27568W        W43829   5.743   4.711  11.436  0.0110  0.2332  0.0085
27569W        W43830  17.234  13.295   1.695 -0.0352  0.1616 -0.0463
27570W        W43831  18.077  10.946  12.921  0.1372 -0.4247 -0.1976
27571W        W43832  18.771  19.335   4.562 -0.2246  0.0800 -0.1781
27572W        W43833  18.615   9.493   0.281 -0.2535 -0.3577 -0.0419
27573W        W43834   5.774   1.624   0.726  0.3432  0.0890 -0.0145
27574W        W43835   4.466  12.634   9.916 -0.1251  0.0709 -0.1206
27575W        W43836   0.337   8.806  13.484 -0.2879  0.0111 -0.3565
27576W        W43837   1.129   8.337  11.120 -0.2598 -0.0104 -0.1386
27577W        W43838  13.760   3.362   2.603 -0.0961  0.0789  0.2147
27578W        W43839   2.225   6.624  12.937  0.0873 -0.1207  0.0025
27579W        W43840   9.789  13.401   1.500 -0.0414 -0.1308 -0.0107
27580W        W43841  18.285  18.636  11.739  0.3431 -0.2043  0.1142
27581W        W43842   5.474  19.376  11.962  0.2363 -0.1789 -0.2054
27582W        W43843  17.974   0.853   4.550  0.1168 -0.0550 -0.0288
27583W        W43844  15.604   0.064  12.972 -0.1598 -0.0792  0.0770
27584W        W43845   3.038  19.030   3.073  0.3526  0.2069 -0.1734
27585W        W43846  13.928   8.410   0.537 -0.0559  0.1053 -0.3271
27586W        W43847   5.111  14.934   9.602  0.1133  0.5926  0.0044
27587W        W43848  16.506   3.470   2.482  0.1634 -0.1511 -0.1854
27588W        W43849  14.061   0.248   4.835 -0.0865 -0.2336  0.0597
27589W        W43850  18.183   5.103  11.911  0.2118 -0.2176  0.0463
27590W        W43851   2.524  14.507   3.766  0.2501  0.0783 -0.0727
27591W        W43852   1.386   8.208  12.089  0.3687 -0.1053  0.0012
27592W        W43853   9.587   5.606   4.337 -0.0074  0.0485  0.0978
27593W        W43854   3.987  10.702  11.155  0.1814  0.1410  0.4779
27594W        W43855   6.076   9.488  14.114 -0.3050 -0.1056 -0.0784
27595W        W43856   6.134   8.649  14.378 -0.1239  0.2304 -0.1141
27596W        W43857   5.867  10.105  14.457  0.2156  0.3013 -0.1583
27597W        W43858   7.384   3.390  12.617 -0.1471 -0.1054  0.0477
27598W        W43859  14.513   3.459  10.480  0.0599  0.2661 -0.4334
27599W        W43860   3.103   7.015   0.091 -0.0840  0.0910 -0.3299
27600W        W43861   3.846   0.337  12.216 -0.2079 -0.0514  0.2336
27601W        W43862   9.299  10.908  10.044 -0.1760 -0.0054 -0.1661
27602W        W43863  17.730  17.815   3.603 -0.0583  0.1047 -0.0837
27603W        W43864  16.186   8.661  11.387  0.0429  0.0395  0.0300
27604W        W43865   7.728   5.008  13.174  0.1210 -0.0009  0.0863
27605W        W43866   2.491   7.189   4.008  0.3133 -0.1921  0.0654
27606W        W43867  14.648   4.752   2.567  0.4906 -0.0990 -0.1171
27607W        W43868  10.820   7.195   1.304  0.0875  0.0516 -0.0126
27608W        W43869  15.534  18.898   3.933 -0.0351  0.1503 -0.0919
27609W        W43870  17.687   1.958  13.087  0.1866  0.3842 -0.1144
27610W        W43871   3.134   6.553   4.352 -0.2209  0.0898 -0.3148
27611W        W43872  10.480  13.100  14.718 -0.1393 -0.0530 -0.0260
27612W        W43873   8.738   3.160  13.684 -0.0053  0.1058  0.1477
27613W        W43874   9.479  18.560  12.649  0.0527  0.2693 -0.1141
27614W        W43875  18.363  17.675   2.095  0.1706 -0.0359  0.1651
27615W        W43876   9.068  10.496   2.016  0.1217  0.2616 -0.0053
27616W        W43877   0.215   7.841  10.618 -0.1333 -0.1350  0.1030
27617W        W43878   8.045  11.435   5.154  0.0479  0.1182  0.2056
27618W        W43879  14.023  14.530  12.168  0.1840  0.0620 -0.0532
27619W        W43880   9.202  11.956   3.628 -0.1397  0.2988  0.1221
27620W        W43881   2.918   1.128  12.920  0.1783  0.5251 -0.1157
27621W        W43882   6.958   5.783  14.402 -0.0300  0.1694 -0.1169
27622W        W43883  10.374  18.678  11.955  0.0229 -0.1717 -0.1407
27623W        W43884   6.243  13.776   1.543 -0.0317  0.2844  0.2276
27624W        W43885  15.029   0.992  12.976 -0.3483 -0.0461 -0.1572
27625W        W43886  10.091  12.436   3.415 -0.1573  0.2178  0.0555
27626W        W43887   9.045   5.695  14.050 -0.0427  0.4044 -0.1242
27627W        W43888  14.142  15.226   0.813 -0.1873  0.2548  0.0480
27628W        W43889   1.361  14.751  14.155  0.0770  0.0281 -0.0614
27629W        W43890  19.180  11.681  11.825  0.3848 -0.0916 -0.0420
27630W        W43891   5.688  13.239  10.816 -0.1578  0.1943 -0.1636
27631W        W43892   4.438   1.831   0.605  0.0360 -0.0416 -0.0818
27632W        W43893  13.457   2.015   1.965 -0.1688  0.4889 -0.0488
27633W        W43894  19.198  17.034  11.889  0.1786  0.0880  0.0337
27634W        W43895  13.974   2.106  10.562  0.0198 -0.0795 -0.0240
27635W        W43896   0.089  11.292   1.243 -0.0081  0.0869 -0.2034
27636W        W43897  12.198   4.375  11.207 -0.3232 -0.1445  0.2367
27637W        W43898   6.610  10.078  11.378 -0.0108  0.3330 -0.0389
27638W        W43899  10.551  11.454   3.725  0.1528  0.0746  0.1091
27639W        W43900  13.780  13.748  14.419 -0.0533 -0.0922 -0.1473
27640W        W43901   9.007  11.362  12.384  0.0003 -0.1149 -0.0489
27641W        W43902   0.211   7.435  11.933 -0.0507  0.0818  0.2802
27642W        W43903  17.639   4.184  13.664 -0.0674  0.4136  0.2654
27643W        W43904   0.875  18.849   1.983  0.3582 -0.0135  0.3354
27644W        W43905   1.268  16.898   3.569 -0.0950  0.0254  0.0131
27645W        W43906  16.172  19.006  11.697  0.1707  0.1753  0.0836
27646W        W43907   5.496  17.300   2.880 -0.2822  0.3193 -0.0176
27647W        W43908  12.810   4.716  11.556 -0.1148 -0.0739 -0.0418
27648W        W43909  11.144  16.404  13.366  0.2957  0.0801 -0.0992
27649W        W43910   6.481  10.961  12.873 -0.1224 -0.1772 -0.1982
27650W        W43911   7.999  10.027   2.413 -0.4570 -0.1247  0.1011
27651W        W43912   8.784   5.736  12.626  0.3371  0.4390  0.0582
27652W        W43913  11.336  11.895  10.880  0.0315 -0.3253  0.0819
27653W        W43914  19.094   3.808   3.270 -0.0363  0.2928 -0.1547
27654W        W43915   0.719  13.106   1.478 -0.4664 -0.1115 -0.0306
27655W        W43916   4.565   0.477   0.161  0.1358 -0.3731  0.2139
27656W        W43917  11.579   3.608  12.133 -0.0775  0.1626 -0.0782
27657W        W43918  10.661  16.445   0.252  0.3901 -0.3966 -0.1368
27658W        W43919  12.669  10.640  12.396  0.2742 -0.1690 -0.1862
27659W        W43920  17.674   0.269   4.959 -0.1378 -0.2070  0.1512
27660W        W43921   5.350  16.456   1.541 -0.0807 -0.0852  0.1114
27661W        W43922  18.823   8.630  11.252  0.0643  0.3156 -0.3804
27662W        W43923  15.692   5.912   2.825  0.2943  0.2485 -0.1408
27663W        W43924   4.874  17.768   2.324  0.3569  0.2367 -0.4080
27664W        W43925  18.418  15.804  11.560  0.1960  0.0565  0.4235
27665W        W43926  18.884   7.904  13.182  0.2483  0.2389 -0.4068
27666W        W43927  15.138   2.714   9.256  0.0857 -0.2724  0.4836
27667W        W43928  14.447   1.882  13.993 -0.4080  0.0089  0.0605
27668W        W43929   2.793   8.143  14.308  0.2308 -0.1287 -0.0322
27669W        W43930  18.587   4.901  10.946 -0.0315  0.1154  0.2246
27670W        W43931  16.402   0.423  10.940 -0.0427  0.2898 -0.3334
27671W        W43932   9.212  15.513   1.891  0.2156 -0.1556 -0.5066
27672W        W43933   9.984   6.314  10.789  0.2415  0.0330  0.1207
27673W        W43934   1.023   2.342  12.608  0.2135  0.1301  0.0770
27674W        W43935  11.941   6.370   1.174  0.0947 -0.0189 -0.0111
27675W        W43936   0.740  17.620  13.993 -0.0672 -0.0397 -0.0424
27676W        W43937  12.615   0.515  13.061 -0.0569 -0.0518  0.0069
27677W        W43938   0.299  18.505   5.173 -0.0579  0.0966 -0.0053
27678W        W43939  18.548   8.309   3.060 -0.3840  0.1211 -0.2589
27679W        W43940   8.194  16.934   3.693  0.2011  0.0358  0.2282
27680W        W43941   5.843  11.170  14.869  0.0092 -0.0870 -0.1070
27681W        W43942   6.513   7.603   3.095  0.3770 -0.1953 -0.2816
27682W        W43943   9.840   6.241   1.689 -0.1888 -0.0617  0.0615
27683W        W43944   6.077   6.539  14.843  0.1404  0.0233 -0.0824
27684W        W43945   2.187  11.995  14.627 -0.2373  0.1475  0.2583
27685W        W43946  16.623  12.464   2.920  0.0466  0.0810  0.0570
27686W        W43947  19.318   5.010   2.292  0.1149 -0.0027  0.0771
27687W        W43948   4.566   8.613  14.847 -0.1715 -0.5063 -0.0326
27688W        W43949   6.097  19.300   4.971  0.4149 -0.2139  0.3748
27689W        W43950   8.868   9.245   3.545  0.1614 -0.1969  0.0759
27690W        W43951   7.041   9.732  10.755 -0.0677  0.0244 -0.1534
27691W        W43952   0.067  18.264  11.273 -0.1944  0.1592 -0.2410
27692W        W43953   8.174  19.192   0.546  0.1716  0.0674 -0.1417
27693W        W43954  16.886  14.309  14.052  0.2529 -0.2377  0.0798
27694W        W43955   6.860   3.075   4.512 -0.3780  0.1203 -0.1582
27695W        W43956  12.384   9.123  12.133  0.1060  0.3942  0.2072
27696W        W43957   8.666  11.284  12.707  0.2714  0.0404 -0.0175
27697W        W43958  16.643   9.008  12.498  0.0825  0.0718 -0.1069
27698W        W43959   6.496  10.800  11.073  0.0654  0.0952 -0.0548
27699W        W43960  14.530   0.341  11.651 -0.2571 -0.6923 -0.0466
27700W        W43961  14.091   1.702  13.665 -0.2236 -0.0868 -0.0643
27701W        W43962   1.168  18.037   1.758  0.0592  0.0316 -0.1042
27702W        W43963  15.619   6.545   0.527  0.3202  0.2374 -0.2352
27703W        W43964   5.615   1.303  10.440 -0.2810 -0.3335 -0.1296
27704W        W43965  10.663  15.597   4.268  0.0584  0.0436 -0.2423
27705W        W43966   0.855  11.291  12.592  0.1479  0.1100 -0.1925
27706W        W43967  15.047   8.625  13.405  0.0263 -0.0840  0.3322
27707W        W43968   6.768  16.551  14.212 -0.0748 -0.0271 -0.0348
27708W        W43969   6.299  10.447  13.176  0.0558 -0.0164 -0.2009
27709W        W43970  10.622   4.987   4.864 -0.2088 -0.1931 -0.0521
27710W        W43971   9.923   4.295   3.010  0.0906 -0.1548 -0.3906
27711W        W43972  11.811  13.344  10.120  0.0323  0.0615 -0.0761
27712W        W43973   5.746   4.481  12.562  0.0156 -0.0259 -0.0692
27713W        W43974  16.367   3.079  14.630  0.3026 -0.3047 -0.1913
27714W        W43975  16.917  12.345  11.613  0.0727 -0.3302 -0.1291
27715W        W43976   9.867   6.678  11.583  0.0312  0.2049  0.2601
27716W        W43977  10.299   2.286  14.032  0.2818 -0.2398 -0.1657
27717W        W43978  16.806   6.015  12.023  0.3404  0.0067  0.1205
27718W        W43979  16.157   6.225   1.647 -0.1920  0.0469 -0.2313
27719W        W43980  13.659   4.182   4.754 -0.0771 -0.0185  0.0360
27720W        W43981  17.191   2.605  11.813 -0.2659  0.0455  0.0197
27721W        W43982  14.066  13.194   0.512 -0.0797  0.4615 -0.1208
27722W        W43983  18.560   4.169  11.545 -0.0148  0.2240  0.1038
27723W        W43984   0.599  16.385   1.558 -0.0931 -0.0912  0.1650
27724W        W43985   6.566  14.804  14.058 -0.0882  0.0069 -0.0866
27725W        W43986   1.842  18.711   5.589  0.0511 -0.0417 -0.1205
27726W        W43987  19.410  11.008   0.071 -0.1940 -0.2105 -0.0542
27727W        W43988  13.496   2.758  14.529 -0.0003 -0.2044  0.1838
27728W        W43989   3.049   6.850   2.590 -0.3058 -0.1332 -0.1047
27729W        W43990  18.245   4.292   1.195 -0.0404  0.1202 -0.4371
27730W        W43991  18.864   6.410  13.463  0.0124  0.1086  0.1140
27731W        W43992   8.365   2.725   3.414  0.0015  0.0485 -0.2588
27732W        W43993   8.729   6.053  14.176 -0.0434  0.2260 -0.0869
27733W        W43994  10.433   8.437  14.238 -0.1046  0.1287 -0.0297
27734W        W43995  17.979  11.443   5.102  0.2718 -0.0639 -0.1782
27735W        W43996   6.579   8.060   4.573 -0.2733 -0.2143  0.3304
27736W        W43997  13.356  19.375  13.363 -0.2151  0.1042  0.4673
27737W        W43998  13.088  18.239   0.382 -0.3886  0.0428 -0.0203
27738W        W43999  10.951  12.310   0.352  0.2551 -0.0027  0.4694
27739W        W44000  17.255  10.136  12.200 -0.0921  0.0845 -0.0137
27740W        W44001   2.205   2.139   3.482  0.0423  0.3477 -0.1987
27741W        W44002  14.091  10.478  11.194 -0.0001  0.1066  0.0404
27742W        W44003   7.127   1.279   3.607  0.1557 -0.3090  0.3322
27743W        W44004  10.280   6.611  12.967 -0.2504 -0.1663 -0.0003
27744W        W44005   5.797   6.291   3.133  0.1142  0.1343 -0.1587
27745W        W44006   6.023   6.111  12.964 -0.2141  0.0655  0.0776
27746W        W44007   6.865   5.768   0.265  0.0563 -0.1869  0.2504
27747W        W44008   8.032  18.201   0.331 -0.2653  0.1834  0.0669
27748W        W44009  16.456   6.155   5.730  0.0163  0.2455  0.0322
27749W        W44010  18.211   5.690  12.695 -0.3583  0.2459  0.2235
27750W        W44011   7.688  16.871   0.803  0.0148  0.0754 -0.0652
27751W        W44012  11.231  12.092   4.201 -0.0818 -0.0330 -0.1665
27752W        W44013   4.137  17.234   4.085  0.0681 -0.2796  0.3409
27753W        W44014   7.130  13.929  12.878 -0.2492 -0.0831 -0.0293
27754W        W44015  14.468   5.361   4.823  0.4416  0.0184 -0.0013
27755W        W44016  16.411  18.990   0.436 -0.0001 -0.0308  0.1563
27756W        W44017  16.125   2.884   1.913  0.0532  0.1659  0.0920
27757W        W44018  12.960  17.913   2.870 -0.2305 -0.1719 -0.2666
27758W        W44019  19.302  15.684  11.123  0.2807 -0.2401 -0.5469
27759W        W44020   6.330  14.453  10.726  0.1252 -0.0497 -0.1485
27760W        W44021   5.437   0.352   3.420  0.1508  0.1941  0.0560
27761W        W44022  18.184  15.809   1.664  0.3429 -0.1575 -0.0635
27762W        W44023  14.686   9.822  14.659  0.0573  0.1966 -0.1162
27763W        W44024  10.465   3.068  10.732  0.1455  0.1353 -0.0351
27764W        W44025  11.242  16.472   0.177  0.2187  0.2791  0.3921
27765W        W44026  15.064   1.231  12.129  0.0493 -0.0274  0.2537
27766W        W44027   3.484  10.824  12.983  0.0627  0.1620 -0.0612
27767W        W44028  17.514  10.533   1.305  0.1514  0.0206 -0.0655
27768W        W44029   6.990   0.688  13.817 -0.1867  0.2170  0.0995
27769W        W44030   8.742   6.977  13.687 -0.0600  0.3150  0.0641
27770W        W44031  13.636  10.450   4.582  0.0765 -0.1958  0.0494
27771W        W44032   3.762  14.828   5.305 -0.1532  0.1548  0.2909
27772W        W44033   6.266  14.619   0.872 -0.1686  0.0555  0.1831
27773W        W44034   8.775  16.276   3.271  0.1742 -0.0168  0.0353
27774W        W44035  11.670   2.544   4.220 -0.3398  0.0583  0.2305
27775W        W44036   2.434  10.828  10.868 -0.1579  0.0120  0.0768
27776W        W44037   5.231   8.046  14.152  0.0853 -0.3176 -0.2875
27777W        W44038  13.570   5.267   2.436  0.0439 -0.0367  0.1731
27778W        W44039  15.571  18.234   3.632 -0.2299  0.0436 -0.0768
27779W        W44040   8.874   5.870   4.645  0.0732  0.2446  0.0968
27780W        W44041   6.549   5.372   5.009 -0.1862  0.2680  0.0211
27781W        W44042   5.809   6.783   4.534  0.1424 -0.2229  0.0659
27782W        W44043  11.658  10.817  12.916 -0.0919  0.0573  0.1706
27783W        W44044  10.595  11.185  13.663  0.2368  0.0908  0.1558
27784W        W44045  14.872  15.801  14.066 -0.1584  0.1523 -0.0533
27785W        W44046   0.212  14.667   2.653  0.2795  0.0205  0.0687
27786W        W44047  18.661  12.307  13.930 -0.0261  0.0749 -0.2714
27787W        W44048   4.119   2.596   5.720 -0.1584  0.0120 -0.1875
27788W        W44049  12.637   6.577   4.318 -0.2906  0.2188  0.0314
27789W        W44050  19.130  13.138  11.953 -0.1980  0.1353 -0.1357
27790W        W44051   4.241  15.366   2.238  0.2305  0.1087 -0.1249
27791W        W44052   0.948  14.193   0.077 -0.0261  0.3667  0.2600
27792W        W44053  14.341   7.579  12.753 -0.0991 -0.0528  0.1069
27793W        W44054  16.332   3.769   3.999  0.4655 -0.1807  0.2737
27794W        W44055  17.580  18.618  13.693 -0.0686 -0.1051 -0.0697
27795W        W44056  14.233  16.624  10.484  0.1320  0.1094  0.0959
27796W        W44057  13.273  12.153   1.210  0.0093 -0.0123  0.3181
27797W        W44058   3.656   4.010  13.727 -0.0272  0.1504  0.2542
27798W        W44059   3.153  12.796  12.069  0.0376 -0.1193 -0.1510
27799W        W44060   7.878  14.557  12.875  0.0584  0.1763 -0.0065
27800W        W44061   2.921  15.427   4.911  0.3986 -0.5872  0.2305
27801W        W44062   6.623   9.490  13.448 -0.0256 -0.1889  0.0389
27802W        W44063   4.468  10.806  14.479  0.1696  0.0939  0.1812
27803W        W44064   5.705   7.707   0.091  0.2433 -0.1777 -0.3113
27804W        W44065  11.987   6.133  13.171 -0.0417 -0.0394  0.0682
27805W        W44066   0.179   2.847   5.643  0.1954 -0.1955 -0.1025
27806W        W44067  15.614  13.827  11.563  0.0738 -0.0685 -0.1966
27807W        W44068   9.857   3.789   3.154 -0.0848  0.0758  0.2767
27808W        W44069   7.073  10.814  13.681 -0.1040 -0.2049 -0.0226
27809W        W44070  12.534  16.051   2.929  0.0025  0.1711 -0.3823
27810W        W44071   9.182  14.710   1.349  0.1736 -0.0358 -0.0910
27811W        W44072   5.852  11.347  10.117  0.1998 -0.4406  0.1747
27812W        W44073  19.389  13.898   3.119  0.3416 -0.1128  0.0965
27813W        W44074  16.419   8.575  13.715  0.3144  0.0066 -0.1286
27814W        W44075   3.482  19.349   2.385 -0.0281 -0.4421  0.1892
27815W        W44076  13.267   9.364  14.034 -0.0450  0.1307  0.1220
27816W        W44077   1.619  16.623   3.713  0.1962 -0.1376 -0.0072
27817W        W44078   1.363   9.644   5.682 -0.8187  0.0857  0.0578
27818W        W44079  17.600  12.298   3.154  0.4530  0.2685  0.5036
27819W        W44080  17.648  15.253  10.020  0.1434  0.2299 -0.0425
27820W        W44081   9.134   0.064   1.844  0.3651  0.3355 -0.1927
27821W        W44082  14.518  18.700  13.419  0.0562  0.2973  0.0905
27822W        W44083  10.794   4.545  11.801  0.0143 -0.1743  0.0116
27823W        W44084  11.530  12.022   0.676  0.0519 -0.0050 -0.2016
27824W        W44085   3.725  13.801   0.362 -0.1616 -0.0209 -0.2907
27825W        W44086   8.354  10.810   3.435  0.3253 -0.1826  0.1250
27826W        W44087   8.065  16.937  11.769  0.1790  0.0613  0.0677
27827W        W44088   2.066   9.323   0.653 -0.2302 -0.2599  0.1391
27828W        W44089  11.039  16.070  10.971 -0.4869 -0.2183  0.1811
27829W        W44090   6.472  16.256   2.735  0.2320 -0.1775 -0.2412
27830W        W44091   4.858   8.357   0.844 -0.0557 -0.2025 -0.0430
27831W        W44092   9.680   3.792  10.430 -0.3039  0.0039 -0.0458
27832W        W44093   7.669   5.421  13.494  0.0611 -0.1550 -0.1514
27833W        W44094   0.204   2.985  13.511  0.4303 -0.0901 -0.1820
27834W        W44095  18.174  12.366   0.066 -0.1451 -0.2179 -0.1127
27835W        W44096  10.710   9.172   4.168 -0.0580 -0.0135  0.1864
27836W        W44097  16.760   4.314   0.197 -0.1195 -0.1427  0.1741
27837W        W44098  10.088  13.856  13.043 -0.1877 -0.1486 -0.3974
27838W        W44099   7.808   1.602   2.416 -0.2605 -0.0839  0.0046
27839W        W44100   2.264  12.369   0.503  0.2414 -0.1455 -0.2173
27840W        W44101  15.977   7.476   3.563 -0.0141 -0.0449 -0.1891
27841W        W44102  17.622   3.602   1.170  0.3039  0.1946  0.0452
27842W        W44103  17.214   9.830   1.830 -0.1051  0.3362  0.4517
27843W        W44104   0.627   6.958   2.563 -0.1490  0.3650 -0.2947
27844W        W44105   3.338  11.902   1.853 -0.2041  0.1239  0.0009
27845W        W44106  16.612  14.207   4.046 -0.0939 -0.2563  0.0597
27846W        W44107   8.748   4.526  12.144  0.1936 -0.4963 -0.1170
27847W        W44108  17.720  17.133   2.398 -0.0135  0.1395  0.0500
27848W        W44109   0.171  15.127  14.451  0.0219 -0.3614 -0.0567
27849W        W44110  15.740  12.844  13.449  0.3308  0.2455 -0.0452
27850W        W44111   2.210   1.092   4.408 -0.1688 -0.0285 -0.2423
27851W        W44112   3.347  12.671   1.147 -0.0037 -0.1560  0.0277
27852W        W44113   0.653   0.002   2.544  0.2781  0.2341 -0.0592
27853W        W44114   6.029  15.766  11.909 -0.3142 -0.0865 -0.0166
27854W        W44115  16.724  14.018  10.927 -0.2142  0.0875  0.1271
27855W        W44116   4.066  19.201   2.934 -0.1349 -0.3206 -0.2728
27856W        W44117  15.714  18.268   0.809  0.0187 -0.3454 -0.1940
27857W        W44118   4.122  18.185   4.909 -0.2143 -0.3116  0.1575
27858W        W44119   6.243   4.921  12.217 -0.0355  0.1794 -0.0674
27859W        W44120   2.213   9.539   3.963 -0.1620 -0.0924  0.1262
27860W        W44121  13.888  13.066  11.472  0.0126  0.0368  0.1819
27861W        W44122  16.149   0.218   4.227 -0.2951  0.0058  0.0947
27862W        W44123   0.155  12.047   0.137 -0.2496 -0.1253  0.0523
27863W        W44124   6.286  17.180  11.126 -0.3142  0.0237 -0.1477
27864W        W44125  15.711   7.568   5.514 -0.3550 -0.4032  0.2232
27865W        W44126   5.146   2.105   3.719 -0.0101  0.0801  0.5035
27866W        W44127   7.182  18.664  14.671  0.0308 -0.0684 -0.2079
27867W        W44128   4.589  14.583   4.618  0.2117 -0.0761  0.0290
27868W        W44129   8.758   5.750   9.852  0.2580  0.0600  0.1270
27869W        W44130  18.876   9.074   0.283 -0.2464 -0.1243 -0.0082
27870W        W44131  10.764   4.792  10.867 -0.2830  0.4229 -0.1334
27871W        W44132   5.500   5.665  11.127 -0.1267 -0.1575  0.3538
27872W        W44133   5.201  13.986  14.407  0.1158  0.0702  0.0571
27873W        W44134  11.719  15.101  10.413 -0.0757 -0.4155  0.3540
27874W        W44135  10.119  13.744  10.360 -0.0047  0.3194 -0.1188
27875W        W44136  18.055  14.205  13.972  0.2321  0.0585 -0.1405
27876W        W44137   9.816  12.859  10.935 -0.1619 -0.0123 -0.2066
27877W        W44138   7.980  13.303   3.378  0.0049  0.2879  0.2045
27878W        W44139  19.255   6.945   4.192  0.0401 -0.1671 -0.0251
27879W        W44140  14.974  15.241   0.803  0.0027 -0.1920  0.0385
27880W        W44141   6.291  15.976   2.214  0.3582 -0.0453  0.0443
27881W        W44142  15.258  14.512   3.495 -0.2923 -0.1792 -0.0739
27882W        W44143   0.432   4.433   3.539 -0.0065  0.4770  0.0705
27883W        W44144   7.674   2.145  11.539 -0.2535 -0.2065  0.0823
27884W        W44145  15.189  17.344  11.508  0.0656 -0.2432 -0.1614
27885W        W44146  11.741  15.358   0.877  0.1178 -0.1320 -0.1080
27886W        W44147   1.267  17.303  11.132 -0.0560  0.0893 -0.0467
27887W        W44148  17.933   5.207   4.808  0.2525  0.2560 -0.3052
27888W        W44149  17.304  13.052  13.759 -0.1486 -0.1427 -0.0197
27889W        W44150  13.476   8.362   0.026 -0.0669  0.1177 -0.0353
27890W        W44151   0.021  15.003   2.333 -0.0430  0.0131 -0.1841
27891W        W44152  12.025   9.836   4.136 -0.0487  0.4478 -0.1488
27892W        W44153  10.520   2.038  14.486 -0.3643  0.5440 -0.2738
27893W        W44154   3.944  13.977   9.341  0.0073  0.2883 -0.0692
27894W        W44155  11.476  12.974  12.571 -0.1011  0.2728  0.0434
27895W        W44156   4.681   8.578   0.451  0.1345  0.1148  0.2972
27896W        W44157   7.981  11.815   2.837 -0.0681 -0.1734  0.4676
27897W        W44158   9.898  13.003   4.382  0.1499 -0.5632 -0.3622
27898W        W44159  18.853   9.769   4.201  0.1662  0.2948  0.0998
27899W        W44160   3.521   1.422  13.595 -0.2489  0.0963  0.1701
27900W        W44161  10.632   1.112   0.325 -0.1604  0.2363 -0.0096
27901W        W44162   2.142   2.666   0.714  0.3911  0.0042 -0.1323
27902W        W44163   1.034   5.683   0.673 -0.0751  0.0428  0.0996
27903W        W44164  18.256  18.666  12.671  0.1834  0.3498 -0.2220
27904W        W44165  15.635   1.957   5.651  0.0863 -0.2082 -0.2313
27905W        W44166  14.785   7.510  11.275 -0.3281 -0.1361  0.2272
27906W        W44167   3.957  14.844   1.059  0.3907  0.1178  0.1804
27907W        W44168  16.339   4.875  11.265  0.1753  0.1156  0.0146
27908W        W44169  17.691   8.775  11.090 -0.0629 -0.0160  0.1634
27909W        W44170   6.896   0.062   1.255 -0.2952 -0.2142 -0.3996
27910W        W44171   6.574  19.292  14.526 -0.2770 -0.2206 -0.2763
27911W        W44172   4.224  18.527  12.930 -0.1741  0.0234  0.0966
27912W        W44173  18.343  10.358  14.004 -0.0259  0.2099 -0.0668
27913W        W44174   5.863  12.216  13.536  0.1068 -0.0688  0.1857
27914W        W44175  13.751  12.740  13.160  0.2943 -0.0096 -0.0691
27915W        W44176  13.646   3.979  13.267  0.2811 -0.1438 -0.0720
27916W        W44177  12.538  14.063  14.722 -0.0282  0.0567  0.1589
27917W        W44178   6.291  12.119   1.670  0.1413  0.4274  0.1952
27918W        W44179  17.139  16.712  13.508  0.0309  0.1292 -0.2042
27919W        W44180   2.124  18.906  13.638  0.3347 -0.1950 -0.1125
27920W        W44181   8.971   9.958  10.518 -0.4490  0.2094 -0.0840
27921W        W44182   6.032  11.849  13.880  0.0442  0.0770 -0.4637
27922W        W44183  19.420   6.232   2.505  0.0281  0.0256 -0.3298
27923W        W44184  12.891   7.220  11.849  0.1271 -0.1500  0.0233
27924W        W44185  14.985  18.161  10.709 -0.2268  0.0872 -0.0929
27925W        W44186   4.094   3.324   3.878  0.2342 -0.4436  0.1316
27926W        W44187  10.501  11.708   9.004  0.2059 -0.0698  0.1520
27927W        W44188   0.198   7.078   2.929  0.3926  0.2318 -0.2070
27928W        W44189  13.706  14.393   4.589 -0.1274  0.3414  0.0907
27929W        W44190  14.699  14.274  11.838 -0.2589  0.1515  0.0558
27930W        W44191  18.259   7.185   5.297 -0.0764 -0.0829 -0.1568
27931W        W44192  13.166   2.963  11.047  0.0341 -0.0824  0.0008
27932W        W44193  11.727  10.180   1.826 -0.1759 -0.3462  0.1244
27933W        W44194  18.498   3.135  10.742 -0.2688 -0.2435  0.2301
27934W        W44195  17.969   4.136   0.838  0.2045 -0.1451  0.1023
27935W        W44196   0.768  13.464   2.473 -0.2094  0.1107  0.1563
27936W        W44197   2.870  16.985  14.499  0.0194  0.0005 -0.4341
27937W        W44198   6.355   1.223   2.523  0.1399  0.0872 -0.0951
27938W        W44199  19.315   9.781   3.723 -0.1190  0.1720  0.1390
27939W        W44200   6.342  16.638   1.967  0.0254 -0.2247  0.0797
27940W        W44201  16.541   5.162  13.729  0.0290 -0.1476  0.0352
27941W        W44202   7.689   3.032  11.133 -0.1710  0.0430  0.1770
27942W        W44203  10.748   5.283   3.827  0.0314 -0.1099  0.2599
27943W        W44204   5.760   6.454   2.355  0.0234 -0.1886 -0.1204
27944W        W44205  10.393  11.348  13.210 -0.0942 -0.4386  0.0580
27945W        W44206  14.459   5.705   4.079  0.0893  0.0676  0.4467
27946W        W44207  12.071  11.969  10.837 -0.4274  0.0127  0.0565
27947W        W44208  14.117  15.426   4.062 -0.0383 -0.3990 -0.0165
27948W        W44209   0.580  11.149  11.333 -0.0385 -0.0407  0.1222
27949W        W44210  18.240   0.107   1.175  0.2645  0.0903  0.0145
27950W        W44211  10.030   6.832  11.141 -0.0439 -0.0083  0.1198
27951W        W44212  15.531   2.351   1.061 -0.0352 -0.0899 -0.3649
27952W        W44213  15.995   0.828  12.725 -0.1893 -0.4194  0.1697
27953W        W44214   9.825  10.229   0.628 -0.2478 -0.0470 -0.2360
27954W        W44215   4.501  14.512   2.241  0.0999  0.0452  0.0394
27955W        W44216  11.867   6.162   0.005 -0.3907 -0.3839  0.2691
27956W        W44217   6.047   8.241   3.652 -0.1986 -0.0368 -0.0275
27957W        W44218  10.274   5.878  11.529 -0.0148  0.0431 -0.5157
27958W        W44219   7.601  18.354  12.587  0.0863 -0.3554  0.0696
27959W        W44220   6.432  16.520   4.567 -0.3972 -0.1543  0.0184
27960W        W44221   2.839   3.248   1.148  0.1804  0.4848 -0.0027
27961W        W44222  14.644  18.318  13.079 -0.3193  0.1079  0.3808
27962W        W44223   9.835   0.103  11.641  0.1448 -0.1237 -0.0430
27963W        W44224   0.177  13.664  12.827  0.0415 -0.0327 -0.0418
27964W        W44225   7.017  15.454   3.986  0.0756 -0.0310 -0.0529
27965W        W44226  18.415   7.666   2.207  0.1013  0.2085  0.2918
27966W        W44227   9.897   8.533   4.406 -0.0302  0.2751  0.1852
27967W        W44228   7.826  14.245   3.880  0.1489 -0.0713 -0.1528
27968W        W44229   9.198   3.346   2.456  0.1110 -0.1925 -0.0443
27969W        W44230   7.157  18.392   0.913  0.1994  0.0660  0.0657
27970W        W44231   3.659  16.959   3.742  0.2482  0.0925 -0.0488
27971W        W44232  17.645   6.987   2.359  0.0003 -0.1820 -0.0004
27972W        W44233  16.434   6.860   5.321  0.2281 -0.1898  0.1177
27973W        W44234  10.785  15.917  11.835 -0.1429 -0.2292  0.1833
27974W        W44235   8.316  13.819  13.250 -0.1230  0.0405  0.3212
27975W        W44236  14.970  15.229   3.423  0.0155  0.0263 -0.0215
27976W        W44237   1.244   2.801  12.573 -0.1147  0.2144 -0.1465
27977W        W44238   2.899   3.834  14.423  0.1129  0.0405  0.0269
27978W        W44239  19.435  17.293   2.284  0.1075  0.2477  0.2661
27979W        W44240  12.478   2.402   1.919  0.3087 -0.1160  0.2873
27980W        W44241  10.351   4.065   3.184  0.1613 -0.1265 -0.1908
27981W        W44242  10.617  14.833  13.755 -0.1630  0.1674 -0.1080
27982W        W44243   8.189  16.146   2.448  0.1190  0.0235  0.0334
27983W        W44244  12.634   0.490   9.672 -0.1915 -0.0261 -0.2461
27984W        W44245  10.732  18.316   0.087 -0.1900 -0.1667  0.1160
27985W        W44246  14.171   5.314   1.717  0.1239  0.1041  0.3130
27986W        W44247  19.407  15.486   2.332  0.0714 -0.0113  0.0203
27987W        W44248  12.640   6.434   3.817 -0.1174  0.0084 -0.2888
27988W        W44249  19.323  14.409  12.694  0.1917 -0.4853 -0.1914
27989W        W44250   0.826   9.174  10.920  0.4300 -0.0004  0.0171
27990W        W44251   2.311   6.295   0.656 -0.3722 -0.1362  0.0535
27991W        W44252   1.268   1.651   2.530  0.1316 -0.2305 -0.3057
27992W        W44253   0.392  11.143   3.806 -0.3184  0.0958 -0.1610
27993W        W44254   6.157  15.664   1.181 -0.0407  0.1438  0.0568
27994W        W44255   5.098   5.391   3.100  0.0640  0.2783 -0.0114
27995W        W44256  11.347   4.778   4.323  0.5336  0.3819  0.3902
27996W        W44257   6.787  18.656   2.079 -0.2265 -0.0749  0.2205
27997W        W44258   6.895  10.589   1.267  0.3065 -0.4377 -0.4181
27998W        W44259   5.295  15.497   4.637 -0.1474 -0.1490  0.1828
27999W        W44260  11.466   3.963  11.632  0.0161  0.3560 -0.1598
28000W        W44261   6.317  15.693   5.972 -0.1664  0.2352  0.1044
28001W        W44262  16.930  17.796  13.697  0.0624  0.3667  0.2664
28002W        W44263   4.136  18.906   0.430  0.1185 -0.1189 -0.1588
28003W        W44264  17.750  18.047   4.177 -0.0475 -0.1801 -0.0681
28004W        W44265  17.950   2.872   0.116  0.4428  0.0386  0.0783
28005W        W44266  14.094  14.601   2.848  0.3371  0.0936  0.1720
28006W        W44267   0.788   6.640   2.247  0.2004  0.3310 -0.1239
28007W        W44268   7.914   6.033  14.793  0.1345 -0.0918 -0.1332
28008W        W44269  17.262   5.185  12.183  0.2198  0.0525 -0.0249
28009W        W44270   2.551   9.678   4.382 -0.4187 -0.0820 -0.0007
28010W        W44271   3.865  19.028   3.652  0.1708  0.1012  0.1084
28011W        W44272   1.701  17.571   3.000  0.2065  0.1099 -0.0759
28012W        W44273   0.294   9.549   2.881 -0.4303  0.2670  0.0801
28013W        W44274   2.184  11.710   3.850  0.2748 -0.1769 -0.1827
28014W        W44275   2.450   4.303   2.925 -0.2979 -0.0505 -0.1343
28015W        W44276  13.241  14.344   0.536 -0.3636  0.4062  0.0924
28016W        W44277   3.100  13.690  10.732 -0.2623  0.0600  0.0483
28017W        W44278   5.129  15.016   2.207  0.1895 -0.0322 -0.0299
28018W        W44279  13.083  17.828  13.651  0.1866 -0.3560  0.0880
28019W        W44280  11.391  11.991   3.496 -0.1280  0.0267 -0.2382
28020W        W44281   0.973   8.844   2.567 -0.1352 -0.2228 -0.1471
28021W        W44282   4.621  14.581   0.206  0.0812 -0.1754 -0.2474
28022W        W44283  12.550   3.351  13.547  0.0972  0.0121  0.0746
28023W        W44284   1.488   5.722   0.402  0.1522 -0.2200  0.0075
28024W        W44285   6.632   6.009   4.198 -0.4112 -0.3140 -0.2266
28025W        W44286  13.884   6.710  12.964 -0.1925 -0.1937  0.3317
28026W        W44287   7.404   9.540  13.539 -0.1636 -0.2003  0.0721
28027W        W44288  16.767  15.241  11.330 -0.0824 -0.4312  0.0879
28028W        W44289   9.726   8.349   0.259 -0.0492  0.0776  0.2701
28029W        W44290  16.466   3.790  13.215  0.1739 -0.0872  0.0491
28030W        W44291   8.934   2.538   1.453  0.2799  0.0916  0.2444
28031W        W44292  13.347   6.830   3.181  0.1489  0.0352 -0.2815
28032W        W44293  11.212   2.982  13.530  0.0030 -0.3559 -0.2191
28033W        W44294   4.558   5.705  14.653 -0.0009 -0.5491  0.1729
28034W        W44295   8.147  14.991  14.177  0.0889 -0.2203  0.1924
28035W        W44296   2.180  10.475  11.654 -0.0640 -0.0784 -0.2371
28036W        W44297  18.887   2.173   2.555  0.0712  0.1071  0.0219
28037W        W44298  14.502   7.023   2.398 -0.0624  0.1821 -0.1160
28038W        W44299   1.897   7.678   0.454 -0.1527  0.4310 -0.0608
28039W        W44300  10.913  11.520  10.780  0.4500  0.0479 -0.1534
28040W        W44301  10.559  17.660  13.142 -0.0447 -0.2590  0.0841
28041W        W44302   1.124  18.451   2.603  0.3445  0.0043 -0.1419
28042W        W44303  16.117  19.109   4.275  0.1353  0.2128  0.0679
28043W        W44304   8.102  13.715   9.688  0.0329  0.0088 -0.1281
28044W        W44305  14.528   9.222   1.004 -0.0378  0.1087  0.4600
28045W        W44306  15.563   8.650   0.528 -0.2439 -0.0203 -0.0173
28046W        W44307   2.841   2.177  13.946 -0.0539  0.2858 -0.0112
28047W        W44308  15.390  11.774   2.604 -0.0144 -0.1425 -0.0851
28048W        W44309   3.531  16.182   4.843 -0.2947 -0.1782 -0.0379
28049W        W44310  12.615   5.244  11.488 -0.2583  0.2476  0.0343
28050W        W44311  15.937   1.292  14.600 -0.1269  0.3312  0.1297
28051W        W44312   9.931  10.494  10.674 -0.5578 -0.0433  0.1231
28052W        W44313  15.323   5.661  12.669 -0.2995  0.0932  0.1204
28053W        W44314   5.642  11.632  12.632 -0.1095  0.2815  0.2811
28054W        W44315   1.377  18.302   4.100  0.2165  0.0557  0.0204
28055W        W44316  14.308  17.628  14.835  0.2538 -0.2468  0.2090
28056W        W44317   1.165   8.170  13.355 -0.1294 -0.0793 -0.1837
28057W        W44318   0.402   4.975   0.273 -0.1641 -0.0657  0.0286
28058W        W44319   1.862   5.394   0.843  0.0111  0.1831  0.1166
28059W        W44320   2.049  17.867  14.658 -0.0986  0.0649 -0.0111
28060W        W44321  15.893  11.179  11.805  0.0765  0.2554  0.1712
28061W        W44322   4.838  10.426   1.606 -0.0374 -0.4058 -0.0798
28062W        W44323  17.380  10.429  11.807  0.0923 -0.2561  0.0028
28063W        W44324   5.385   3.687  13.817  0.0224 -0.0282 -0.2742
28064W        W44325  14.980   3.598   0.162 -0.1499 -0.4413  0.2329
28065W        W44326   9.745   0.700  12.419 -0.1259 -0.0449 -0.0874
28066W        W44327   4.188  17.808   4.072  0.0889  0.1281 -0.2178
28067W        W44328  14.666   8.307  12.385  0.0075  0.0019  0.1739
28068W        W44329  18.110   6.852  11.146 -0.2598 -0.0698 -0.2834
28069W        W44330   6.631   6.305  10.990 -0.0614 -0.0118 -0.0566
28070W        W44331  18.086   3.869   4.238 -0.2213 -0.1812  0.3001
28071W        W44332   8.822   8.442  11.631 -0.0421 -0.1942 -0.1182
28072W        W44333   7.552  10.474  11.389  0.1735  0.0210  0.3412
28073W        W44334   5.837   9.619  14.505  0.0617  0.0025 -0.2869
28074W        W44335   9.569   1.727  11.023 -0.3024 -0.2966  0.1303
28075W        W44336   2.582  10.206   2.233 -0.1776 -0.1753 -0.1097
28076W        W44337  13.076   7.415   1.266 -0.5312  0.1069  0.0847
28077W        W44338   6.439  16.769   3.622  0.3826  0.1444 -0.2646
28078W        W44339  18.725  15.322   4.540 -0.1535  0.0448 -0.1603
28079W        W44340   9.092  13.366  13.520 -0.0348  0.1856 -0.2382
28080W        W44341  19.450   6.457  13.981 -0.2186 -0.1151 -0.3776
28081W        W44342   9.153  18.319   2.486 -0.2909 -0.3514 -0.1684
28082W        W44343  11.452   3.159  10.888  0.0105 -0.3216  0.1251
28083W        W44344  13.211  10.608  10.966  0.3258  0.2432  0.1113
28084W        W44345   7.608   4.565   1.726  0.2414 -0.0400  0.0836
28085W        W44346   4.548  10.485  12.920  0.0632  0.2411 -0.0689
28086W        W44347   5.087  12.413  11.653  0.0255  0.4497 -0.1592
28087W        W44348  18.466  16.270   0.301  0.0018  0.4914  0.1037
28088W        W44349  17.136   3.760  11.069  0.0729 -0.1518 -0.2587
28089W        W44350   2.881   3.805   0.098 -0.0255 -0.3096  0.2160
28090W        W44351   9.888  13.094  13.346 -0.0590 -0.1027  0.4556
28091W        W44352  17.347   1.128   1.846 -0.0419 -0.0970  0.1057
28092W        W44353  16.032   3.405  12.836 -0.1690  0.0342 -0.0969
28093W        W44354   0.200   3.954  12.406 -0.2284 -0.1647  0.3325
28094W        W44355   7.868   9.649   1.016  0.0705  0.1587  0.2016
28095W        W44356  10.153   6.693   4.271 -0.0935  0.3392  0.0505
28096W        W44357   0.575   7.243  11.064 -0.1840 -0.0187  0.2161
28097W        W44358  16.235   5.394   0.618  0.0913 -0.2709  0.2206
28098W        W44359   3.748   4.476   4.438 -0.4381 -0.2503 -0.1481
28099W        W44360   8.242  19.300  14.054  0.2921  0.1100 -0.1028
28100W        W44361   9.086   8.347   0.553  0.4674  0.1458 -0.3092
28101W        W44362   3.554   5.369   1.319  0.0255  0.2611 -0.1334
28102W        W44363   6.158  15.287   4.112  0.0763 -0.1197 -0.2588
28103W        W44364   9.167   9.685  12.388  0.1891 -0.0780 -0.0115
28104W        W44365   6.908   8.029  13.250 -0.1846  0.0056  0.0977
28105W        W44366   7.345  14.284   2.691 -0.1239  0.0761  0.1895
28106W        W44367  17.020   8.735  12.071  0.2722 -0.3203 -0.1090
28107W        W44368  11.265   4.214   2.434  0.0248  0.1973  0.0902
28108W        W44369   0.143   3.696   2.304 -0.1030  0.2842  0.1052
28109W        W44370  18.906   3.014   1.892 -0.0166 -0.0303  0.8128
28110W        W44371  18.018  14.248   0.071  0.2136 -0.1149  0.1400
28111W        W44372  14.438  15.048  11.074 -0.0951  0.1919  0.1756
28112W        W44373   4.072  17.973   1.807 -0.0662 -0.1967 -0.0377
28113W        W44374   4.239   5.146   1.223  0.0331  0.1990  0.0647
28114W        W44375   4.385  14.225  14.315  0.1346  0.1425  0.0791
28115W        W44376  17.414  18.976  11.609 -0.1270  0.2098  0.0666
28116W        W44377  11.567  10.698   5.026 -0.2386 -0.0631  0.1577
28117W        W44378  18.634   2.761   2.739  0.5236 -0.3107 -0.3059
28118W        W44379   5.176  10.330  11.377  0.1781  0.2127  0.1488
28119W        W44380  11.174   8.902  13.614 -0.1973 -0.0202  0.0906
28120W        W44381  12.050  15.334   4.350 -0.0278  0.1253 -0.2832
28121W        W44382  18.568   2.274   0.926  0.0821  0.2558 -0.4556
28122W        W44383   8.841   8.336   2.226 -0.0969 -0.1238  0.2101
28123W        W44384   8.604  17.166  11.246 -0.2165  0.3654  0.2857
28124W        W44385  15.469  18.712   3.449 -0.1346 -0.1627  0.0147
28125W        W44386  13.889  12.710   2.014  0.0921 -0.0340 -0.1335
28126W        W44387  12.000  15.325   2.085  0.4162 -0.1250  0.2130
28127W        W44388  14.915  16.937   2.647  0.0724 -0.2521  0.3465
28128W        W44389  15.342  11.995  12.935 -0.2511 -0.1537  0.0920
28129W        W44390  16.995   8.686   3.662 -0.1477 -0.1974 -0.4337
28130W        W44391  18.482   3.332  11.725 -0.1548 -0.2072 -0.1337
28131W        W44392   3.884  16.716   4.076 -0.1961 -0.0772  0.2424
28132W        W44393  12.757   1.272   1.803 -0.0798 -0.0736 -0.2079
28133W        W44394  11.852   2.168  11.760 -0.0482  0.2362  0.1770
28134W        W44395   8.240  13.240   0.968  0.1984  0.2199 -0.2939
28135W        W44396  11.616  11.061  13.839 -0.0207 -0.1861 -0.4884
28136W        W44397   9.796   9.983   2.723 -0.3293  0.0270 -0.3844
28137W        W44398  18.488  13.184   1.798  0.2249  0.3607  0.0849
28138W        W44399   3.089   4.843   4.715 -0.0723 -0.0285 -0.0983
28139W        W44400  13.120   6.380  12.832  0.1576 -0.3002  0.1459
28140W        W44401  18.470  13.382  11.578 -0.0798 -0.3334 -0.2401
28141W        W44402  19.342   9.422  10.817  0.0317 -0.2788  0.0113
28142W        W44403  17.271  15.276   3.528 -0.2083 -0.0972 -0.0174
28143W        W44404  12.137   9.452  12.366 -0.1157 -0.0563 -0.3456
28144W        W44405   9.202  13.273  12.844  0.0665  0.2080 -0.1656
28145W        W44406  18.084   5.882   3.069 -0.0602  0.1624  0.2824
28146W        W44407  11.522   8.734   1.423  0.0872  0.3786 -0.3369
28147W        W44408  16.584  13.630  11.357  0.3383 -0.1340  0.0718
28148W        W44409   8.708   1.325  12.984 -0.2063 -0.0322  0.0513
28149W        W44410   7.930  17.901  14.790 -0.1414 -0.1669  0.0329
28150W        W44411   2.241   5.837   3.190  0.2185  0.0459 -0.1182
28151W        W44412   0.720  13.468   1.926 -0.1489 -0.2312  0.1316
28152W        W44413   0.633  17.345   2.667  0.0182  0.2047 -0.1650
28153W        W44414  17.532   5.934   3.605 -0.0923 -0.1397  0.0795
28154W        W44415  10.178   6.742  14.853 -0.0979 -0.0899  0.0789
28155W        W44416  15.098  11.736  10.216  0.0350  0.0655 -0.5459
28156W        W44417  18.889   5.195  14.217  0.0624 -0.1149  0.2444
28157W        W44418  17.577   3.514  13.172  0.0912 -0.1760  0.0085
28158W        W44419   6.816  16.665  12.325  0.3874 -0.0007  0.0500
28159W        W44420   6.388   1.317  11.668  0.0823  0.3359  0.0708
28160W        W44421   7.971  17.602  10.546  0.0728  0.0076  0.2279
28161W        W44422   5.126   3.596  12.936 -0.0053  0.1075  0.2310
28162W        W44423  16.542  13.864   3.636  0.2217 -0.0760  0.0581
28163W        W44424   1.504  11.337   1.138 -0.2886  0.2048 -0.1830
28164W        W44425   4.524  11.731  12.901  0.0261 -0.3014 -0.3483
28165W        W44426   5.031   6.572   1.864 -0.3030 -0.0335  0.0298
28166W        W44427   6.522  19.246   1.448  0.0542  0.3808 -0.0646
28167W        W44428  19.231   7.320   0.167 -0.4660  0.0306 -0.0765
28168W        W44429   1.389   9.685   2.881 -0.0431 -0.2524 -0.0528
28169W        W44430  17.672   5.538  11.102  0.1842 -0.0997 -0.0930
28170W        W44431   9.659   6.068   3.032  0.1256  0.4430 -0.0313
28171W        W44432   0.241  16.428  10.546 -0.1965  0.0638  0.2128
28172W        W44433  10.936   2.326  10.922 -0.0735  0.0397  0.3103
28173W        W44434   6.527   6.150  13.100 -0.1805  0.0921 -0.0528
28174W        W44435   2.867  18.471   5.753 -0.0772 -0.2213 -0.0272
28175W        W44436   3.624   3.081   0.378 -0.5485 -0.0664  0.0556
28176W        W44437  11.173   0.728   1.912  0.0780 -0.0020 -0.0604
28177W        W44438   4.250   6.952   1.166 -0.1249 -0.3425 -0.0562
28178W        W44439  12.253  19.172   5.090  0.3083 -0.2470 -0.2080
28179W        W44440   8.754   3.498  14.048 -0.0418  0.2050 -0.0378
28180W        W44441   7.029   8.128  12.069  0.1452 -0.1009 -0.4098
28181W        W44442   4.017   7.533   3.370 -0.2257  0.1192  0.1386
28182W        W44443  16.087   5.157  14.548  0.0253 -0.0848  0.0918
28183W        W44444  14.444  14.448   3.352 -0.0609 -0.0639 -0.1992
28184W        W44445  10.395   2.300   4.923  0.3488 -0.1565  0.1059
28185W        W44446  11.790   7.397   5.210  0.1185 -0.0319 -0.0076
28186W        W44447   2.345   3.749   3.715  0.2882  0.5670 -0.1054
28187W        W44448  10.162   7.179  11.441  0.1220  0.0137 -0.2885
28188W        W44449   0.488  13.747  11.668  0.3606 -0.0292  0.1523
28189W        W44450  11.796   8.357   3.388  0.0546  0.3072  0.0023
28190W        W44451  10.595   2.074  10.589  0.1203  0.2621  0.2023
28191W        W44452  17.986  12.161  11.326  0.0724  0.2086  0.2795
28192W        W44453   4.765   5.026  11.799 -0.2279  0.1838  0.2108
28193W        W44454  19.378  13.519  12.248  0.0084  0.2751  0.0558
28194W        W44455  18.114  11.030  13.846 -0.0497 -0.2050 -0.0057
28195W        W44456   3.759   4.686   5.288  0.2483 -0.1123  0.1159
28196W        W44457  16.731  15.062   2.617  0.1126  0.0331  0.0800
28197W        W44458  12.174   4.335   4.376 -0.0970 -0.0540 -0.1204
28198W        W44459   9.062  13.025  14.373 -0.2745  0.0647 -0.0727
28199W        W44460  15.902  17.098  12.222  0.2337 -0.1387  0.1228
28200W        W44461  14.827   4.101   1.454 -0.1608  0.1039  0.1660
28201W        W44462   4.243  12.044   1.853  0.1412 -0.0983  0.0740
28202W        W44463  17.099   0.110   5.022 -0.2590 -0.1202  0.0740
28203W        W44464  18.031   2.648   3.883  0.0394  0.0240  0.0866
28204W        W44465   3.513  15.713  13.802  0.1050  0.1405  0.0679
28205W        W44466  15.062  18.087   4.184 -0.0240  0.0240 -0.0925
28206W        W44467   3.385  13.671  13.076 -0.0633  0.1340 -0.5534
28207W        W44468   1.707   9.362   1.551  0.1542  0.1782 -0.1004
28208W        W44469   5.829   6.516  11.356  0.1097  0.2265 -0.0780
28209W        W44470   2.988  13.884  11.933 -0.1708 -0.0898 -0.2283
28210W        W44471   2.491  16.013  12.289 -0.0204  0.4502  0.2096
28211W        W44472   6.341   0.189  12.473  0.0187  0.1089 -0.3771
28212W        W44473   0.025  19.049   0.910  0.0107  0.2671 -0.0156
28213W        W44474   0.254   2.034   3.337  0.1065  0.1220  0.0749
28214W        W44475   8.892   1.060  12.026 -0.1373 -0.1340  0.3990
28215W        W44476   0.403  18.052   0.828 -0.0425  0.2463 -0.0094
28216W        W44477  19.323   9.161  14.165 -0.2587 -0.0753  0.0425
28217W        W44478  11.070   8.615   1.584 -0.0978 -0.0915  0.1440
28218W        W44479  12.785   1.465   3.861  0.0355 -0.0677  0.1846
28219W        W44480   4.341   3.158   2.951  0.0009 -0.0829 -0.2078
28220W        W44481  16.411   8.044   2.056  0.3334  0.1640  0.0586
28221W        W44482   8.097  12.718  10.420  0.0386  0.0078  0.1777
28222W        W44483  16.098   1.607   3.295  0.3621  0.2112  0.0096
28223W        W44484   5.054  15.336   0.783 -0.4263 -0.2721 -0.4471
28224W        W44485  11.939   9.465   2.953  0.2238 -0.0387  0.1014
28225W        W44486   4.558  19.249  12.296  0.2259 -0.0099  0.2087
28226W        W44487  17.700   9.603  11.654  0.1523 -0.2747 -0.1433
28227W        W44488  17.521  10.458   9.361 -0.2867  0.3622 -0.2803
28228W        W44489   7.999  14.398  13.982  0.1895  0.0037 -0.3010
28229W        W44490  18.008   6.296  11.796 -0.4283 -0.0231  0.0070
28230W        W44491  12.201   1.505   1.234  0.3032 -0.0221  0.1155
28231W        W44492   9.127   2.819   2.657  0.0204  0.1731  0.1930
28232W        W44493   4.837   6.566  14.235 -0.0825 -0.0327  0.1948
28233W        W44494  16.248   3.062   2.467  0.2901 -0.0609  0.1066
28234W        W44495   7.711  15.117  11.221  0.4120 -0.0392 -0.0646
28235W        W44496  12.982   9.093  11.920  0.0346  0.1101 -0.3195
28236W        W44497  13.535  16.188  10.757 -0.0111  0.0942  0.0198
28237W        W44498  17.333   0.938  11.233  0.1453 -0.1708 -0.0780
28238W        W44499   6.813   5.278   2.841 -0.2466 -0.0067 -0.2349
28239W        W44500  12.635  11.689   2.774  0.1211  0.2051  0.5296
28240W        W44501   8.604   1.684  11.037  0.0467 -0.1836 -0.0462
28241W        W44502   9.832  12.501   1.569  0.0637 -0.1277 -0.0757
28242W        W44503  14.831   3.343  11.032 -0.1454  0.1255 -0.4000
28243W        W44504  14.383  14.374  12.998 -0.0880 -0.1554  0.2184
28244W        W44505  12.676  16.110   3.887 -0.0511  0.2100 -0.1134
28245W        W44506   2.973  16.038  13.461 -0.1453 -0.0249 -0.1901
28246W        W44507  16.275  16.430  12.662 -0.1769 -0.1492  0.0630
28247W        W44508   6.375  14.351   0.454  0.5526  0.3649 -0.1474
28248W        W44509   4.428   5.154   5.267  0.0021 -0.1378  0.1901
28249W        W44510  13.754  13.320   4.518  0.0608  0.1265 -0.2713
28250W        W44511  13.825  15.083  14.353 -0.0078 -0.3906 -0.3526
28251W        W44512   1.577   2.190   4.573  0.1860 -0.0774 -0.0755
28252W        W44513  15.565   2.175   3.448  0.0233  0.0926 -0.1526
28253W        W44514  18.878   7.186  12.464  0.1299 -0.0085 -0.0802
28254W        W44515   6.724   7.089  13.184 -0.0349 -0.2150  0.0260
28255W        W44516  16.860  16.941   3.554  0.1872 -0.2979 -0.0028
28256W        W44517   1.339   8.451   2.738  0.3617 -0.2900  0.0486
28257W        W44518   0.303  10.874  10.580  0.1393 -0.4857  0.0001
28258W        W44519  12.211  10.796   5.263 -0.5119  0.2605 -0.1950
28259W        W44520  17.128   8.536  11.615 -0.0014 -0.0109  0.2165
28260W        W44521  16.054   4.891  13.123 -0.1865  0.1815 -0.1735
28261W        W44522  13.830  18.288  10.185  0.0936 -0.1215  0.3040
28262W        W44523   4.770   0.024  13.151 -0.1580  0.1308  0.1655
28263W        W44524  10.425  10.192  10.892  0.1025  0.0532  0.1106
28264W        W44525  13.245   5.973  11.786 -0.2376  0.1748 -0.2251
28265W        W44526   0.206  19.013  13.855  0.0093 -0.1706  0.0306
28266W        W44527  11.859   8.673  10.377  0.1418  0.0201 -0.1496
28267W        W44528   8.201  11.762   3.667 -0.3466  0.1169  0.1912
28268W        W44529   4.334   8.403   0.799 -0.0805 -0.1350  0.0751
28269W        W44530   2.603  10.864   9.655  0.0442 -0.2277 -0.1023
28270W        W44531   9.796  10.178  14.770  0.1592  0.0401 -0.1274
28271W        W44532  10.152  12.092  12.109  0.2635  0.2157  0.1957
28272W        W44533  14.965  12.982  10.892 -0.0830 -0.0470 -0.2893
28273W        W44534  11.012  14.087   0.863  0.1056 -0.2594 -0.4496
28274W        W44535   9.983  18.404   4.724 -0.0587  0.1850 -0.0448
28275W        W44536   3.661   8.470   3.216  0.0376  0.2377  0.1162
28276W        W44537  14.935  19.206  12.669  0.3747  0.1802  0.2150
28277W        W44538  14.123  17.333  11.491  0.1698  0.0317  0.2928
28278W        W44539   2.761   8.601  11.813 -0.0516  0.0338  0.2238
28279W        W44540   9.108  17.015  14.804 -0.3062  0.1525  0.0895
28280W        W44541  13.208   4.384   1.006 -0.3768  0.2249  0.2208
28281W        W44542  11.063   6.383   0.499  0.3391  0.1305  0.0938
28282W        W44543   3.634  15.062   0.463 -0.0721  0.1123  0.2844
28283W        W44544  13.314  14.752  14.423  0.1121  0.3423  0.0769
28284W        W44545  11.522   5.296  12.016  0.1641  0.0458  0.1077
28285W        W44546  18.402   6.400  12.297 -0.0841 -0.1169 -0.0807
28286W        W44547   3.266   5.447  11.407  0.0135  0.0144  0.0007
28287W        W44548  15.174  14.849  11.124 -0.1949  0.2998 -0.1541
28288W        W44549   8.603  11.878  10.905 -0.2292 -0.0010  0.0979
28289W        W44550   3.932  12.692  14.376  0.0145 -0.0774 -0.2114
28290W        W44551   3.049  13.326   1.139  0.2437  0.0717  0.1003
28291W        W44552  18.702   7.865   3.794 -0.1646  0.1708 -0.0066
28292W        W44553  14.815   4.736  12.176 -0.2466 -0.1352 -0.0143
28293W        W44554   3.391   6.680   3.893 -0.0380 -0.1112 -0.1294
28294W        W44555   0.532   0.781  11.595  0.4961 -0.3438 -0.0494
28295W        W44556  16.803  11.074  13.356 -0.0410 -0.0674 -0.0010
28296W        W44557  16.733  16.081  13.698 -0.1059 -0.1159 -0.0818
28297W        W44558  16.745  12.736  10.973 -0.2292  0.4155  0.4731
28298W        W44559   5.282   9.667  13.283 -0.1323  0.0737  0.0692
28299W        W44560   2.118  16.563  11.711  0.0297  0.1191  0.0662
28300W        W44561  12.795  12.770  14.016  0.4542 -0.1336 -0.2101
28301W        W44562  13.605  10.209  13.569 -0.1642  0.0160  0.0489
28302W        W44563   7.564  10.416   3.492  0.1306 -0.1375  0.0853
28303W        W44564   2.272   9.615   2.630 -0.1218 -0.1975  0.3069
28304W        W44565   2.145  18.590  10.836  0.0288 -0.1057 -0.2323
28305W        W44566  14.563   9.164  14.529 -0.0258 -0.0373 -0.2627
28306W        W44567   9.801   4.797   2.798  0.1182 -0.4043  0.0365
28307W        W44568  17.241  19.208   3.873 -0.4873  0.1271 -0.0101
28308W        W44569  11.480   0.865   3.486 -0.2194  0.0930 -0.1034
28309W        W44570  11.727  13.496  12.722  0.0318 -0.0120 -0.0128
28310W        W44571  13.661   1.659   0.528 -0.2331  0.3961 -0.1644
28311W        W44572  13.871  11.103  14.724 -0.0763  0.2711 -0.0823
28312W        W44573   3.186  16.928   5.871 -0.2355 -0.1231  0.2180
28313W        W44574   2.181   0.891  11.975  0.2027 -0.2618  0.1031
28314W        W44575  14.720   2.338   4.193  0.1497 -0.0963 -0.0024
28315W        W44576   7.936  14.893   5.130  0.0573  0.1846 -0.0852
28316W        W44577  12.477   8.803   1.799  0.1331 -0.0644 -0.1019
28317W        W44578   1.474  11.258  12.174  0.3056 -0.3083  0.0467
28318W        W44579  14.444  11.653   1.234 -0.1258  0.0772 -0.0416
28319W        W44580   7.800   8.570   2.378  0.2387  0.1609  0.2485
28320W        W44581  10.205  16.820   3.043 -0.1488  0.5281  0.0432
28321W        W44582  17.607   2.153  12.632  0.1971 -0.3034 -0.1328
28322W        W44583  13.863  17.933   3.437  0.0035 -0.2695  0.0567
28323W        W44584   8.120  16.314  11.052 -0.0650  0.0040  0.6228
28324W        W44585   6.914   8.930   1.571  0.1139  0.1043 -0.0511
28325W        W44586   7.986   2.352  10.574  0.0291  0.3601  0.0557
28326W        W44587   7.511   4.460  13.645 -0.1327  0.0290 -0.0515
28327W        W44588  19.011   0.142  13.373 -0.1979  0.3540 -0.1959
28328W        W44589  10.591   6.966  12.316  0.0305  0.2073  0.1728
28329W        W44590  14.364   6.208   4.209 -0.5418  0.1138  0.1398
28330W        W44591   2.299  14.719   1.006 -0.0373 -0.1530  0.2757
28331W        W44592  10.993   0.019   2.638 -0.2650 -0.0234  0.2064
28332W        W44593   3.405   8.763  11.445  0.0867 -0.3934  0.1002
28333W        W44594   4.702  16.784  14.651 -0.0639  0.1053  0.2185
28334W        W44595   9.037  18.056   0.665 -0.0601  0.2342 -0.0292
28335W        W44596  14.740   1.223   1.419 -0.0300  0.3160 -0.1314
28336W        W44597  19.139   8.136   4.935  0.2414  0.0643 -0.0730
28337W        W44598   4.699  10.497  11.660 -0.3660 -0.3409  0.0214
28338W        W44599   9.341  16.480   4.219 -0.4905  0.1384 -0.0917
28339W        W44600  14.644   7.067   3.815  0.0562 -0.2418  0.0934
28340W        W44601   7.815  12.480  11.748 -0.3394  0.3214  0.0956
28341W        W44602  10.733  16.429   5.152 -0.0345 -0.1799 -0.1345
28342W        W44603  17.009  10.670   3.439  0.1637 -0.0799 -0.1512
28343W        W44604   4.461  17.029   3.060 -0.0272 -0.0048  0.1979
28344W        W44605  10.945  19.196   1.923 -0.1866 -0.2725 -0.3882
28345W        W44606   6.128  17.627  10.933 -0.0144 -0.0718  0.1847
28346W        W44607   2.273   2.070   2.992 -0.0690  0.3679  0.2278
28347W        W44608  17.336  13.117   3.049  0.2391  0.0995  0.1271
28348W        W44609  14.871  18.437   2.760  0.0829 -0.2889  0.1114
28349W        W44610   7.286  13.820   3.360  0.1589  0.2754 -0.1825
28350W        W44611  11.397   2.108   4.152  0.1584 -0.1634  0.0252
28351W        W44612  10.089   1.777  10.780 -0.0462  0.0124 -0.0315
28352W        W44613   9.754  13.305  11.461 -0.1417 -0.1574  0.0246
28353W        W44614   4.360   7.664   4.272  0.4571  0.2202 -0.0992
28354W        W44615   9.678   0.333  11.160  0.0042  0.1636 -0.4653
28355W        W44616  15.866   2.916  12.533  0.3050 -0.1338 -0.1319
28356W        W44617   2.279  11.159   2.536  0.2328  0.1895  0.2083
28357W        W44618   0.938  14.101   2.280  0.2584  0.1883  0.0207
28358W        W44619  15.391   8.334  14.781 -0.0355  0.0283  0.2043
28359W        W44620  18.301   2.219   4.818  0.3128  0.1126 -0.1880
28360W        W44621   0.803   9.198  14.102  0.3018  0.0237 -0.0503
28361W        W44622   1.673   7.109  11.878 -0.3060  0.0913 -0.4749
28362W        W44623   4.542  16.095   1.301  0.0995 -0.2114 -0.2062
28363W        W44624  12.550  15.793  11.179 -0.2495 -0.2434  0.2301
28364W        W44625  13.058   7.399  14.556  0.0680 -0.0135 -0.1332
28365W        W44626  13.503   4.724  14.826 -0.0633 -0.2265 -0.0109
28366W        W44627   5.878   6.720  13.678  0.2774  0.4412  0.1211
28367W        W44628   9.431   4.035  12.954 -0.2384  0.0758  0.3263
28368W        W44629  11.321   7.604   2.414  0.0446  0.3012  0.1440
28369W        W44630  16.678   1.990  10.604  0.0942 -0.4146  0.0265
28370W        W44631   3.128  13.240  11.896 -0.0342 -0.0762  0.1297
28371W        W44632   5.079  15.930   9.347 -0.1611  0.1812  0.1433
28372W        W44633  10.043   4.006  11.271 -0.2246  0.3457 -0.1510
28373W        W44634  18.420   2.153  13.205  0.4614 -0.2429  0.0341
28374W        W44635   9.229   9.354   2.286 -0.0492 -0.0839 -0.2059
28375W        W44636   4.818   5.524  11.712  0.0878 -0.1397  0.0082
28376W        W44637  19.121  16.117   0.957 -0.3038 -0.1057 -0.1761
28377W        W44638  16.051   3.739  11.431  0.0264  0.4614 -0.4079
28378W        W44639  10.099  14.719   1.494  0.0964 -0.3822 -0.1762
28379W        W44640   6.091  14.924  13.202 -0.0146  0.1351 -0.0489
28380W        W44641   6.486   9.183   1.653 -0.0390  0.0607  0.1162
28381W        W44642  13.560   5.745   1.548  0.0860 -0.1055  0.0857
28382W        W44643  18.323   4.311  14.862  0.0212 -0.0246 -0.3618
28383W        W44644  12.597  16.582  11.769 -0.1456  0.0227  0.0488
28384W        W44645  11.800   4.924   2.132  0.3568  0.1810  0.2418
28385W        W44646   6.386  15.030   1.231 -0.1825  0.2151  0.0082
28386W        W44647   1.144   4.882  11.013  0.2361  0.1543 -0.0346
28387W        W44648   0.526   1.740  11.284  0.2007  0.0850  0.2633
28388W        W44649   0.120   8.086   5.661  0.0133  0.0967 -0.1029
28389W        W44650  11.069  11.457   0.839  0.1909 -0.0257  0.3446
28390W        W44651  11.794   2.270   1.242  0.2434  0.1833 -0.0145
28391W        W44652   3.558  15.759   5.983 -0.0228  0.0783 -0.0911
28392W        W44653  12.371  19.335   1.458  0.0270 -0.1979  0.3863
28393W        W44654  19.193  10.940   0.556 -0.2309 -0.1031 -0.2009
28394W        W44655   3.255  13.577  12.242 -0.0257 -0.3931 -0.1072
28395W        W44656  17.621   9.178   1.836 -0.0153 -0.2007 -0.0408
28396W        W44657   9.275   4.441   0.112 -0.0769  0.0787  0.1584
28397W        W44658  11.246  15.776  12.842  0.0226  0.2981  0.3267
28398W        W44659   2.032   3.860  12.937 -0.3373 -0.2014 -0.2852
28399W        W44660   7.973   2.765  10.267  0.2395  0.3353 -0.1400
28400W        W44661  18.974   4.807   1.054 -0.2269  0.1690 -0.1773
28401W        W44662  17.693  16.294  10.837 -0.2300 -0.1468 -0.0379
28402W        W44663   5.674   5.933  14.386  0.1214  0.0424  0.2348
28403W        W44664  14.235   9.514  10.979  0.0404  0.1005 -0.3614
28404W        W44665   4.220  14.062  10.637  0.1587 -0.0293 -0.0676
28405W        W44666   7.536   6.668   2.726 -0.1673 -0.2903  0.1494
28406W        W44667  11.903  14.931   4.023 -0.0734  0.1502  0.0642
28407W        W44668   2.399   5.713   0.305  0.2241  0.1129  0.0437
28408W        W44669   9.538   5.314   3.852 -0.0086  0.0300  0.0985
28409W        W44670  17.777   3.681  10.548  0.0783  0.0307  0.2241
28410W        W44671   5.469   4.677  10.088  0.0470 -0.1459 -0.0303
28411W        W44672   5.604  14.685   4.003 -0.1836  0.1722 -0.1142
28412W        W44673   9.625   3.950  13.875 -0.0628 -0.0168  0.1701
28413W        W44674  18.771   6.117   1.396  0.4125  0.0436 -0.3278
28414W        W44675   4.033  11.420   3.177  0.0556 -0.0877 -0.2162
28415W        W44676  17.953  10.037  14.653  0.1100  0.0275 -0.3127
28416W        W44677  18.350   4.294   5.752  0.3197 -0.2147  0.0099
28417W        W44678   8.598   8.020   3.883  0.1487  0.4402  0.4669
28418W        W44679  17.520   7.379  13.119 -0.3777 -0.1891  0.2605
28419W        W44680  13.006   3.187  11.888  0.1032 -0.0010 -0.0715
28420W        W44681   7.397  15.652   4.762  0.0117  0.1529  0.3196
28421W        W44682  13.841  19.254   5.426 -0.0302 -0.0160 -0.0968
28422W        W44683  18.027  11.256  11.035  0.4913 -0.0382  0.0269
28423W        W44684   4.719   9.124   0.241 -0.2078 -0.1131  0.1464
28424W        W44685  16.886  18.684   3.639  0.0563  0.0167 -0.2938
28425W        W44686   0.702  18.346   4.773  0.4333 -0.2845  0.2137
28426W        W44687  16.001  17.082   2.781  0.1915  0.0580  0.0658
28427W        W44688   8.635   0.851   1.114  0.2252  0.2037 -0.0761
28428W        W44689   8.756   3.477   0.342  0.2864  0.1232 -0.0033
28429W        W44690  12.243   8.655  13.840 -0.0681  0.1700 -0.2923
28430W        W44691   7.041  19.062  10.956 -0.0903 -0.1366  0.0127
28431W        W44692  12.462  12.425   2.610 -0.1007  0.2701 -0.0211
28432W        W44693  15.021  18.144  14.091 -0.2327 -0.2545  0.0493
28433W        W44694  13.262  14.207   2.275  0.1422  0.1290 -0.0319
28434W        W44695   6.280   0.601  10.596 -0.1362 -0.1371  0.2078
28435W        W44696  12.961  17.477   3.330 -0.3435  0.4300  0.1823
28436W        W44697  14.024  12.314  13.150 -0.0517  0.1866 -0.3581
28437W        W44698  17.867  12.808  14.751  0.0572  0.1832 -0.0928
28438W        W44699   3.608  10.146   2.915  0.1235 -0.1192  0.0535
28439W        W44700   1.561   2.350  14.476 -0.3796 -0.1446 -0.1406
28440W        W44701  18.810  11.804   0.418 -0.1235 -0.0044 -0.2482
28441W        W44702   1.058   5.223  11.971  0.1457  0.1729 -0.2175
28442W        W44703  16.348   7.040  10.755  0.2976  0.0279  0.1205
28443W        W44704   4.665  16.757   9.596 -0.2050  0.2356  0.0977
28444W        W44705   8.380  17.107   0.330  0.3567 -0.5606 -0.1281
28445W        W44706  17.157  17.193  13.606 -0.2312 -0.4214 -0.0065
28446W        W44707   4.154  13.679  11.200  0.2312 -0.0850  0.0559
28447W        W44708   4.428  13.813   1.096  0.2662 -0.1651 -0.0775
28448W        W44709   7.900  18.226   4.764  0.1210 -0.1232 -0.1240
28449W        W44710  19.348  13.467  10.538 -0.0833  0.1009 -0.1346
28450W        W44711   5.064   2.952  12.070 -0.0663 -0.0540  0.0687
28451W        W44712   2.643   2.225   1.294 -0.2113 -0.2464  0.2228
28452W        W44713   5.034  14.580   4.416  0.5710  0.0679 -0.0946
28453W        W44714  15.672   4.784  13.649 -0.0305 -0.4816 -0.1670
28454W        W44715   9.754   1.860  14.811  0.1894  0.1240  0.2423
28455W        W44716   3.961  12.748  13.634  0.1503  0.1042  0.1253
28456W        W44717  11.440   7.686   0.303 -0.0749  0.1594  0.2797
28457W        W44718  14.853  15.153   2.420 -0.0549 -0.1635 -0.0096
28458W        W44719   3.682  14.028   2.752  0.1649  0.2487  0.0926
28459W        W44720  11.752   1.226   3.742  0.1038 -0.1745  0.2707
28460W        W44721   8.007  18.468  11.764  0.2340 -0.1461  0.2817
28461W        W44722   5.129   5.572   0.114  0.2733 -0.1501  0.0222
28462W        W44723  10.651   9.379   3.083  0.1464  0.0147 -0.0428
28463W        W44724   3.532   4.448   3.954 -0.1491  0.5169  0.0550
28464W        W44725  11.911  13.659   5.227 -0.0459  0.2861  0.0779
28465W        W44726   7.364   5.533   3.532 -0.3515 -0.0404 -0.3325
28466W        W44727   5.153   2.348  12.019 -0.0748 -0.0290 -0.1226
28467W        W44728   0.675   6.313   4.605  0.1277  0.2252  0.2219
28468W        W44729   7.692   8.235   1.462 -0.0516  0.0837  0.0103
28469W        W44730  17.349  16.349   0.059  0.1527  0.2056 -0.2164
28470W        W44731  11.160  17.954   3.366 -0.4243  0.0743  0.0333
28471W        W44732   9.810  18.478  13.919  0.2671 -0.0798  0.0687
28472W        W44733   3.429  18.974  14.437 -0.1415 -0.0039 -0.1495
28473W        W44734  18.773  17.299  10.541  0.0304  0.0762 -0.1268
28474W        W44735  14.374  13.547  12.184 -0.0821  0.0590  0.0232
28475W        W44736  13.795   1.727  11.615 -0.0887 -0.0514 -0.2751
28476W        W44737   0.338   0.290   4.482 -0.0638  0.1810  0.0463
28477W        W44738  10.587   2.937  12.581 -0.1347  0.0023  0.1468
28478W        W44739  18.588  18.344   4.680  0.2964  0.3154 -0.3069
28479W        W44740  13.844   6.384   4.476 -0.0550 -0.0230 -0.0538
28480W        W44741   5.764  18.011   3.612  0.2212  0.1984 -0.3452
28481W        W44742  14.308  13.583   4.041  0.0995 -0.1850 -0.0158
28482W        W44743  16.572   3.848   1.848 -0.2085 -0.0673 -0.2297
28483W        W44744  12.801  14.180   2.054  0.1199 -0.0135 -0.0340
28484W        W44745  18.356   6.009  11.604  0.2148 -0.1581 -0.3190
28485W        W44746   6.438  11.103   1.389  0.0428 -0.1943  0.0919
28486W        W44747  12.085   8.273   5.297  0.1490  0.0445 -0.0755
28487W        W44748   8.378  18.543   0.394  0.0850  0.0119  0.4138
28488W        W44749  13.271  13.258  11.593  0.1794 -0.2136 -0.0587
28489W        W44750   0.947  12.581  11.509 -0.3665  0.2306 -0.0069
28490W        W44751   0.289   6.697   1.549 -0.1336  0.1325  0.0879
28491W        W44752   0.829   7.541  11.641  0.0910  0.1613  0.1698
28492W        W44753   3.667   5.313  11.030 -0.0700  0.4233 -0.2481
28493W        W44754  18.434   2.451   4.196  0.2402  0.0614  0.2120
28494W        W44755   8.496   5.780   3.667 -0.1334  0.1720 -0.0241
28495W        W44756  13.508   7.480   1.038 -0.0055  0.0066 -0.1849
28496W        W44757  13.434  14.476  12.477  0.0818  0.0302  0.0811
28497W        W44758  12.664   5.662   1.385  0.0012 -0.2199 -0.0876
28498W        W44759  13.456  19.215  11.618 -0.0851  0.3173  0.3385
28499W        W44760  11.118  12.938  14.229 -0.1205 -0.2141 -0.0308
28500W        W44761  15.907  11.865   3.906  0.2576 -0.0601 -0.2559
28501W        W44762   8.233  17.813   0.915  0.2298 -0.1245  0.0725
28502W        W44763  14.975  15.125   1.849 -0.2297 -0.1936  0.1662
28503W        W44764  16.986   2.982  14.616  0.1228 -0.2502 -0.4460
28504W        W44765   4.575   7.548   5.063 -0.1861 -0.1016 -0.0613
28505W        W44766   5.898   8.947  12.509  0.1290 -0.0657 -0.1857
28506W        W44767   3.766   8.454  12.966  0.4386 -0.0436 -0.1666
28507W        W44768  15.766  12.499   1.679  0.3581 -0.1951  0.0479
28508W        W44769   3.489  15.659   2.716 -0.2481 -0.1014 -0.2178
28509W        W44770  10.702   1.228  13.973  0.4152  0.1897 -0.0643
28510W        W44771   0.410  10.797  14.788 -0.2439  0.4963 -0.0788
28511W        W44772   2.020  15.051  11.877 -0.1244  0.0612 -0.0980
28512W        W44773  10.525   5.622   3.563 -0.0395 -0.1760  0.5641
28513W        W44774  11.661   6.057  10.581  0.3111 -0.2506  0.0205
28514W        W44775   1.987  16.788   0.932  0.0209 -0.0080  0.1372
28515W        W44776  12.519  16.218  10.865  0.3585  0.2459 -0.0381
28516W        W44777  16.705  17.782   3.300  0.1075  0.2127 -0.1329
28517W        W44778   8.381   1.126  12.359 -0.3886 -0.1677 -0.0856
28518W        W44779   3.878   9.991  14.279 -0.0916 -0.0574 -0.0633
28519W        W44780   2.728   7.495  11.706  0.0862  0.1497 -0.0524
28520W        W44781   8.165   8.852  12.467 -0.1194  0.0960 -0.0338
28521W        W44782   5.954  16.754  11.880  0.0590  0.0906  0.0383
28522W        W44783   8.033   3.769  13.963 -0.0019 -0.3129 -0.1945
28523W        W44784   4.862  19.122  12.769 -0.2029 -0.1514 -0.1204
28524W        W44785   3.109   9.641   4.085 -0.2084  0.0502  0.0371
28525W        W44786   9.612   3.957  14.394  0.2995 -0.2853 -0.1482
28526W        W44787   4.008  15.824   5.094 -0.1093  0.1744 -0.4081
28527W        W44788  19.282  10.535   2.924 -0.1038 -0.1992  0.1138
28528W        W44789  19.148   5.724  12.373 -0.1590 -0.2292 -0.0318
28529W        W44790  17.921  16.961  13.293 -0.1708 -0.1626 -0.0118
28530W        W44791  12.004  12.590   0.703 -0.1499  0.0656  0.0260
28531W        W44792  15.065  11.880   1.073  0.1861 -0.3146  0.0518
28532W        W44793   0.721  12.319   1.926  0.0902 -0.0112 -0.0359
28533W        W44794  16.487  12.686   1.165  0.1763  0.0498 -0.1388
28534W        W44795   7.052  16.891   1.036 -0.0269 -0.0624  0.1057
28535W        W44796   6.855   1.594   0.242  0.2184 -0.0715  0.2045
28536W        W44797   1.549  14.883   4.735 -0.1364 -0.2349  0.1430
28537W        W44798   9.441  13.430  13.957 -0.0895  0.0574  0.1317
28538W        W44799   0.449   4.112   4.935 -0.0255  0.1009  0.0146
28539W        W44800   9.430   3.292   1.843 -0.1730  0.1171 -0.1038
28540W        W44801  12.290  13.344  10.075  0.2350 -0.0480 -0.0516
28541W        W44802   1.412  16.769   9.781 -0.2941  0.2654 -0.3868
28542W        W44803   2.180  14.580   3.430  0.0526  0.0213 -0.0830
28543W        W44804  17.323   8.872  13.000 -0.0336 -0.0948 -0.2775
28544W        W44805  17.096   6.394   0.936  0.0269 -0.2108  0.3437
28545W        W44806  11.082  18.048   3.981  0.0198 -0.1211 -0.2392
28546W        W44807   4.604   6.009  12.690  0.0451  0.1430 -0.1635
28547W        W44808   9.880  10.218   1.542  0.1563  0.1910  0.2693
28548W        W44809  14.072  16.210  10.868  0.2381  0.0881  0.1283
28549W        W44810  14.742   6.906   9.934 -0.3147  0.2293  0.0934
28550W        W44811   0.718   2.021   4.139 -0.1986  0.3645 -0.0741
28551W        W44812  12.156   9.898  13.827  0.2418 -0.1917 -0.1489
28552W        W44813   8.132   9.369  14.047  0.2208  0.1663 -0.0513
28553W        W44814   7.489  10.623   4.322 -0.1825 -0.2068  0.1587
28554W        W44815   8.453  10.525  14.869  0.5059  0.1613 -0.0794
28555W        W44816   4.036   8.991  11.821 -0.2246  0.0136  0.0941
28556W        W44817  11.086   7.175  12.277 -0.1301  0.1565  0.1241
28557W        W44818   4.615  10.165  13.766  0.1520  0.1862  0.0013
28558W        W44819   1.669   2.621  12.323 -0.1714 -0.0861 -0.2961
28559W        W44820  11.841   9.444   2.057 -0.1393  0.2423 -0.0138
28560W        W44821  15.212  10.365   0.070  0.0084  0.2588 -0.0845
28561W        W44822  10.403  14.744   0.484 -0.1350  0.1583 -0.0436
28562W        W44823  18.817   0.672   1.599 -0.3033  0.2161 -0.2525
28563W        W44824   8.435   5.514   4.605  0.1435  0.1011  0.0579
28564W        W44825  17.553   0.890   4.244  0.0093 -0.3143  0.1344
28565W        W44826   7.801  19.007   4.556 -0.0828 -0.1342  0.1497
28566W        W44827  17.740  10.692   0.930  0.1274 -0.2028 -0.2253
28567W        W44828  13.205   5.118  12.324 -0.2619 -0.5433 -0.2986
28568W        W44829  19.394   9.683   4.553 -0.0475  0.2394 -0.0710
28569W        W44830   9.320   9.956  14.749 -0.4388 -0.0843 -0.2695
28570W        W44831   2.366  16.560   0.681 -0.4616  0.0002 -0.0584
28571W        W44832  16.873   8.551  11.071  0.0080 -0.0575  0.0251
28572W        W44833   9.442  15.855   4.282 -0.2803  0.0229 -0.3962
28573W        W44834  14.092  14.609  11.298 -0.2855 -0.2791 -0.1011
28574W        W44835   6.652  13.142   3.471  0.1876  0.1197  0.0460
28575W        W44836   5.371  11.047  12.743  0.0446 -0.0521 -0.1584
28576W        W44837   3.859  13.020   4.486  0.1462  0.1205  0.0157
28577W        W44838  16.795   0.733   5.509  0.0425  0.0126 -0.0013
28578W        W44839  14.219  18.626  14.808  0.2024  0.0645  0.0259
28579W        W44840  15.466  11.291  11.550 -0.3839  0.0854  0.0808
28580W        W44841   9.013   8.586   1.548  0.0677 -0.0304 -0.3759
28581W        W44842  10.263   7.963  12.959 -0.1490 -0.0736 -0.1096
28582W        W44843  16.731  11.320  13.777  0.0732 -0.0656 -0.1185
28583W        W44844   4.211   7.990   1.368  0.0400  0.2495  0.0193
28584W        W44845   6.385  13.975   3.808 -0.1017  0.0721 -0.3402
28585W        W44846  16.213   6.792  11.596  0.1326 -0.0299 -0.0634
28586W        W44847   6.316  13.724   2.063  0.0564 -0.0613  0.0511
28587W        W44848  11.814   3.581  14.182 -0.2100 -0.0477 -0.2160
28588W        W44849   4.460   3.145   4.244 -0.1681 -0.0825  0.0462
28589W        W44850  12.500  11.730   5.087  0.0400  0.1130  0.0110
28590W        W44851   3.165  13.487  13.941  0.0787 -0.3721  0.1022
28591W        W44852  11.863   8.080  13.647  0.0553  0.0742  0.1317
28592W        W44853  12.743  17.003   2.046  0.1406  0.1179 -0.0048
28593W        W44854  12.853   6.005  14.436  0.0939  0.2479  0.1654
28594W        W44855   0.106   5.275  12.197  0.0177 -0.0330  0.0036
28595W        W44856  19.451   1.757   4.877  0.0129 -0.1752 -0.3767
28596W        W44857  16.944   7.281  13.869 -0.0720  0.1868  0.2839
28597W        W44858   5.466  16.176   3.641  0.0303 -0.3640 -0.1585
28598W        W44859  19.441  18.140   2.448  0.0591  0.0465  0.1102
28599W        W44860   3.198   7.808   1.889 -0.0242 -0.0565 -0.2075
28600W        W44861  12.976  16.347   3.294  0.1951 -0.2302  0.1044
28601W        W44862  13.246   6.930  11.561  0.1688 -0.3783 -0.2549
28602W        W44863  12.232  16.420  10.372 -0.1135 -0.3066  0.3062
28603W        W44864  15.812  13.431  12.010  0.1245 -0.3517  0.0506
28604W        W44865   7.032   2.669   4.294 -0.2696 -0.1187 -0.0461
28605W        W44866  17.472   7.318   2.668 -0.1470  0.1914 -0.2002
28606W        W44867  17.311   5.997  13.687 -0.0060  0.0966 -0.0536
28607W        W44868   7.921  16.501   2.185  0.2423  0.2188 -0.0854
28608W        W44869  12.641  17.500   4.776 -0.1275  0.0442  0.0471
28609W        W44870   5.473   2.697   4.249 -0.0381 -0.2072 -0.1414
28610W        W44871   8.399   5.976  14.576 -0.1225  0.0161  0.1918
28611W        W44872   9.034  17.279   4.400 -0.0642  0.3511 -0.2782
28612W        W44873  14.718  18.056   2.219  0.3424  0.0276 -0.1840
28613W        W44874   7.626   1.671   2.948  0.2792 -0.2407 -0.0180
28614W        W44875   2.997   9.581   1.728 -0.4570 -0.1720  0.1197
28615W        W44876   0.691  18.363  11.592 -0.0541 -0.1071 -0.0806
28616W        W44877  18.558  18.419   3.693 -0.0220  0.2061 -0.2550
28617W        W44878   4.319   9.930   0.487 -0.3814 -0.0806 -0.1322
28618W        W44879  16.222  13.871  14.448  0.2544 -0.3946 -0.3887
28619W        W44880   8.244  12.888  13.116  0.5340 -0.0641 -0.0909
28620W        W44881  13.732   1.678  14.810  0.2738 -0.0042 -0.1995
28621W        W44882   5.316  13.462   3.729 -0.3983 -0.0015 -0.0330
28622W        W44883   0.204   5.865   5.348 -0.2092 -0.1159 -0.0778
28623W        W44884  13.107   0.154  14.223  0.0528  0.2704  0.3377
28624W        W44885  15.428   3.999   0.744  0.0050  0.0025  0.0995
28625W        W44886  16.361  11.355   9.794 -0.0686 -0.0220 -0.0740
28626W        W44887  16.782  10.526   0.888 -0.0297  0.0301  0.1414
28627W        W44888  13.491  13.584   0.028 -0.0316  0.1056  0.0260
28628W        W44889   2.260  15.464   3.763 -0.1359  0.0590 -0.0624
28629W        W44890  13.840  13.298  13.392 -0.1287 -0.0770 -0.0945
28630W        W44891   0.750   6.998  12.858 -0.0358 -0.1209  0.4063
28631W        W44892   3.834   7.558   4.402 -0.2504  0.3132  0.1439
28632W        W44893   7.902   9.122   1.939  0.1812  0.0603 -0.1763
28633W        W44894  14.169  14.297  11.749  0.1535 -0.1999  0.0052
28634W        W44895   0.891   7.183   4.884  0.0354  0.1160  0.1177
28635W        W44896  13.808  13.670  13.774 -0.2687  0.0144 -0.0303
28636W        W44897  19.073  17.421   4.317  0.1884  0.1093  0.0971
28637W        W44898  17.516   9.655  13.737  0.1000  0.0830 -0.1446
28638W        W44899   7.937   7.213  14.185  0.3444  0.1261  0.2386
28639W        W44900  16.731  19.027  11.006 -0.3652  0.2705  0.3596
28640W        W44901  18.324  15.995   3.469  0.1537  0.0731 -0.0481
28641W        W44902   5.821  13.414   3.615  0.2363 -0.0376 -0.2057
28642W        W44903  13.969  17.704   1.337 -0.0166  0.2337 -0.1636
28643W        W44904   4.612  15.901  11.440 -0.2269 -0.1014  0.1042
28644W        W44905  15.875  17.120  14.454  0.1095  0.2302  0.2592
28645W        W44906   9.826  14.971  13.166  0.0306 -0.3479  0.3936
28646W        W44907   7.350   2.566   0.802  0.3395  0.1067  0.0750
28647W        W44908   2.213  12.841  11.777 -0.1707 -0.1523  0.0296
28648W        W44909   3.313  15.865  12.559 -0.0946  0.1715 -0.1618
28649W        W44910   6.456   9.504  11.991  0.2756  0.2931 -0.2535
28650W        W44911   0.066   7.030   5.429 -0.1526  0.1424 -0.0124
28651W        W44912   5.003  16.078  11.128  0.0837  0.0101  0.1608
28652W        W44913   9.926   0.526   5.178 -0.0127 -0.0670 -0.0830
28653W        W44914  15.313   6.406  11.350  0.4037  0.1430 -0.3238
28654W        W44915  12.445  17.180  12.577  0.0906  0.2985 -0.1560
28655W        W44916   6.731   1.848  13.550 -0.1082  0.0078 -0.1857
28656W        W44917  17.676   7.122   3.067 -0.1930 -0.1862 -0.2938
28657W        W44918   3.340   3.392   2.684  0.1466 -0.0024  0.1721
28658W        W44919  14.576   6.989  11.975 -0.0349 -0.1726 -0.1581
28659W        W44920   0.130  17.394   4.092  0.1027 -0.3193  0.0507
28660W        W44921   3.847  13.728  14.746 -0.0988  0.3113  0.1944
28661W        W44922   4.894   3.095  13.278  0.0731 -0.1398  0.0317
28662W        W44923  11.373   5.942  13.804 -0.3901 -0.5852 -0.0267
28663W        W44924   2.059   7.156   2.435 -0.0610  0.0034 -0.0247
28664W        W44925  18.175  16.575  12.605 -0.0493  0.1405  0.0141
28665W        W44926  14.199  14.608   0.658  0.2529 -0.0908  0.1454
28666W        W44927  17.234   4.821   0.900  0.0836 -0.0618 -0.0867
28667W        W44928  18.055   6.850   4.787  0.0290  0.0789 -0.0893
28668W        W44929  11.784  16.832   2.558  0.0598  0.0096  0.0220
28669W        W44930  18.477  16.300  13.067 -0.3135  0.3839  0.2458
28670W        W44931  15.106   1.120   9.909 -0.0305 -0.1436 -0.3070
28671W        W44932   9.593  15.263  11.077  0.1864 -0.0780 -0.1451
28672W        W44933  15.243   0.539   3.828 -0.0249  0.1028 -0.0496
28673W        W44934   5.224  18.237  13.549  0.0522  0.3293 -0.1426
28674W        W44935   9.301  18.755   2.151  0.2466  0.0379 -0.3876
28675W        W44936   1.873   6.699   1.615 -0.1098 -0.2220 -0.1383
28676W        W44937   0.029   1.699  11.606  0.4536 -0.0636 -0.3124
28677W        W44938  14.641   7.955  10.759  0.1142  0.2053  0.1499
28678W        W44939   0.329   5.575   3.921  0.0684 -0.2086  0.0476
28679W        W44940   6.128   9.384   1.358  0.2999 -0.1612  0.0263
28680W        W44941   7.293   6.544  11.319  0.0487  0.0428  0.4041
28681W        W44942  12.218  16.206   2.315 -0.0614 -0.2854  0.2366
28682W        W44943  13.794   2.509   4.830 -0.0044 -0.1360 -0.2911
28683W        W44944   4.204   3.902   4.909 -0.2452  0.0401  0.1180
28684W        W44945  11.022   9.277   0.723  0.1786  0.0302 -0.1203
28685W        W44946   1.614   1.652  11.880  0.0525  0.3690 -0.2773
28686W        W44947  17.537  11.366   1.744  0.1210 -0.1766  0.0569
28687W        W44948   6.711  10.847  10.222  0.0029  0.1719 -0.1191
28688W        W44949  18.410   9.416  10.648  0.0034 -0.0982  0.0640
28689W        W44950  19.356  15.976   4.156 -0.1317  0.1847 -0.2851
28690W        W44951   1.486  17.221   1.866  0.0279 -0.4074 -0.3086
28691W        W44952  15.824   8.416   1.297  0.0272  0.0359  0.1231
28692W        W44953   7.052   9.390  13.174  0.0599  0.0889  0.0961
28693W        W44954   4.032   3.562  11.803  0.4170 -0.0270 -0.0434
28694W        W44955   1.930  13.152  13.123  0.3325  0.2723 -0.0342
28695W        W44956   0.075  14.719  14.869 -0.0342 -0.4403 -0.0508
28696W        W44957   9.172   4.395  14.065 -0.2798  0.0800 -0.1445
28697W        W44958   8.397   2.654  13.533  0.1301  0.0895  0.0566
28698W        W44959  16.745  15.712   3.317  0.0985  0.3430 -0.0715
28699W        W44960  11.848   2.117   3.459  0.1318  0.0259 -0.1417
28700W        W44961   0.461   6.554   0.219 -0.1076 -0.3026 -0.0813
28701W        W44962   9.127   1.742   2.974  0.0769 -0.0413 -0.2888
28702W        W44963  10.836   3.381  12.748  0.0186 -0.2014 -0.1368
28703W        W44964   7.728   7.671   4.894 -0.0354 -0.3176 -0.0181
28704W        W44965   1.833   8.822   3.608 -0.1742 -0.0366 -0.2852
28705W        W44966  18.683  12.994  10.448 -0.1167 -0.2073 -0.1602
28706W        W44967  17.401  17.740  11.479 -0.0578 -0.0072 -0.2156
28707W        W44968   1.501   1.939  14.689  0.1358 -0.2808  0.0224
28708W        W44969  14.512   7.033   4.805 -0.1837  0.1092  0.0337
28709W        W44970  14.337  18.253   4.079  0.0035 -0.0454  0.3825
28710W        W44971   1.624   4.187   0.324  0.3696  0.2404  0.0325
28711W        W44972  17.728  17.990  11.107  0.0813 -0.0328  0.1032
28712W        W44973   4.634   3.086  11.809 -0.0407 -0.3793  0.2454
28713W        W44974   6.437  14.944   4.289 -0.3425 -0.2241 -0.0092
28714W        W44975  15.228   6.073  12.120  0.1576 -0.0365  0.1963
28715W        W44976  10.002   9.170   1.799 -0.1409 -0.1008 -0.0168
28716W        W44977   4.738   1.725   5.490  0.2793 -0.1632  0.0913
28717W        W44978  14.995   9.671   1.317  0.3995  0.1351 -0.6467
28718W        W44979  15.174   0.391   1.928  0.3682  0.0139  0.4155
28719W        W44980  12.546  17.420   2.313 -0.0350 -0.3463  0.2389
28720W        W44981   7.139  18.762   3.102 -0.1141  0.0036  0.0629
28721W        W44982  10.848   2.679   0.271 -0.0085 -0.2085  0.2597
28722W        W44983  17.481   7.573   3.150 -0.0200 -0.2016  0.2821
28723W        W44984   4.534   9.196  12.047 -0.0236 -0.0839  0.1506
28724W        W44985  18.442   2.306   2.720 -0.0750 -0.0082 -0.0845
28725W        W44986  11.360   2.325  14.191  0.1946 -0.1338 -0.0625
28726W        W44987   0.107  10.245  10.772  0.1428 -0.2484  0.2566
28727W        W44988   2.150   9.955  11.801  0.2809  0.0067  0.0745
28728W        W44989   8.818  14.570  13.680  0.4139 -0.2813  0.2697
28729W        W44990  16.991  16.155   3.283 -0.4359 -0.1336 -0.0399
28730W        W44991   5.571   8.247   4.469 -0.0134  0.0079  0.0359
28731W        W44992  15.756   3.815   0.325  0.0719  0.1972 -0.4569
28732W        W44993  14.834   0.104  11.016  0.0850  0.2648  0.0549
28733W        W44994  17.572   6.204  13.319 -0.0485 -0.3996  0.0591
28734W        W44995   5.381  14.150  10.670 -0.3241 -0.1216 -0.1618
28735W        W44996  12.587   2.251   2.890 -0.0614  0.2269  0.1796
28736W        W44997   7.164  10.250  13.036  0.2375  0.1944  0.4166
28737W        W44998  14.078   0.217   1.901 -0.0383  0.3934  0.0632
28738W        W44999   4.981  12.137  13.740  0.0081  0.5092 -0.0552
28739W        W45000  10.731   7.511   4.744  0.1359 -0.1534 -0.1145
28740W        W45001  19.065  11.935  14.399 -0.3054  0.0162 -0.0909
28741W        W45002   9.387  10.951  12.364  0.0220  0.0522  0.2033
28742W        W45003  17.865  13.516   3.155  0.2357 -0.1238  0.0801
28743W        W45004   4.278  18.818  11.100  0.2100  0.0732  0.2892
28744W        W45005   2.984   8.113  10.354  0.1373 -0.2409 -0.0370
28745W        W45006  16.876   9.331   5.127 -0.0491  0.1759 -0.0455
28746W        W45007  12.606  14.477   2.738 -0.0857  0.3369  0.1424
28747W        W45008   2.903   0.619   0.287 -0.0405 -0.0282  0.3215
28748W        W45009  16.260   1.433   2.033 -0.0815  0.1126 -0.0776
28749W        W45010   2.609  17.724  13.021 -0.0448  0.0389 -0.1423
28750W        W45011  15.306   0.845   1.222  0.0284 -0.0937  0.0682
28751W        W45012   0.568  19.107  14.492  0.1899  0.2174  0.0132
28752W        W45013   8.886   3.805   2.321 -0.2404 -0.2582 -0.3508
28753W        W45014   5.985  14.863   2.704 -0.1437  0.1877  0.1160
28754W        W45015  10.943   3.204  10.635  0.1471 -0.0293  0.0363
28755W        W45016   1.213   7.971   3.445 -0.2047  0.0405  0.0682
28756W        W45017   2.987   3.623   4.442  0.0329  0.1301 -0.1227
28757W        W45018  15.638   5.525   3.096  0.0946  0.3914  0.2220
28758W        W45019   2.566  12.478  11.945  0.1272 -0.1174 -0.0601
28759W        W45020   3.288  17.047  11.763  0.0256 -0.1901  0.1146
28760W        W45021  10.829  15.115   0.478 -0.1013 -0.0886 -0.1990
28761W        W45022   6.325  17.544  11.459  0.1963 -0.1294 -0.3083
28762W        W45023   0.555  11.827  11.951 -0.3054  0.1460  0.1483
28763W        W45024  14.991   3.619   1.561 -0.1141  0.1421 -0.2008
28764W        W45025  11.375  10.045   2.844  0.0835 -0.0877  0.4067
28765W        W45026   0.194  16.085  12.906  0.0322 -0.2402  0.1773
28766W        W45027  16.286   4.298   0.770  0.0450  0.2928  0.0129
28767W        W45028   2.469   0.981   3.369  0.3837 -0.1302  0.0984
28768W        W45029  18.112  17.296   2.629 -0.0586 -0.2314 -0.1730
28769W        W45030  17.148   7.501   2.326  0.1881  0.4133 -0.2800
28770W        W45031   5.334   2.118   4.236  0.2009  0.0452 -0.0054
28771W        W45032   4.974  11.271   3.775  0.0757 -0.0139 -0.0897
28772W        W45033   5.624  13.433  14.334 -0.0935 -0.0998 -0.1569
28773W        W45034  15.141  10.362   4.504 -0.0458 -0.0280 -0.0566
28774W        W45035   3.554  10.488  14.575  0.1821 -0.3639  0.1554
28775W        W45036  13.134  12.973   3.889 -0.0078  0.1556  0.0730
28776W        W45037   0.161  16.515   3.531  0.3276  0.0878  0.1227
28777W        W45038  17.324  12.964   1.151  0.0031 -0.4962 -0.2821
28778W        W45039   7.926   5.664  11.940 -0.1935 -0.2525 -0.1723
28779W        W45040  18.156  10.290   0.131  0.1991  0.3120  0.2328
28780W        W45041  12.710  11.928  14.351 -0.3210 -0.0483 -0.1855
28781W        W45042  10.775  18.830   4.694 -0.0257 -0.3836  0.1234
28782W        W45043  11.277  10.657   3.550 -0.1125 -0.0912 -0.0654
28783W        W45044  17.658   7.632  10.101 -0.1932  0.0882 -0.1096
28784W        W45045  13.123  19.025  14.304  0.0953  0.0545 -0.1485
28785W        W45046  13.170   6.037   3.606 -0.1458 -0.3262  0.4407
28786W        W45047  14.470   5.089  14.881  0.4030 -0.2658  0.0120
28787W        W45048  19.020   1.024   2.407  0.1212 -0.4049 -0.3848
28788W        W45049  10.820   9.999   0.757  0.1825  0.0784  0.2614
28789W        W45050   6.292  10.230  12.350 -0.0420 -0.3320  0.1438
28790W        W45051  11.513  15.608  11.424  0.3895 -0.1834  0.2018
28791W        W45052  14.772   2.947  10.661  0.0042  0.3427  0.1477
28792W        W45053   4.874   2.556  12.491  0.1617  0.4414 -0.2362
28793W        W45054   9.911  11.620   2.963  0.0049 -0.1728 -0.0311
28794W        W45055  15.004   7.121   2.116 -0.1968 -0.0106 -0.3523
28795W        W45056  14.963  12.547  13.810  0.0091 -0.0167  0.2167
28796W        W45057   2.830   5.127   1.907 -0.0783  0.0908 -0.4309
28797W        W45058  13.431   1.922   2.912 -0.0144 -0.0271 -0.1529
28798W        W45059   6.166  14.429  14.262 -0.1772 -0.1490 -0.2865
28799W        W45060   7.078   9.256   0.140  0.0799 -0.0402 -0.0249
28800W        W45061  12.116  14.837  12.426  0.0815  0.1099  0.7632
28801W        W45062   5.261   6.753  14.158  0.1820 -0.2693 -0.5410
28802W        W45063  17.232   2.882   5.388  0.2957  0.2188 -0.1556
28803W        W45064   6.655   4.206  10.236 -0.0519 -0.2026 -0.2067
28804W        W45065  13.312   5.896  13.673  0.2005  0.2424  0.2989
28805W        W45066  11.700   4.827   3.945 -0.1445  0.4321  0.1924
28806W        W45067   9.054   1.713   4.780  0.3131 -0.1527 -0.0213
28807W        W45068   9.825   6.637   2.891 -0.1428 -0.0638 -0.0447
28808W        W45069   8.935  14.150  12.762  0.0117  0.3476  0.1518
28809W        W45070   0.154  11.184   2.430  0.1536  0.1685 -0.3323
28810W        W45071  14.416  13.456  10.281  0.1535  0.1568 -0.2619
28811W        W45072  16.770  16.763  14.283  0.0051  0.4150 -0.1899
28812W        W45073   3.949   5.552   1.077  0.5248 -0.0449 -0.1516
28813W        W45074  17.458  19.274   4.740  0.0125  0.0812  0.0448
28814W        W45075  11.087   8.827  11.223  0.0427  0.3386 -0.2251
28815W        W45076   6.917  14.473   4.330  0.1170  0.2163  0.3305
28816W        W45077  17.367  15.581  13.354 -0.0718  0.0733  0.1991
28817W        W45078   5.839  10.314  13.127  0.0908  0.0028 -0.0533
28818W        W45079  12.616  10.029  12.300  0.1119  0.0400 -0.2050
28819W        W45080  16.052   9.370   8.939 -0.0700 -0.2072 -0.0970
28820W        W45081  11.702   9.973   0.767  0.2000  0.3876  0.0818
28821W        W45082  14.529  18.306   0.288  0.5732 -0.0763  0.0460
28822W        W45083   1.173  16.419   3.802  0.5252  0.3988 -0.2340
28823W        W45084  17.444  10.906   2.095 -0.2087 -0.3815  0.2503
28824W        W45085  10.279   6.581   3.063 -0.1469  0.0358  0.4396
28825W        W45086   5.954  10.375  14.039  0.1869 -0.1211  0.2159
28826W        W45087  16.045   8.745   3.190 -0.0542 -0.3987  0.3127
28827W        W45088   8.580  13.091  10.308  0.0157  0.0179  0.1355
28828W        W45089   3.199  17.584   2.241 -0.1144 -0.3208 -0.4602
28829W        W45090   6.637   6.604  13.252  0.0360  0.0917  0.0161
28830W        W45091   8.513   9.687  12.056  0.0551  0.3109 -0.2347
28831W        W45092   7.464  16.223   2.297 -0.1088  0.0003  0.2441
28832W        W45093   4.873  18.464  13.250  0.2222  0.2056  0.3146
28833W        W45094   1.314  16.154   0.909 -0.0232  0.2131 -0.0780
28834W        W45095  11.271  14.481  12.759  0.3593 -0.0938 -0.1877
28835W        W45096   4.894  10.119   0.590  0.1586  0.1662 -0.1204
28836W        W45097  16.667  19.421   3.371  0.0862 -0.0899  0.1870
28837W        W45098   6.784  14.581  11.675  0.2154 -0.0067  0.2559
28838W        W45099   5.043  17.949  11.451  0.2308  0.0582  0.3721
28839W        W45100   6.257   5.420  10.763  0.1988  0.0960 -0.5341
28840W        W45101  17.878   5.263  11.493  0.1889 -0.0205  0.2493
28841W        W45102  11.856  11.554   3.511 -0.1224 -0.0326 -0.1382
28842W        W45103   1.200   7.196   3.448 -0.1930  0.3591  0.1900
28843W        W45104  13.090  17.358  13.873 -0.0165  0.0303 -0.0590
28844W        W45105   3.383  12.551   2.869  0.0064 -0.3157 -0.3703
28845W        W45106  16.173  11.909  12.460  0.0634 -0.1195  0.2066
28846W        W45107  15.323  12.704   2.527  0.1093  0.3209  0.1850
28847W        W45108   4.597  10.001   3.787 -0.0748 -0.1850 -0.0790
28848W        W45109   7.320  18.582   2.258 -0.1112  0.1980  0.1588
28849W        W45110   0.819  16.231   5.200 -0.1133 -0.3988 -0.1480
28850W        W45111  14.829  13.401  11.176  0.1677 -0.0313 -0.1014
28851W        W45112  12.910   8.421   0.680  0.2619 -0.3538  0.1424
28852W        W45113  16.622   4.309   1.619  0.1170 -0.1138  0.0686
28853W        W45114   2.192   2.411   1.497  0.2454  0.0282  0.3008
28854W        W45115  10.860  12.242  14.677  0.2837 -0.0631  0.2490
28855W        W45116   1.670  11.309  14.306  0.1608 -0.0720 -0.0191
28856W        W45117  15.024   4.026   4.693  0.1329  0.0678  0.2500
28857W        W45118  13.121   7.365   1.771 -0.2284  0.1695 -0.2014
28858W        W45119  10.829  19.031  11.724 -0.1247  0.2556 -0.0818
28859W        W45120  19.313   4.849   0.246 -0.2762  0.1347  0.3179
28860W        W45121   7.010  16.093   3.851 -0.1266  0.0703 -0.1291
28861W        W45122   5.219  10.234  13.444 -0.3941  0.3609  0.2231
28862W        W45123  18.794  13.728   1.742 -0.0177 -0.2230 -0.1710
28863W        W45124  12.867   7.309  13.315 -0.0080  0.3253 -0.0001
28864W        W45125  19.045  15.598   3.823 -0.2528 -0.0069 -0.3342
28865W        W45126  14.225   0.924  12.659  0.4178  0.0068  0.1824
28866W        W45127   6.003  12.604   0.790  0.3145  0.2061  0.1668
28867W        W45128   4.165  19.444  13.241  0.3735  0.1300 -0.0391
28868W        W45129   5.357  10.295   4.187  0.0181  0.0121 -0.1313
28869W        W45130  16.981   5.928   0.945  0.1055 -0.0711 -0.1529
28870W        W45131  11.429  13.305   5.095  0.1888 -0.0642 -0.2356
28871W        W45132   5.633   4.654   4.074 -0.0900  0.1688 -0.2467
28872W        W45133   6.498   4.234  11.907  0.0505 -0.1183 -0.0948
28873W        W45134   8.404   6.274  11.347 -0.1066  0.2192  0.1573
28874W        W45135   8.166  17.122   0.787 -0.2162 -0.2988  0.0363
28875W        W45136   1.546   3.691   6.300 -0.0433  0.1634 -0.3379
28876W        W45137   3.864   8.914   4.193 -0.1226  0.2140  0.0320
28877W        W45138  14.931   0.828   1.615 -0.4420 -0.1045  0.0628
28878W        W45139  11.558  16.576   3.398 -0.2266  0.1836 -0.0924
28879W        W45140   3.772   5.896   0.727  0.0186  0.5871  0.1367
28880W        W45141   7.567  16.379   0.711 -0.1109  0.1757  0.1213
28881W        W45142  14.552  12.145   1.111  0.1802  0.3161 -0.0306
28882W        W45143  12.509   3.259  14.636  0.2066  0.2210 -0.4542
28883W        W45144  14.408   7.418  10.092  0.0974  0.4736 -0.0860
28884W        W45145  12.461   5.338   5.112  0.0649 -0.1231  0.0175
28885W        W45146   5.126  16.513   4.729  0.0284 -0.1015 -0.1961
28886W        W45147  14.906   0.374   2.394 -0.0225  0.1081  0.1898
28887W        W45148  17.716  13.940   0.967  0.2505  0.1614  0.0364
28888W        W45149   2.178   8.616   1.157 -0.4046 -0.0936 -0.1890
28889W        W45150  15.653   5.787   2.364  0.1280 -0.1931 -0.1464
28890W        W45151   7.644   1.800  10.307  0.1407  0.0678 -0.2785
28891W        W45152   3.508   6.250   4.965 -0.2811 -0.1182  0.1359
28892W        W45153   4.196   1.429  12.024  0.0565 -0.2159  0.2771
28893W        W45154   2.608  16.164   2.771 -0.3051  0.0539 -0.0334
28894W        W45155  14.600   7.874  14.751 -0.2265 -0.1841 -0.2628
28895W        W45156   4.172   4.398   2.829  0.2744 -0.2124  0.1051
28896W        W45157  18.438   0.172   3.418 -0.2558 -0.3606  0.1656
28897W        W45158  16.318  19.147   3.749  0.0180 -0.0327 -0.0556
28898W        W45159  18.972   4.078   4.673 -0.0996 -0.1010  0.2533
28899W        W45160   8.283   2.731   0.738 -0.0935 -0.0255  0.2343
28900W        W45161  13.030  10.368  13.457  0.2605 -0.1854  0.0260
28901W        W45162   6.152  15.343   3.615  0.0090  0.0366  0.2119
28902W        W45163  13.598  11.844  10.150 -0.1360  0.1553  0.0684
28903W        W45164   2.217   4.983   2.013  0.1559  0.0198  0.3903
28904W        W45165  13.978  10.113  13.940 -0.4218 -0.1009 -0.2019
28905W        W45166  15.906   4.708   2.114  0.1809  0.3686 -0.0471
28906W        W45167   6.996   1.441  14.276 -0.1438 -0.3374  0.1837
28907W        W45168   7.361   8.291  13.208 -0.0130 -0.2623 -0.0174
28908W        W45169  19.239   1.975   3.057 -0.0598 -0.4739 -0.1779
28909W        W45170   2.709   1.230  14.382 -0.4111 -0.4312  0.2269
28910W        W45171  19.236   6.309   0.239 -0.0417 -0.1235 -0.1970
28911W        W45172   5.956   6.800   3.368  0.2089 -0.1226 -0.1070
28912W        W45173   3.564  13.549   3.003  0.0130 -0.0880  0.0004
28913W        W45174  18.125   1.051  14.230 -0.0234  0.3565 -0.0373
28914W        W45175   1.758  13.456   0.999  0.0326 -0.0303 -0.2278
28915W        W45176  14.250  19.286   2.200 -0.2041  0.1466  0.0743
28916W        W45177   7.916  11.892   9.987 -0.1768 -0.0590 -0.2600
28917W        W45178  18.865  10.470   3.201 -0.0275 -0.0320 -0.0224
28918W        W45179   7.668  17.514  13.641  0.1853 -0.0723 -0.0055
28919W        W45180   5.443   4.196  13.607 -0.3953 -0.1912  0.1195
28920W        W45181  14.250   3.030   2.508 -0.0755 -0.1555  0.0929
28921W        W45182  12.674  15.227   3.405  0.1744  0.0380 -0.1280
28922W        W45183  17.305   2.315  13.004 -0.1060  0.1411  0.2618
28923W        W45184  16.275   7.883  12.884  0.2066  0.0068 -0.1161
28924W        W45185   6.972  11.943   4.190  0.2245  0.2604 -0.2244
28925W        W45186   6.875  11.081   4.543 -0.1511  0.1000  0.2535
28926W        W45187  15.463  10.415  11.077  0.1891 -0.0995  0.0196
28927W        W45188  10.926  14.343   4.478  0.0376 -0.3045  0.0547
28928W        W45189  14.350  16.698   3.202 -0.3763  0.1849 -0.2339
28929W        W45190  13.193   9.079   3.655 -0.2093  0.1080 -0.2894
28930W        W45191  18.589   5.684   2.293 -0.0552 -0.2543 -0.5215
28931W        W45192   8.897   6.631  11.808 -0.1334  0.0332 -0.1397
28932W        W45193   8.607   5.149   4.194  0.2283  0.0292 -0.1091
28933W        W45194  13.638   1.277   2.108  0.2883  0.0031 -0.0948
28934W        W45195  13.531  12.576  12.072  0.0235 -0.3064  0.2614
28935W        W45196   3.823  18.632  13.182 -0.2878  0.1542  0.0060
28936W        W45197   1.877   1.111   3.370 -0.2713  0.0386 -0.1556
28937W        W45198  16.477   8.939   0.463  0.1193 -0.1198 -0.1700
28938W        W45199   5.678   1.234   4.607 -0.0965 -0.2307 -0.3304
28939W        W45200   9.275   6.920  11.913  0.0520 -0.0553 -0.0171
28940W        W45201  19.268  18.533  14.279  0.4799  0.0382  0.2803
28941W        W45202  11.791   7.870   4.903  0.0507 -0.2463 -0.1076
28942W        W45203  16.845  11.476   8.965 -0.4399  0.0108 -0.2910
28943W        W45204  13.661   6.572  12.502 -0.3800  0.0244  0.2934
28944W        W45205  10.873  13.537   1.703 -0.0219 -0.1821  0.0807
28945W        W45206  16.106   2.365   4.275  0.0478  0.0975 -0.1245
28946W        W45207  12.407  10.159   4.029  0.3106  0.0618 -0.0260
28947W        W45208   0.819   5.725  13.759 -0.3218  0.0049  0.1683
28948W        W45209   5.130   2.532   2.939  0.0862 -0.0626 -0.0035
28949W        W45210   5.299  18.834   3.365 -0.4139 -0.2650  0.3382
28950W        W45211   7.667   6.363   2.368 -0.1393  0.0418  0.1355
28951W        W45212   3.305  18.103   5.888  0.1775 -0.0337 -0.1922
28952W        W45213  11.407   2.973   4.395 -0.0569 -0.2583 -0.0227
28953W        W45214   5.864  15.668  12.558  0.1782  0.1920  0.1245
28954W        W45215  18.193   0.603  14.411  0.2983  0.1803  0.3404
28955W        W45216  16.712  18.869   9.076 -0.2436  0.0366  0.0703
28956W        W45217   0.657  16.445  10.829  0.0195 -0.2965  0.1073
28957W        W45218   4.582   2.776   2.693 -0.1248 -0.1037 -0.1818
28958W        W45219   1.195  13.502   1.235 -0.2486  0.0696 -0.1268
28959W        W45220  12.312  10.808   2.974  0.3364 -0.0609 -0.3471
28960W        W45221  14.998   6.345   1.219  0.0255 -0.0708  0.2721
28961W        W45222   0.772  14.258   3.122 -0.1300 -0.1415 -0.0688
28962W        W45223   4.967  14.539  10.309 -0.2361  0.0399  0.1644
28963W        W45224   5.755   6.435   1.835  0.1786  0.2276  0.0005
28964W        W45225  14.601   0.505   0.651  0.1071 -0.2000 -0.0006
28965W        W45226   8.051  12.419   0.506  0.0816  0.2480 -0.0019
28966W        W45227   5.384   0.501   2.659 -0.0032 -0.0534  0.1970
28967W        W45228  12.811   9.503  13.331  0.0356  0.0666  0.0989
28968W        W45229   1.849   7.145   1.348 -0.0519 -0.4432 -0.1550
28969W        W45230   0.947   0.252   0.059  0.1922 -0.1218 -0.0516
28970W        W45231  12.709   1.529  10.899  0.2368 -0.4646 -0.0994
28971W        W45232   4.967  11.503  11.427 -0.1348  0.1349 -0.1426
28972W        W45233  11.837   6.707  11.806  0.0594  0.1836 -0.4011
28973W        W45234  12.303  13.119   2.632 -0.0032 -0.3436 -0.0066
28974W        W45235   2.666  11.188  12.782  0.2448  0.4050  0.0374
28975W        W45236   1.780  15.622   3.890  0.1687 -0.1991 -0.1988
28976W        W45237   7.314  13.535   2.317 -0.0709 -0.1794 -0.0489
28977W        W45238  18.486  14.251   0.341  0.0473 -0.0222 -0.0514
28978W        W45239   3.259   9.619   5.240  0.1789 -0.1287  0.1815
28979W        W45240   1.655  12.663   3.469 -0.2490  0.2521  0.1499
28980W        W45241  17.162  18.496  13.364 -0.0581  0.0896 -0.1787
28981W        W45242   4.020  15.001  10.308 -0.0427  0.1590  0.0365
28982W        W45243  14.817   7.969   2.503 -0.2394  0.2389 -0.0949
28983W        W45244   7.487   1.321  13.447  0.0766  0.0775 -0.1902
28984W        W45245   2.125   7.069  14.701  0.3232 -0.1178  0.0096
28985W        W45246  14.575   0.107  13.065 -0.5114 -0.1212  0.0727
28986W        W45247   5.913   1.130  12.434  0.0773 -0.0512 -0.1427
28987W        W45248  10.292  15.673  13.674 -0.0801 -0.0709  0.1548
28988W        W45249  12.746  10.838   0.542 -0.0013 -0.2289  0.2011
28989W        W45250  17.632  13.499   3.628 -0.0863  0.1961 -0.3697
28990W        W45251  11.465   7.484   3.574 -0.0469 -0.0974 -0.3619
28991W        W45252  19.005   2.892   3.877  0.0417  0.0557  0.1019
28992W        W45253   2.554  19.374  11.614  0.1565 -0.0206  0.1014
28993W        W45254  14.735  14.685  11.127 -0.2122  0.1494  0.1905
28994W        W45255   1.752  18.777   0.240  0.0444 -0.2007  0.2049
28995W        W45256   0.805   0.717   1.055 -0.2344 -0.1161 -0.1560
28996W        W45257  11.730  15.583   2.576  0.0186  0.1883  0.4424
28997W        W45258  17.943  10.476   1.567  0.2007  0.1048  0.0175
28998W        W45259   7.694  13.790  12.627 -0.1834 -0.0319 -0.2894
28999W        W45260  11.493   0.972  12.906  0.0568  0.1504 -0.1309
29000W        W45261  16.213  14.613  11.394 -0.1580  0.2892 -0.0148
29001W        W45262   8.053  14.650   3.734 -0.3151 -0.1339 -0.0376
29002W        W45263   9.472  17.738   2.125 -0.2830 -0.0179  0.0529
29003W        W45264   6.408   6.671  10.354 -0.0190 -0.1980  0.2111
29004W        W45265   1.380  15.294  11.821  0.0099 -0.0221 -0.3075
29005W        W45266  17.709  12.715   2.923 -0.2724 -0.3480 -0.3561
29006W        W45267  14.988   7.677  13.071 -0.0713  0.2485 -0.1501
29007W        W45268   2.202   1.038  11.147  0.3285 -0.2321  0.1307
29008W        W45269   7.166   7.774  11.740  0.2182  0.2158  0.2178
29009W        W45270   0.275  12.128   2.366 -0.0742 -0.3673  0.2784
29010W        W45271   8.131   8.979   2.392 -0.0189  0.0616  0.0049
29011W        W45272   7.107   8.170  14.056 -0.1157  0.0894  0.1091
29012W        W45273  16.007   7.177   2.448 -0.2490  0.1721  0.1326
29013W        W45274   2.863  14.308   9.745 -0.1373 -0.3424 -0.1516
29014W        W45275   1.497  11.628  10.406 -0.1413 -0.0890  0.1150
29015W        W45276  10.289  16.885  11.351  0.1447 -0.4407  0.3300
29016W        W45277  18.308   3.396  12.700 -0.3075 -0.3060 -0.0584
29017W        W45278   4.706   0.940   3.910  0.0225 -0.0985  0.1461
29018W        W45279   1.728  10.244  14.080 -0.0995 -0.1197  0.2921
29019W        W45280   5.024   0.770  14.060 -0.4081  0.3609 -0.5406
29020W        W45281  18.742   0.182   2.929 -0.2524  0.0128 -0.3127
29021W        W45282  16.288  16.154   1.867  0.0758  0.1910  0.0483
29022W        W45283   3.346   1.410   5.860  0.3276 -0.2612 -0.0907
29023W        W45284   7.241  14.918   0.152  0.1332 -0.2428  0.2559
29024W        W45285   1.751   7.692   1.796  0.0088  0.2488 -0.2449
29025W        W45286   2.405   9.311  12.336 -0.1318  0.2867 -0.0132
29026W        W45287   8.576   7.062  10.549 -0.1801  0.0390  0.0171
29027W        W45288  12.592  11.236   3.043 -0.2843  0.0078  0.1099
29028W        W45289   2.255   5.185  11.118  0.0644  0.1080 -0.1658
29029W        W45290   7.000  10.134  11.031  0.0081  0.0847 -0.3720
29030W        W45291  10.038   2.983   1.643  0.3360  0.1024 -0.2086
29031W        W45292   1.823  14.427   4.948  0.2173  0.0010  0.0092
29032W        W45293  17.232  12.554  14.353  0.0974 -0.1153  0.2003
29033W        W45294   8.248   2.963  12.771 -0.2800 -0.0804 -0.0398
29034W        W45295  14.221  17.583   2.701 -0.2895  0.0051 -0.1667
29035W        W45296   7.601  15.220   2.908  0.2172 -0.0780 -0.2410
29036W        W45297   7.595  11.992   4.981  0.0010  0.0815 -0.0798
29037W        W45298   0.028  11.382   4.633 -0.1273  0.1538  0.0141
29038W        W45299  12.991  13.195  13.783  0.2756 -0.2041  0.0536
29039W        W45300  12.485  11.454  13.525 -0.1959  0.1898 -0.0289
29040W        W45301   0.695  13.393   0.268  0.0833 -0.3312  0.0233
29041W        W45302   3.478  15.392  12.529  0.1864  0.2136 -0.0741
29042W        W45303   5.669  16.929  12.283  0.1449 -0.2414  0.2198
29043W        W45304  15.689   7.856  13.672 -0.1850 -0.1268  0.0879
29044W        W45305   1.450   5.926  11.894  0.1982  0.2959  0.1667
29045W        W45306  17.589  11.745   2.978 -0.1941  0.0676  0.2959
29046W        W45307   8.642  10.300  10.487  0.0803 -0.1439 -0.1347
29047W        W45308   6.058  12.876  13.975  0.3649  0.3351  0.0241
29048W        W45309  10.248   2.365   3.615 -0.1032  0.1392  0.3089
29049W        W45310   7.506   7.717   4.383 -0.1188  0.1397  0.2473
29050W        W45311  15.780  13.189  10.390  0.2060  0.1670  0.1930
29051W        W45312  12.701   6.881   1.650 -0.0557 -0.2145 -0.2735
29052W        W45313   4.254  11.435   9.526 -0.3436 -0.2227 -0.0926
29053W        W45314  10.841  11.006   1.493 -0.1313  0.0582 -0.1591
29054W        W45315   6.342  14.529  13.145  0.2327 -0.0102  0.0960
29055W        W45316  18.824  11.229  10.618  0.0874  0.1437  0.1502
29056W        W45317  16.322   2.005  12.663 -0.2667 -0.2278 -0.2418
29057W        W45318   5.074  11.764   5.211  0.1177 -0.0704 -0.0956
29058W        W45319  17.085   4.484  13.464  0.1973  0.2489 -0.0125
29059W        W45320   6.947  10.865   1.999 -0.2365 -0.2614  0.1034
29060W        W45321   3.115   3.497   4.009  0.2003  0.1342  0.0156
29061W        W45322  11.099   5.492   0.614 -0.0787 -0.0449 -0.1794
29062W        W45323  10.362   4.267   1.086 -0.0224 -0.2967  0.0687
29063W        W45324  15.326  14.485  10.235  0.0918 -0.0474 -0.1133
29064W        W45325   7.764   2.327   1.677  0.3203 -0.2900 -0.1246
29065W        W45326  18.125   9.299   1.936  0.0206 -0.0857  0.1976
29066W        W45327   5.651   7.279   4.410 -0.2657 -0.1314 -0.1838
29067W        W45328  15.869   1.593  10.388  0.1939 -0.0349 -0.1095
29068W        W45329  12.616  16.119  12.573 -0.1389 -0.0404 -0.2973
29069W        W45330  15.115   0.380   1.331  0.1501 -0.3339  0.1258
29070W        W45331  14.384  18.985   9.803 -0.0234  0.1623  0.3637
29071W        W45332  10.267   7.434   5.029 -0.2544  0.2670 -0.1615
29072W        W45333   3.237   6.495   5.297 -0.2338  0.0616  0.0107
29073W        W45334   9.090  17.853   2.710  0.2825  0.1069 -0.2057
29074W        W45335   1.486  15.600  14.620  0.0217  0.0101 -0.0920
29075W        W45336   5.631   5.856   4.585 -0.0149 -0.5097 -0.0235
29076W        W45337  15.689   1.230   5.575 -0.0153  0.1216  0.1846
29077W        W45338  12.258   3.886   0.808 -0.0171  0.0665 -0.0892
29078W        W45339  15.959   6.354   2.901  0.0484 -0.1315  0.0242
29079W        W45340  11.156  11.073   3.876  0.1338  0.1003 -0.4150
29080W        W45341   2.220   2.650   4.066 -0.0165  0.3297  0.3213
29081W        W45342   8.055   1.878   4.196  0.0338 -0.0649 -0.0563
29082W        W45343   8.196  16.995  12.512 -0.3346 -0.0881  0.1500
29083W        W45344  10.902  13.486   3.426  0.2221 -0.2754  0.0938
29084W        W45345  18.327   4.882   4.882 -0.1184 -0.1249  0.0358
29085W        W45346   0.711   2.605  14.714 -0.2901 -0.0121 -0.2764
29086W        W45347  13.204   5.170  12.913 -0.1199  0.2331 -0.3657
29087W        W45348  16.074  18.242  11.400  0.0444  0.2633  0.2587
29088W        W45349   4.103  10.858  11.667 -0.0708  0.2840 -0.3804
29089W        W45350   9.144   3.530  12.275  0.2103 -0.1407  0.3128
29090W        W45351   5.629   1.286   2.971 -0.1956  0.1066 -0.2005
29091W        W45352  17.924  14.443   1.599  0.2345  0.0772 -0.3142
29092W        W45353  18.443   6.100  13.652  0.1874 -0.0893  0.1448
29093W        W45354   1.978   3.290   1.579  0.0058 -0.0094 -0.1056
29094W        W45355  10.767  11.737   2.664 -0.2655  0.0232  0.0857
29095W        W45356   5.500   7.936   1.460 -0.0561  0.0550 -0.0551
29096W        W45357  12.326   3.128  13.046 -0.1800 -0.0895  0.1355
29097W        W45358  17.798  13.554  11.967  0.1329  0.4758  0.0745
29098W        W45359   0.685   0.956   4.009  0.5472 -0.1265  0.0261
29099W        W45360   0.887   6.502  13.617 -0.0000 -0.1442  0.1360
29100W        W45361   8.521  16.162   0.805  0.1198  0.2568 -0.1301
29101W        W45362  14.398  17.151  11.936 -0.0299  0.0455 -0.3149
29102W        W45363  19.151  11.635   4.175  0.0240 -0.1802 -0.2156
29103W        W45364  17.465   5.436  11.804 -0.0870 -0.0149 -0.0067
29104W        W45365   2.898   6.615   1.408 -0.2916 -0.0216  0.1191
29105W        W45366   1.337  10.503  12.679  0.0448  0.0539 -0.1747
29106W        W45367  14.613  11.423   3.171 -0.1279 -0.0201 -0.1228
29107W        W45368  18.954   1.744   4.873  0.2476  0.1292  0.0094
29108W        W45369  13.624  11.623   4.371  0.2711 -0.2682 -0.0100
29109W        W45370  15.844   8.189   0.778  0.0189  0.1580  0.2455
29110W        W45371   1.666  15.862  14.153 -0.1118  0.2524  0.2111
29111W        W45372  16.251   9.554  14.329 -0.5000  0.0011  0.1498
29112W        W45373   2.015  16.082   2.178 -0.0690  0.1030 -0.3052
29113W        W45374   6.256   2.086  14.274  0.0567 -0.1116  0.4240
29114W        W45375   6.612  11.770  14.544 -0.0559  0.1655  0.1920
29115W        W45376   0.269   7.513  12.528 -0.1193 -0.0200 -0.0827
29116W        W45377  10.587   1.137  13.451  0.0486 -0.3476  0.1547
29117W        W45378  10.683  19.382  12.697  0.4080 -0.0635  0.2583
29118W        W45379  16.997   0.675  13.687 -0.0761  0.1213  0.0659
29119W        W45380   9.387  13.284  12.018  0.0718 -0.1047  0.0412
29120W        W45381   1.672   2.973  14.833  0.0931  0.2640  0.4087
29121W        W45382   4.123   6.955   3.758  0.0922 -0.2556  0.1314
29122W        W45383  11.050  13.962   4.868 -0.0018 -0.1319  0.0088
29123W        W45384  14.340   3.973  14.459  0.3163 -0.1980 -0.3218
29124W        W45385   3.567  18.212   2.906  0.1982  0.2619  0.0994
29125W        W45386   2.709  12.552  10.029 -0.1192 -0.0368  0.1782
29126W        W45387   7.063  14.989  11.988  0.0031  0.3170  0.0931
29127W        W45388  14.498   4.267  14.071 -0.3964 -0.4630  0.0256
29128W        W45389  12.273   7.385  12.070  0.1431 -0.0856  0.2282
29129W        W45390   9.720   2.719  13.620 -0.0284 -0.2762  0.5229
29130W        W45391   2.347  17.678   3.698 -0.2656 -0.2282  0.2563
29131W        W45392   4.729  15.280  10.633  0.0685 -0.0697 -0.2620
29132W        W45393  11.831  19.238  12.084  0.0524 -0.0438  0.2184
29133W        W45394  11.245  11.373  11.704  0.2678  0.0508  0.3481
29134W        W45395  15.605   3.222  12.920  0.1133 -0.2114 -0.0178
29135W        W45396   1.137  13.312   1.662  0.0643  0.5108  0.1635
29136W        W45397  18.390   5.238  12.669  0.1058  0.1776  0.0920
29137W        W45398  15.163   1.049  14.494  0.6040 -0.0740  0.1731
29138W        W45399  10.648  14.753  13.247 -0.2012 -0.1230 -0.1047
29139W        W45400  15.402   7.798   4.727 -0.1873 -0.2380 -0.0575
29140W        W45401  10.897  10.510   0.713 -0.2568  0.1390  0.2700
29141W        W45402   5.064   8.871   0.550 -0.1239 -0.0159 -0.1460
29142W        W45403  16.386  14.956   4.680  0.0332 -0.0300 -0.0915
29143W        W45404  19.247  11.976   9.153 -0.1921  0.2327  0.0189
29144W        W45405   4.881   7.606  13.141  0.0954  0.0438  0.0310
29145W        W45406  18.285  17.111  14.700  0.5355 -0.1106  0.0384
29146W        W45407   2.515   8.270   0.388  0.1180 -0.2837 -0.1911
29147W        W45408   6.440  10.053   0.750  0.1226 -0.2491  0.3781
29148W        W45409  10.630   9.660  10.457 -0.2684  0.2620  0.2128
29149W        W45410   7.475  12.882  12.795  0.0054  0.1474  0.0250
29150W        W45411  16.133   4.434   5.008  0.1967 -0.1831 -0.0150
29151W        W45412  10.590  14.523   3.217  0.3900  0.0263 -0.0134
29152W        W45413  13.713   2.968  12.953 -0.2374  0.0996 -0.0433
29153W        W45414   7.446  13.541  12.948 -0.4341 -0.0009 -0.2883
29154W        W45415  12.457  12.698  10.260  0.1132 -0.1515 -0.4072
29155W        W45416  12.896  10.204  14.399 -0.0894  0.2096 -0.4225
29156W        W45417   7.959   5.470  13.033  0.3129 -0.3312  0.0848
29157W        W45418  15.973   4.995   3.041 -0.2246  0.0762 -0.5310
29158W        W45419  16.471  18.596  12.757 -0.1092  0.1160  0.0699
29159W        W45420   3.415  11.885   3.754 -0.2751 -0.0533 -0.0484
29160W        W45421   3.632   0.555  12.931 -0.1745 -0.0860  0.1841
29161W        W45422   9.359  12.010  13.867 -0.1385  0.0065 -0.1021
29162W        W45423  13.759  18.434   3.581 -0.3391 -0.0824 -0.1535
29163W        W45424   9.525  16.123  10.234 -0.3751  0.3677 -0.1380
29164W        W45425  17.077   7.009   3.068  0.0106 -0.0763  0.3286
29165W        W45426   4.331  16.552   5.993 -0.0692  0.0813  0.2989
29166W        W45427   2.741  12.396   0.710  0.1281 -0.0166  0.3518
29167W        W45428  15.756   8.302  12.771 -0.0990  0.2016  0.1909
29168W        W45429   5.326   4.494   4.425  0.1607  0.1830 -0.2644
29169W        W45430   0.933  18.552  13.438 -0.1353  0.3136  0.0916
29170W        W45431   4.125  17.457   3.003  0.0195 -0.1580  0.1352
29171W        W45432  17.929  17.666   1.796  0.0520  0.0958  0.0678
29172W        W45433  11.671   0.768   0.084  0.2260 -0.1313 -0.0564
29173W        W45434   8.958  17.533  13.181  0.0773  0.1008 -0.1202
29174W        W45435  14.801  13.239  12.107 -0.0624 -0.1160  0.0333
29175W        W45436   2.636  12.602   3.700 -0.1184  0.0299  0.5487
29176W        W45437  11.081  17.682   2.663  0.2849  0.1618  0.3794
29177W        W45438   9.388  10.445  14.620  0.4028  0.1036  0.0697
29178W        W45439  15.561  15.117  12.707  0.4231  0.0577 -0.2937
29179W        W45440   2.393  12.723  14.499  0.0986 -0.1792  0.0048
29180W        W45441   2.914   1.074   0.033 -0.1467  0.0440  0.1953
29181W        W45442  18.101  17.885  10.626 -0.1688  0.0367  0.0567
29182W        W45443  11.174  10.821  12.779  0.2554 -0.3014 -0.1080
29183W        W45444   7.639   8.963  10.732 -0.1044  0.0143  0.2534
29184W        W45445  12.962  12.604   3.620  0.2525 -0.2734  0.1871
29185W        W45446  17.866   5.093   1.912  0.0623 -0.3281 -0.1243
29186W        W45447   5.399   6.215   2.831  0.2964  0.1216  0.1707
29187W        W45448   0.610   9.926   3.811  0.2138  0.1084  0.1880
29188W        W45449  12.004   2.757  11.828  0.3345  0.0227 -0.0902
29189W        W45450   9.452  10.736  13.440 -0.0595  0.1237 -0.1285
29190W        W45451   2.350   1.288   3.873  0.1775 -0.0280  0.1693
29191W        W45452  13.942  18.215  14.114 -0.0163  0.3810 -0.1758
29192W        W45453  10.513   5.350   3.052  0.0879 -0.1718 -0.2515
29193W        W45454  17.280  13.805  12.131 -0.2831 -0.0636 -0.0752
29194W        W45455   9.517   2.197   1.922  0.2486 -0.2044 -0.2129
29195W        W45456   5.394  12.691  12.076  0.2395  0.0542 -0.2002
29196W        W45457  17.428   6.176   1.795 -0.1721  0.1222  0.1845
29197W        W45458  17.801  14.970   1.845 -0.0420 -0.0148  0.0669
29198W        W45459   4.203   7.039  12.935  0.2822 -0.0374 -0.2960
29199W        W45460   2.723  10.463   4.604  0.2469  0.3935  0.0477
29200W        W45461  12.040  11.655   1.932  0.1780 -0.0146  0.4518
29201W        W45462   1.422   9.207   1.050  0.1142 -0.0046  0.1289
29202W        W45463  16.267   0.025  14.369 -0.0009  0.0005 -0.0510
29203W        W45464  14.647   4.146  13.232 -0.2826  0.2132 -0.0924
29204W        W45465  15.470   0.059  11.676  0.1994  0.3532  0.0798
29205W        W45466   1.827   5.133   5.733  0.3838 -0.1276 -0.0673
29206W        W45467   7.631   0.463  10.552 -0.1066  0.0823  0.1881
29207W        W45468   2.133  15.087   2.656 -0.1153  0.0312 -0.0014
29208W        W45469  13.434   7.896   9.976  0.0326  0.2224 -0.0244
29209W        W45470  10.625   2.851   5.426  0.1749 -0.0932  0.4389
29210W        W45471  12.016   3.108   3.829 -0.3310  0.0011  0.1122
29211W        W45472   4.276   3.771   5.766 -0.0300  0.0698  0.0365
29212W        W45473  14.354  15.725   1.699 -0.0045  0.0042 -0.1231
29213W        W45474   0.220  12.609   0.766 -0.0671  0.2248  0.1512
29214W        W45475   6.235   2.931  13.947 -0.0613 -0.0196 -0.0040
29215W        W45476   7.380  18.070   1.282  0.0028  0.0109  0.1243
29216W        W45477  11.015  11.561  12.458  0.0453  0.3569  0.3219
29217W        W45478   0.219  17.698   2.651  0.1172 -0.1588 -0.0465
29218W        W45479  11.020  18.407   3.608 -0.0482 -0.0362 -0.0499
29219W        W45480   7.279  12.875   0.927  0.1222  0.0015 -0.1143
29220W        W45481  16.610   6.143  11.063 -0.1579 -0.0857 -0.1375
29221W        W45482  12.873  12.325  13.419 -0.0516 -0.1096 -0.1621
29222W        W45483  17.585  13.842   9.998 -0.2471  0.2557  0.0679
29223W        W45484  17.530  12.703  12.685  0.0900  0.1529  0.0121
29224W        W45485  13.463   6.550   4.797  0.0763  0.1361  0.1037
29225W        W45486   1.999  10.539  14.404  0.0279 -0.3399  0.0751
29226W        W45487   1.297  12.430  10.807  0.0458  0.1100  0.0189
29227W        W45488   1.511  17.796   3.885 -0.1871  0.2220 -0.1776
29228W        W45489  14.070   8.916   3.656  0.2623  0.1666  0.1824
29229W        W45490   1.330   6.689  14.276 -0.1720 -0.0563  0.0037
29230W        W45491  12.529  14.559  14.785  0.1112  0.0361 -0.0649
29231W        W45492   2.370   7.353  12.512 -0.2397 -0.2132  0.0488
29232W        W45493  14.664  12.939  11.293 -0.1260  0.2487  0.3874
29233W        W45494   7.046   6.190  12.689 -0.0811  0.2365 -0.3162
29234W        W45495  17.475   6.997   1.383 -0.2071 -0.2785  0.0491
29235W        W45496   1.995  15.849  12.108  0.3301  0.0242  0.0341
29236W        W45497  10.432   4.888  11.273 -0.2749 -0.1510 -0.0133
29237W        W45498   2.234  18.153  12.981 -0.0488 -0.0572 -0.0793
29238W        W45499  12.993  13.298   0.193 -0.1298 -0.0095  0.0461
29239W        W45500   7.807   7.149   2.708 -0.2534  0.1155  0.1474
29240W        W45501  18.214  15.451   3.514 -0.3780  0.0812  0.0334
29241W        W45502  13.193   4.267   0.094  0.0418  0.5807  0.0219
29242W        W45503  12.796  19.096  12.826  0.1447  0.3267 -0.0092
29243W        W45504   9.941   1.485   2.448 -0.2660 -0.0494 -0.1266
29244W        W45505  14.926  14.706  13.788  0.2538  0.3174  0.2707
29245W        W45506  18.588   4.024   5.150 -0.2458  0.2558  0.1393
29246W        W45507  13.317   5.727  11.195  0.2143 -0.0208  0.0323
29247W        W45508   9.392   5.161   0.538 -0.2149  0.2031 -0.2128
29248W        W45509   1.275   1.724   0.627 -0.0345  0.4235 -0.1116
29249W        W45510  17.773  11.702   3.840  0.1065 -0.2298 -0.0277
29250W        W45511   4.394   5.686  14.156  0.2327  0.1389 -0.1697
29251W        W45512   4.735   0.900   4.463  0.0015 -0.0177 -0.1982
29252W        W45513  13.591   7.859   0.470  0.2597 -0.0097 -0.1679
29253W        W45514   9.472  16.198  13.731 -0.4478 -0.1169 -0.2058
29254W        W45515   8.512  18.558  12.155  0.2390 -0.1182 -0.2862
29255W        W45516  14.112  17.358   4.188  0.1685  0.2933 -0.1447
29256W        W45517  12.597  15.672  14.429 -0.3068  0.0693 -0.1504
29257W        W45518  15.627  16.239  11.874 -0.1141  0.0996 -0.0850
29258W        W45519   2.612  11.715  11.464  0.1010  0.0175  0.0029
29259W        W45520   4.837  10.463   3.529 -0.0502  0.3035 -0.1302
29260W        W45521  11.479   2.612  13.834 -0.1050  0.3689 -0.0600
29261W        W45522   3.207  12.610  13.220  0.1088 -0.2202 -0.0375
29262W        W45523   6.313  16.019   1.467  0.0917  0.0262 -0.0335
29263W        W45524  18.670  13.368  12.076 -0.3590  0.0701 -0.2641
29264W        W45525  15.514  16.525  13.815 -0.1075  0.0657  0.0338
29265W        W45526  15.366   0.515   3.070 -0.0611 -0.1747 -0.1103
29266W        W45527  11.193  19.097   2.366  0.1757  0.1011  0.1880
29267W        W45528   4.060   0.820   2.575 -0.1709 -0.3030  0.1960
29268W        W45529  16.180  11.071   3.199 -0.2280 -0.0612 -0.0494
29269W        W45530  15.457  17.848   1.068  0.2706 -0.1440 -0.1584
29270W        W45531  16.046   9.651  12.313  0.1980  0.0724  0.4351
29271W        W45532   9.830   9.701  14.525  0.1611  0.0531 -0.0604
29272W        W45533  11.649   4.714  13.527 -0.3865 -0.3249  0.5242
29273W        W45534  19.048   3.337   3.571  0.0831  0.2986  0.2624
29274W        W45535   6.556   1.320   3.456  0.2924  0.3104 -0.1019
29275W        W45536   4.499  19.336   3.360 -0.1263 -0.1203 -0.3138
29276W        W45537  11.744   2.981   0.618  0.6162 -0.3076 -0.4451
29277W        W45538   9.162   1.752  10.252 -0.1001 -0.0981 -0.0405
29278W        W45539   4.174  12.612  10.954  0.2211 -0.0436  0.1027
29279W        W45540   6.503   8.002   0.384 -0.1117  0.2568  0.0791
29280W        W45541  10.122   5.354   4.360 -0.1312  0.0473  0.0668
29281W        W45542   5.837  13.136   5.105  0.0510  0.1887  0.1597
29282W        W45543   0.251   9.354  12.567 -0.1002  0.5097 -0.1698
29283W        W45544   4.724   7.968   0.463 -0.0093 -0.0093  0.1398
29284W        W45545  18.679  15.097  10.852 -0.0076 -0.0122 -0.0074
29285W        W45546  14.105  10.277  13.458 -0.2369 -0.2585 -0.0281
29286W        W45547   3.636   0.812   0.681 -0.0331 -0.1904  0.2555
29287W        W45548   9.921   7.703  13.238 -0.0709  0.3275 -0.1124
29288W        W45549  18.381  18.924   4.909 -0.2020 -0.3389 -0.0219
29289W        W45550  10.122  18.144  10.367 -0.0851  0.0194  0.0831
29290W        W45551  13.484   3.364  10.572  0.0278 -0.3600 -0.2258
29291W        W45552   7.083  14.927  10.309  0.2867  0.1737 -0.1870
29292W        W45553  18.643   4.935   0.590  0.3263  0.0380  0.0562
29293W        W45554  17.925  17.426  13.811 -0.2918  0.1104 -0.0701
29294W        W45555   1.587   6.387  12.156  0.0502 -0.1344  0.2860
29295W        W45556   3.875  19.304   2.110  0.1470  0.1095  0.1569
29296W        W45557  19.027   2.248  13.269 -0.0974  0.1029  0.0116
29297W        W45558   5.626  15.596   2.233 -0.2164  0.1599 -0.0015
29298W        W45559   8.816   3.801  14.611  0.0919 -0.2239  0.1440
29299W        W45560  11.391   1.526   4.134  0.0848  0.4185  0.0604
29300W        W45561   6.888  19.111  13.042  0.2000 -0.0850  0.1485
29301W        W45562   1.000   3.983  12.190  0.2617  0.1258  0.1735
29302W        W45563   8.120  13.781   2.335  0.0515 -0.0764  0.1683
29303W        W45564   7.606  12.474  10.167 -0.1643 -0.2752 -0.0272
29304W        W45565  17.431  18.474  10.971 -0.3021  0.1400  0.3650
29305W        W45566  16.339   4.595  11.891  0.1035 -0.2431 -0.0078
29306W        W45567  11.054   8.749  12.680 -0.0628 -0.0757  0.4336
29307W        W45568  13.898   5.420   4.148 -0.0322  0.0918 -0.3347
29308W        W45569  10.670  12.661   0.073  0.1444  0.1874 -0.0462
29309W        W45570  16.581   3.646   0.942 -0.0160  0.1931 -0.1151
29310W        W45571  10.375   6.154  13.280  0.0648 -0.3310 -0.0908
29311W        W45572  16.554   6.296   2.399  0.1172  0.1855 -0.1776
29312W        W45573  17.644   0.309  13.137  0.0113 -0.2361 -0.2120
29313W        W45574  10.535  19.401   1.802  0.1263 -0.2888 -0.2028
29314W        W45575  11.571  13.850  10.406  0.3932 -0.0376 -0.1030
29315W        W45576  18.616  10.656   1.451  0.0215 -0.0826  0.1077
29316W        W45577   8.781  16.573   3.853 -0.0306  0.0550  0.0574
29317W        W45578   9.203   9.198  12.477  0.1076 -0.2184  0.0287
29318W        W45579   7.978   7.721   4.064 -0.2576  0.3586  0.3306
29319W        W45580  13.407  16.252  12.020 -0.1748 -0.1279  0.2685
29320W        W45581  15.533   4.954   4.351 -0.1335 -0.1942 -0.2609
29321W        W45582  13.862  17.941   2.904  0.3177 -0.0144 -0.2761
29322W        W45583  11.272  15.364   1.152  0.0720  0.1337 -0.4036
29323W        W45584  11.930   5.419  14.269 -0.1823 -0.3422  0.0901
29324W        W45585   8.858  10.084  12.347 -0.0910  0.1373 -0.0754
29325W        W45586  19.291   1.830  14.036  0.3232  0.0114  0.0106
29326W        W45587  18.703  14.063   4.448 -0.1031 -0.1707  0.3426
29327W        W45588  16.221  15.895  14.788 -0.3854 -0.5945 -0.1763
29328W        W45589   3.402   6.878  14.157 -0.1755 -0.2153 -0.1155
29329W        W45590  15.372   6.439   4.743 -0.3269  0.1388 -0.3164
29330W        W45591  14.273  18.726   3.650 -0.0934 -0.2056 -0.0194
29331W        W45592   7.052  17.789  13.723 -0.3097 -0.0310  0.2114
29332W        W45593   1.762   3.297   2.730  0.1307  0.1662 -0.0669
29333W        W45594   3.940  10.474   4.931  0.3293 -0.1189  0.2128
29334W        W45595   5.940  14.288   3.957 -0.2456  0.0126  0.0470
29335W        W45596   9.674  15.208  14.002 -0.0499  0.1403  0.0563
29336W        W45597   0.612  12.955   0.556  0.0146 -0.2043 -0.1423
29337W        W45598  17.721   1.343  14.029  0.1845 -0.1826  0.2110
29338W        W45599   6.032   4.660   0.794  0.0906 -0.0869  0.1666
29339W        W45600   3.555  10.871  11.742 -0.0707 -0.0570 -0.0238
29340W        W45601   6.049  10.408   4.752  0.0496 -0.0927  0.3360
29341W        W45602  13.470  16.387   2.110 -0.0474 -0.0548 -0.0624
29342W        W45603   1.498  15.559   2.861 -0.1594 -0.2141  0.2020
29343W        W45604   6.595  12.787  13.800 -0.1824  0.2074 -0.0225
29344W        W45605  17.865   3.710   1.883 -0.1716  0.1027  0.1974
29345W        W45606  10.248   8.707   1.060 -0.3726  0.3665  0.1837
29346W        W45607   3.005   7.691   3.474 -0.2292 -0.1772 -0.1177
29347W        W45608  10.705  15.262   2.127  0.2042 -0.0081  0.1069
29348W        W45609   6.162  11.163  12.503  0.1207  0.1387  0.2654
29349W        W45610  10.780   1.202  11.181 -0.0175  0.2974 -0.0400
29350W        W45611  18.776   1.608   5.283 -0.1225 -0.3112  0.0237
29351W        W45612   9.071  17.143  11.084 -0.0748  0.0917 -0.3438
29352W        W45613  15.703   8.082  14.378  0.3193  0.1634 -0.0614
29353W        W45614   6.010  15.106   4.586 -0.0456  0.1334  0.2801
29354W        W45615   8.275  15.834   0.236 -0.2480 -0.3349  0.1877
29355W        W45616   2.896   2.341   2.206 -0.0477 -0.2513  0.0023
29356W        W45617   2.432   5.013  12.119  0.1117 -0.0990 -0.3894
29357W        W45618   0.299  13.518   2.171  0.1410 -0.2656  0.0184
29358W        W45619  15.545   2.086   0.644 -0.2037 -0.0361  0.1190
29359W        W45620   5.374   6.175   3.950 -0.0656 -0.2381  0.0317
29360W        W45621   8.419   6.016   4.592  0.0831  0.0950  0.0441
29361W        W45622  18.985  19.227   1.475  0.0105  0.2141 -0.1166
29362W        W45623  16.705  12.283  11.177  0.2567  0.1978  0.1806
29363W        W45624  12.846   5.026   4.309  0.0293 -0.1792 -0.4969
29364W        W45625  15.115  14.618   1.633 -0.1499  0.1505  0.1537
29365W        W45626   1.241   3.615   4.755  0.0468  0.1333 -0.1095
29366W        W45627  10.439   8.827  12.786 -0.3232 -0.1065 -0.0575
29367W        W45628   6.078  10.937  13.331  0.2606 -0.5020  0.0536
29368W        W45629  10.386   8.447  11.855 -0.3506 -0.2235 -0.1334
29369W        W45630  13.163  18.861   0.428  0.2451  0.1678 -0.4190
29370W        W45631   0.626  15.352  12.697 -0.4227 -0.1522  0.2851
29371W        W45632   2.336  11.551   1.016  0.1713 -0.1272  0.2012
29372W        W45633  14.753  13.620  14.459  0.0713 -0.0201 -0.1973
29373W        W45634  13.078  11.401   2.800  0.4752  0.0219  0.0161
29374W        W45635  14.325  17.664  11.837  0.0181  0.0968 -0.0436
29375W        W45636   8.532   8.845  11.821  0.1145  0.0175 -0.2648
29376W        W45637  15.577   7.082   4.826 -0.0325  0.0073 -0.1144
29377W        W45638  17.445  16.903   3.355 -0.0804 -0.1964  0.3687
29378W        W45639  10.222  16.897   0.990  0.0308  0.2581 -0.1891
29379W        W45640   0.325  18.560  10.606  0.1364 -0.2615  0.2341
29380W        W45641   7.566   8.681  13.445  0.0057 -0.3812  0.0124
29381W        W45642   0.946  15.706  13.879 -0.0226  0.0231  0.1204
29382W        W45643  12.272   4.240   2.670 -0.0423 -0.0566  0.2586
29383W        W45644   6.456   1.477  10.762 -0.2084 -0.0569  0.0392
29384W        W45645   0.189  14.076   2.625 -0.1156 -0.0050  0.0711
29385W        W45646   0.369  12.106   0.608 -0.0146 -0.1076 -0.0904
29386W        W45647   0.280   9.761  10.752  0.0828 -0.0863 -0.0548
29387W        W45648  16.617   1.721   0.089 -0.2593 -0.0983  0.2274
29388W        W45649  11.030  11.921   0.666  0.0336  0.0285  0.0139
29389W        W45650   4.906   7.331   1.129 -0.1945  0.2366 -0.0243
29390W        W45651  17.895   3.668   4.969 -0.0115 -0.2170 -0.1063
29391W        W45652  18.686   5.317   1.958 -0.0158 -0.0910 -0.1644
29392W        W45653  14.768   6.632  13.780 -0.2229 -0.2904 -0.1759
29393W        W45654  18.719  16.342   1.341 -0.1153  0.0808  0.3165
29394W        W45655  11.259   6.333  11.546  0.1490 -0.3039 -0.2783
29395W        W45656   9.947  10.067  13.817  0.3325 -0.0951 -0.1258
29396W        W45657  14.094  11.903   4.294  0.1432  0.2274  0.1032
29397W        W45658   1.920  16.946   2.488 -0.2924 -0.2189  0.1161
29398W        W45659   7.351   1.294  12.072 -0.1158 -0.3332 -0.1704
29399W        W45660  19.313  13.620   4.877 -0.0862  0.2761 -0.0412
29400W        W45661  10.826   0.306   4.980  0.1225 -0.1867  0.0153
29401W        W45662  17.693  16.614  12.835 -0.0629  0.1808 -0.0981
29402W        W45663  16.408   1.304   2.480  0.1680 -0.1122  0.2584
29403W        W45664   5.004   9.982  14.220  0.2595  0.0600 -0.1128
29404W        W45665  14.413  12.775   4.412 -0.2242  0.1661  0.1900
29405W        W45666   3.509   8.143   4.620  0.3218  0.3922  0.6533
29406W        W45667   6.285   6.396   1.891  0.0885  0.2131 -0.0572
29407W        W45668  14.316   3.406   2.867  0.4834 -0.4075 -0.2415
29408W        W45669  15.570  17.131  10.052 -0.0555 -0.0219 -0.1067
29409W        W45670   3.419   2.187   0.693  0.0148  0.1114 -0.1110
29410W        W45671   2.661   0.577   3.011 -0.2580  0.1380 -0.1927
29411W        W45672   2.660  11.665   1.862  0.0893 -0.0066 -0.0651
29412W        W45673  10.931  10.773  12.316 -0.3166  0.2291 -0.0132
29413W        W45674   8.869  18.852  10.327 -0.3104  0.0928 -0.2107
29414W        W45675  17.416   5.392   4.231  0.1631 -0.2009  0.1671
29415W        W45676  15.820  16.554   4.065  0.1592  0.1609 -0.0105
29416W        W45677  11.252  11.651  14.184  0.1325  0.3244 -0.0712
29417W        W45678   6.867   2.648  13.665  0.0907 -0.0681 -0.0060
29418W        W45679  14.491   5.079  12.547  0.1937  0.0877 -0.1522
29419W        W45680   4.316   7.039   5.408  0.1095 -0.0633 -0.0356
29420W        W45681   3.660   1.163   4.489  0.0346 -0.2923 -0.0879
29421W        W45682   0.435   0.018   4.049 -0.0866 -0.4593  0.1743
29422W        W45683  17.235  11.553  10.999  0.2079  0.0583 -0.1830
29423W        W45684  13.245   3.895  11.522 -0.2039  0.1501  0.2191
29424W        W45685   4.343  15.167  13.814  0.2532 -0.2933 -0.0894
29425W        W45686   7.622  13.191   1.671  0.1590  0.0109 -0.0205
29426W        W45687  12.750  13.702  12.753  0.2011 -0.2185 -0.2132
29427W        W45688  10.661   8.566  11.044  0.0285 -0.2139  0.1975
29428W        W45689   3.927  10.155   2.438  0.1089 -0.1061  0.1683
29429W        W45690  12.675  16.795  13.400  0.2417 -0.0344 -0.1174
29430W        W45691  11.546   7.504  14.652  0.1716 -0.1030 -0.2525
29431W        W45692   8.336  14.730   0.350 -0.1194 -0.0699 -0.5280
29432W        W45693   6.919  15.560   0.748  0.0886  0.3330 -0.0165
29433W        W45694   0.210   1.614   2.069  0.0967 -0.1592  0.1978
29434W        W45695  17.029  11.359   5.560 -0.0502  0.0301  0.0114
29435W        W45696   2.077  19.109  12.063 -0.2528 -0.0957 -0.1389
29436W        W45697  18.040  10.250   0.960  0.0434  0.0937 -0.0685
29437W        W45698  17.688   5.634   5.713 -0.3271  0.0101  0.1634
29438W        W45699  13.411  12.602  10.607  0.4213 -0.1657 -0.0757
29439W        W45700   8.854  18.134  13.877  0.1462 -0.2204 -0.2387
29440W        W45701   4.348  10.883  13.493 -0.1991 -0.0241 -0.0966
29441W        W45702  12.587   3.155   0.663  0.0151  0.2169  0.3831
29442W        W45703  12.209   5.181  12.914 -0.0385 -0.0214 -0.2848
29443W        W45704  13.398   5.898  10.745  0.2725  0.2474 -0.2806
29444W        W45705   4.976   1.189  11.347 -0.2563  0.1288  0.3897
29445W        W45706   4.179   1.282   4.802  0.2628  0.0361 -0.2280
29446W        W45707   5.466  14.180   0.543  0.0306  0.0336  0.1165
29447W        W45708   2.076   8.985  10.874  0.0698  0.2768  0.0815
29448W        W45709   8.541   4.530   4.663  0.2375  0.1642 -0.2329
29449W        W45710   5.478  15.291   0.078 -0.1480 -0.1082  0.3489
29450W        W45711   8.626   9.702   3.518 -0.0146  0.1039 -0.1438
29451W        W45712   5.463  16.971   3.545  0.1245 -0.2542 -0.0837
29452W        W45713  11.652  17.729   1.150 -0.0912  0.0353 -0.2232
29453W        W45714  18.882   5.655   1.552  0.1196 -0.3188  0.0121
29454W        W45715   7.535  11.857   2.532 -0.2853  0.0602 -0.5257
29455W        W45716   5.928   5.052  13.979 -0.3255  0.0367  0.1363
29456W        W45717   5.409   1.871  12.147 -0.0801  0.1290 -0.0623
29457W        W45718   8.132  13.159   2.432 -0.0047 -0.0086 -0.1170
29458W        W45719  12.721  11.221  10.614  0.2110 -0.2151  0.3293
29459W        W45720   7.657   3.978   5.537  0.3633 -0.1654  0.0916
29460W        W45721  11.530   0.929   4.123  0.4132  0.0385 -0.1021
29461W        W45722   8.672   2.410   3.577 -0.0046  0.1731  0.0987
29462W        W45723  18.249  19.379  12.262 -0.2682  0.2182  0.1932
29463W        W45724  19.263  18.153   4.326 -0.4260  0.2011  0.1770
29464W        W45725   2.459   4.142   1.992 -0.1726 -0.1429  0.2871
29465W        W45726  14.835  11.233  13.467 -0.1862  0.0726 -0.4364
29466W        W45727  10.898  12.084  12.144 -0.0467 -0.4311 -0.0508
29467W        W45728   9.012   4.626   0.823 -0.1514 -0.0077  0.2281
29468W        W45729  17.613   4.199  12.942  0.1715 -0.4868  0.3501
29469W        W45730   7.608  11.427   0.583 -0.0410  0.0463 -0.1683
29470W        W45731   0.682   2.078  11.585 -0.0729 -0.0352 -0.4222
29471W        W45732  10.140   0.617  12.847  0.1135 -0.1725  0.1207
29472W        W45733   6.649   3.826   5.391 -0.2403 -0.2900 -0.0174
29473W        W45734  14.156  11.145   1.938  0.2132 -0.0866 -0.0701
29474W        W45735   2.158  19.383  13.857 -0.1568  0.0611 -0.1208
29475W        W45736   0.046   0.342   2.040 -0.2024 -0.1668  0.0917
29476W        W45737  16.487   8.047  12.459 -0.2131 -0.0837  0.0773
29477W        W45738   1.579   3.884  12.131 -0.2298  0.0732  0.3310
29478W        W45739  16.306  18.874  11.128  0.3074 -0.2197 -0.2571
29479W        W45740  14.782   6.596   2.227 -0.1995  0.2881 -0.2414
29480W        W45741  18.127   8.751  11.909  0.3244  0.0288 -0.0127
29481W        W45742  11.208   8.318   2.010 -0.1634  0.1161  0.0020
29482W        W45743  11.147   3.385   4.522  0.0462  0.0640  0.2022
29483W        W45744   7.850   3.943  12.141 -0.1412  0.4009 -0.1905
29484W        W45745   1.528   1.191  13.260 -0.0467  0.1479  0.0759
29485W        W45746  16.754  17.833   0.807  0.1647  0.0591  0.0292
29486W        W45747  18.519  12.036   3.535 -0.0632  0.0186 -0.1623
29487W        W45748  10.217   5.939  12.097 -0.3053  0.1119  0.0175
29488W        W45749   5.790   7.868  11.434  0.1023  0.2950 -0.1136
29489W        W45750  16.710  11.602   0.950  0.0310 -0.1091  0.1195
29490W        W45751   4.785  17.166  10.350  0.1695 -0.3048 -0.0159
29491W        W45752   6.090  17.958   4.485  0.0912 -0.1564  0.1442
29492W        W45753  14.389   2.369   3.046  0.2802 -0.1555  0.2148
29493W        W45754   8.009  10.583  14.680  0.0720 -0.4319 -0.1022
29494W        W45755  13.077   2.629  14.871 -0.1814 -0.0917 -0.0205
29495W        W45756  13.754   6.620   1.852  0.0364  0.0119 -0.0665
29496W        W45757   1.360  12.331   0.940 -0.3764 -0.1987  0.3208
29497W        W45758  13.712  17.241   1.433 -0.1271 -0.0787  0.1543
29498W        W45759  10.628   7.810  10.733  0.1333  0.0056  0.2224
29499W        W45760   6.350   6.667   4.673 -0.2171 -0.0811  0.3174
29500W        W45761   4.633   9.146   4.352  0.1894 -0.0529  0.0907
29501W        W45762   5.216  16.544   3.867 -0.0241  0.1712  0.1324
29502W        W45763  13.117   7.602   0.713  0.0362  0.2804  0.0517
29503W        W45764   0.409  16.117   4.099 -0.1547  0.4569 -0.1637
29504W        W45765  17.220  13.230  10.352 -0.2043  0.0734 -0.0323
29505W        W45766  13.575  11.118  13.489  0.1000 -0.1145  0.0117
29506W        W45767   4.613  12.424  13.642 -0.1720  0.0232 -0.0927
29507W        W45768  11.150   2.817   2.303 -0.1228 -0.0101 -0.1690
29508W        W45769  18.098  14.621  14.664  0.0800 -0.0974 -0.0068
29509W        W45770   7.871  18.667   3.809 -0.1195 -0.2340  0.1240
29510W        W45771   2.358  11.284   2.055  0.1149  0.1504  0.3678
29511W        W45772  12.754  18.353   2.761 -0.1093  0.2192  0.1136
29512W        W45773  12.713   2.243   2.361 -0.0401 -0.0269 -0.0052
29513W        W45774  10.366  13.705   3.994  0.0438 -0.4057  0.0405
29514W        W45775   0.916  14.361   1.427  0.1106 -0.1226 -0.4165
29515W        W45776   4.489  11.712  11.388 -0.2433  0.0440 -0.0377
29516W        W45777  13.555  16.667   4.174 -0.0946 -0.2975  0.0696
29517W        W45778   7.292  11.160  14.176  0.4865  0.1986  0.0124
29518W        W45779  12.504  13.914   4.757 -0.1752 -0.1847 -0.2625
29519W        W45780  13.851  13.179  12.831  0.1826  0.0179 -0.3226
29520W        W45781  14.749   7.720   1.248 -0.1557  0.0472 -0.1165
29521W        W45782  16.469   2.720   5.460  0.2462  0.1748  0.0229
29522W        W45783  16.650   1.658  12.845 -0.1875 -0.1054 -0.0906
29523W        W45784  17.197   8.869  11.171 -0.1937 -0.1514 -0.2343
29524W        W45785  17.359  17.776   4.577 -0.1954 -0.0448 -0.2543
29525W        W45786  17.250  10.689  12.320  0.0645  0.3217 -0.1772
29526W        W45787   5.090  15.500  10.371  0.1206  0.1586  0.1916
29527W        W45788  14.050  15.816   0.796  0.0004 -0.0899 -0.0650
29528W        W45789  17.050  13.302   3.956  0.1013 -0.3116  0.1103
29529W        W45790   6.842  14.173   2.670 -0.0031 -0.0722 -0.3750
29530W        W45791   0.236  19.366   2.343  0.0872 -0.0928 -0.0015
29531W        W45792  10.534  15.594  13.179 -0.0129 -0.2717 -0.1154
29532W        W45793   1.940   4.470   1.186  0.1454  0.1449  0.0635
29533W        W45794   5.241   7.783   3.817  0.1135  0.2563 -0.0938
29534W        W45795  10.226  11.722   2.602 -0.1653  0.0822  0.2537
29535W        W45796  17.547   9.180  11.464 -0.4759  0.4497 -0.0182
29536W        W45797  13.923  16.988   2.584  0.1615  0.1469  0.0509
29537W        W45798   6.698   0.548   5.521 -0.1921 -0.0584 -0.0044
29538W        W45799   6.402  17.945   2.184 -0.1853 -0.2295 -0.1702
29539W        W45800   9.936   2.429   0.464 -0.2494 -0.0898  0.0910
29540W        W45801  17.934  19.132   2.673 -0.2839 -0.2029  0.0523
29541W        W45802  18.649  14.529  11.570 -0.3802  0.4711  0.3812
29542W        W45803   0.836  17.697   3.262  0.1682 -0.1044 -0.1513
29543W        W45804   5.305   1.148   1.604 -0.1594  0.2578  0.0979
29544W        W45805  12.461   1.099  10.913  0.0477 -0.2717  0.1343
29545W        W45806   8.909  15.450  11.701 -0.0947 -0.2108  0.1010
29546W        W45807  18.018  15.802  11.292 -0.0386  0.0644 -0.2442
29547W        W45808  15.172  14.185   2.454  0.0736  0.2153  0.4162
29548W        W45809  12.576  17.553  14.712  0.2417 -0.0171 -0.0850
29549W        W45810   7.247  10.520   3.811  0.0230  0.3041  0.0220
29550W        W45811  17.781   8.260  13.790  0.0560  0.0264 -0.2299
29551W        W45812  12.231  14.592   3.658 -0.0095  0.3868 -0.0745
29552W        W45813   8.215  10.272  13.621  0.1158 -0.1043  0.1253
29553W        W45814  18.055   8.689   4.629 -0.1441  0.0711  0.0255
29554W        W45815   4.052   4.961  11.363  0.0836 -0.1550  0.2124
29555W        W45816   1.916   1.246   2.781 -0.5376 -0.2072 -0.1567
29556W        W45817   8.896  12.830   4.221  0.0888  0.1850 -0.0504
29557W        W45818   5.219   0.532  12.467 -0.0885 -0.1951  0.2421
29558W        W45819  11.193   2.164   3.677  0.0860 -0.5666  0.1233
29559W        W45820   6.837  13.106  11.048 -0.1787 -0.1747  0.0785
29560W        W45821   4.705  19.022  13.551  0.0446  0.3969 -0.2284
29561W        W45822  11.665   0.339  14.264  0.0007  0.2038  0.1262
29562W        W45823   3.021   8.562  14.091  0.0316 -0.1179  0.1519
29563W        W45824  19.040   4.710   4.999 -0.7408 -0.0411 -0.0369
29564W        W45825  17.481  16.745   3.848  0.0788  0.1581 -0.0481
29565W        W45826  19.191   2.257   0.073  0.0320  0.0614  0.1106
29566W        W45827  18.530  15.902  13.928 -0.2252  0.1708 -0.1625
29567W        W45828   0.539  12.871   5.256 -0.1174  0.1715  0.2158
29568W        W45829   8.729   2.636   1.941 -0.0879 -0.0098 -0.1690
29569W        W45830   7.824   9.862  12.701 -0.2358 -0.1630 -0.0056
29570W        W45831  17.583   2.252   0.859  0.2847 -0.0722 -0.1008
29571W        W45832   4.712  17.129  12.972  0.0454 -0.0645  0.0593
29572W        W45833   1.526   3.715  14.411 -0.3078  0.1134 -0.0147
29573W        W45834  12.250  12.002   5.429 -0.3830  0.1119 -0.0272
29574W        W45835  18.628   4.398  13.042 -0.0748 -0.0992 -0.0604
29575W        W45836   3.805  12.395   2.613 -0.0457  0.2655 -0.2072
29576W        W45837  16.430   2.656   3.904 -0.4074 -0.0046  0.2087
29577W        W45838   2.481  12.376  14.828 -0.2863 -0.0508 -0.0835
29578W        W45839   7.550  15.570   1.022 -0.1377  0.3095  0.6066
29579W        W45840   0.335   1.729   4.400  0.0990  0.1521 -0.3249
29580W        W45841  17.421   2.426  11.395 -0.1011 -0.3434  0.1289
29581W        W45842  10.388  18.054   2.753  0.3623  0.0363 -0.2564
29582W        W45843   3.061   2.810   2.163  0.0903 -0.1020  0.1168
29583W        W45844  18.489   4.609  11.897  0.0954 -0.0090  0.1723
29584W        W45845   1.147   5.283  11.321 -0.3086 -0.1224  0.0043
29585W        W45846   9.090   3.519  13.663 -0.1337  0.3832 -0.0468
29586W        W45847  17.570   0.761   1.309  0.0189 -0.0378 -0.0365
29587W        W45848   5.557  12.200  10.856  0.2073  0.1050  0.1450
29588W        W45849   3.655   5.817  11.185  0.1732 -0.0151  0.0872
29589W        W45850  11.449   3.917   1.531  0.0812  0.0832 -0.1711
29590W        W45851   0.998  11.138  11.899  0.1166  0.2161  0.0419
29591W        W45852  16.145   3.301   4.236  0.0821  0.3929  0.1351
29592W        W45853  10.362   4.727  10.380 -0.1530 -0.0934 -0.0354
29593W        W45854  11.775  13.257  11.875  0.1797  0.1011  0.0444
29594W        W45855  15.417   8.242   4.155 -0.1661  0.1180  0.1277
29595W        W45856  10.061  10.951   5.110  0.1628 -0.3380 -0.0633
29596W        W45857  10.697   4.848   3.187  0.1546 -0.1112 -0.3378
29597W        W45858  12.685   2.675  10.395 -0.0779  0.0472  0.0004
29598W        W45859   0.867   4.446   5.966  0.0802 -0.1528 -0.0883
29599W        W45860  14.622   2.044  12.175 -0.1566  0.0774  0.2242
29600W        W45861  13.506  16.822  11.997 -0.0234 -0.2824 -0.1510
29601W        W45862  15.773   5.254   2.374 -0.3639 -0.0356  0.0017
29602W        W45863   3.718  16.718   1.292 -0.1238  0.0743 -0.2223
29603W        W45864   7.398   9.833  13.030 -0.0179 -0.1337  0.2137
29604W        W45865  11.917   2.282  12.701 -0.0275 -0.1716 -0.1501
29605W        W45866   0.047   1.379   2.570 -0.2989 -0.0194 -0.1213
29606W        W45867   7.845  18.111   3.862  0.3972  0.3279 -0.0098
29607W        W45868  19.047  10.960   3.396  0.3838 -0.0729 -0.1099
29608W        W45869   6.353  11.107  11.777  0.1220  0.1096 -0.0016
29609W        W45870  18.941  16.197   3.287  0.1977 -0.0612 -0.0910
29610W        W45871   8.993  12.040  10.077  0.0826 -0.1603 -0.0085
29611W        W45872  19.296  10.548  10.505 -0.0313 -0.0093  0.1309
29612W        W45873   8.758  18.305   4.299 -0.0531  0.3135  0.0550
29613W        W45874  14.524   6.101   2.994  0.0230 -0.3371 -0.0334
29614W        W45875  12.835   2.562  14.031 -0.1038 -0.0829 -0.0242
29615W        W45876  15.200  11.024  10.235 -0.2016 -0.0971  0.1751
29616W        W45877  14.798  11.278  10.286  0.0232 -0.1515 -0.1350
29617W        W45878  19.407  17.729  10.967  0.0499 -0.0591 -0.1614
29618W        W45879  19.203  12.226   2.340 -0.1769  0.0286  0.2028
29619W        W45880   3.529  13.300  12.569  0.1573  0.3454 -0.3932
29620W        W45881   6.330  19.208  13.340  0.1790 -0.0180  0.0518
29621W        W45882  15.049   2.989   3.822 -0.0619  0.1453  0.3425
29622W        W45883   2.469  14.053   4.558 -0.0255 -0.1507 -0.1141
29623W        W45884  18.443   2.397   3.313 -0.2220 -0.2525  0.0723
29624W        W45885   9.299   7.351   5.537  0.1230  0.0322  0.1036
29625W        W45886   2.790  17.762   3.202 -0.0621 -0.2676 -0.0430
29626W        W45887   9.849   0.309   2.933 -0.0151  0.0170  0.1350
29627W        W45888  10.634  10.171  14.716 -0.1832  0.1773  0.1373
29628W        W45889  16.185  13.268  10.679  0.2563 -0.1072 -0.1943
29629W        W45890   9.418   1.779   0.393 -0.0162  0.2649  0.1363
29630W        W45891  16.464  18.366  11.056 -0.1313  0.0658 -0.0275
29631W        W45892   5.803  12.895   1.224  0.0844  0.1789 -0.2011
29632W        W45893  16.110   0.904  11.328 -0.1277  0.0225  0.2089
29633W        W45894   2.706  17.929   0.360 -0.2285  0.0346  0.2150
29634W        W45895   3.819   0.779   1.265 -0.0792 -0.2315 -0.1501
29635W        W45896  16.073   7.871  10.775 -0.0519 -0.1637 -0.1662
29636W        W45897   4.855   6.460  11.908 -0.0915  0.0624 -0.0749
29637W        W45898  17.508   0.419   3.306 -0.1265 -0.3331 -0.1362
29638W        W45899  10.238  16.060   0.110 -0.2565 -0.0080 -0.1267
29639W        W45900  16.218  11.979  14.409  0.2260 -0.0884  0.3918
29640W        W45901   3.243  14.534  13.563  0.0448  0.1628 -0.2440
29641W        W45902   5.010   6.262   1.260 -0.3441  0.1034  0.0938
29642W        W45903   1.259  11.937  11.430 -0.1921  0.0732 -0.0392
29643W        W45904  16.604   8.289  10.738 -0.1583  0.0183 -0.0371
29644W        W45905   4.567  18.230  12.697  0.3770  0.0369 -0.2004
29645W        W45906   8.581  14.964   3.075 -0.0861 -0.0051 -0.0197
29646W        W45907  18.536  11.573   2.580  0.1627 -0.3741  0.3081
29647W        W45908  16.322   4.890   0.654  0.1006  0.1850  0.0436
29648W        W45909   9.864   2.748  12.970 -0.0813  0.0100  0.0455
29649W        W45910   4.777   1.258   3.340 -0.0113 -0.1231  0.0896
29650W        W45911  18.118   4.524  13.812  0.1956  0.0816 -0.1515
29651W        W45912   4.523   8.730   1.153  0.1793 -0.0023  0.0776
29652W        W45913   3.174  11.812  13.023 -0.0713 -0.1149  0.0833
29653W        W45914   1.071   5.659   1.917  0.2460  0.1207  0.0397
29654W        W45915   7.710   8.201  13.570 -0.0687  0.0439 -0.0138
29655W        W45916  12.562  11.174  11.509  0.0739  0.4823 -0.0167
29656W        W45917   4.837   0.744   0.998  0.0969 -0.0900 -0.0389
29657W        W45918  15.061  10.002  11.104 -0.0750 -0.1269 -0.2644
29658W        W45919   7.369   4.901   3.448  0.1121  0.1645  0.2056
29659W        W45920  12.151  16.167   1.795  0.0644 -0.0408  0.3187
29660W        W45921  14.529  13.878  11.180  0.1772  0.0879  0.0688
29661W        W45922   4.327  10.675   0.498  0.0087 -0.1987 -0.1864
29662W        W45923   5.472  17.278   0.746 -0.0183  0.0366  0.3904
29663W        W45924   9.979  14.581  10.460 -0.0096  0.2714  0.1216
29664W        W45925  17.678   9.727   5.366  0.0058  0.3402  0.4289
29665W        W45926   3.609   7.611   3.667 -0.0273 -0.3492 -0.0683
29666W        W45927  13.994   3.488   3.908 -0.2242  0.1331  0.2009
29667W        W45928   5.714   4.939   5.095  0.1256 -0.0794  0.1004
29668W        W45929  14.907  11.317  11.983 -0.1889 -0.0245 -0.0540
29669W        W45930  12.499  14.918   1.017  0.1915  0.0292 -0.1091
29670W        W45931   7.640  11.261  14.606  0.0022  0.2421 -0.0193
29671W        W45932   6.289  14.929   0.370  0.2452  0.1247  0.2348
29672W        W45933   2.052  12.344   3.989  0.0876  0.3501  0.3055
29673W        W45934   5.629  16.862  12.848  0.0816 -0.2560  0.1424
29674W        W45935  10.123  12.346  13.641  0.1677 -0.0043  0.1121
29675W        W45936  13.610  10.019   2.969  0.0393 -0.0552 -0.3124
29676W        W45937   9.156   5.803   0.321  0.4873 -0.0355  0.0201
29677W        W45938   3.595  18.166   3.477  0.2148  0.1445  0.1494
29678W        W45939   2.800  16.094  12.630  0.0121 -0.2597 -0.2733
29679W        W45940   2.194  10.732  14.827  0.2882  0.1246  0.4091
29680W        W45941   3.173  15.047  11.562 -0.0995 -0.3039 -0.0724
29681W        W45942   3.695  11.510  13.147 -0.3231  0.1668 -0.1029
29682W        W45943  13.869   8.706  14.877 -0.0524  0.0916 -0.1172
29683W        W45944  14.608  17.446   4.338  0.2860 -0.1122  0.1117
29684W        W45945   1.635   3.187   5.605  0.0295 -0.2459  0.1087
29685W        W45946  14.586   2.892  13.871 -0.1024 -0.0476  0.3365
29686W        W45947  14.848  17.241  10.713  0.1582 -0.2673 -0.2340
29687W        W45948  11.111   7.947  11.572 -0.1137  0.2602 -0.1257
29688W        W45949  10.885  16.454  13.803  0.1938 -0.2754  0.1082
29689W        W45950   9.062  19.018  14.047  0.2599 -0.0904  0.1327
29690W        W45951  11.401   9.504   1.393 -0.1348  0.4657  0.1619
29691W        W45952  17.244   0.792   2.463  0.5792 -0.1001  0.2740
29692W        W45953  13.248   1.389   3.911 -0.2479 -0.0101 -0.1563
29693W        W45954  16.382   5.639   5.759 -0.0317 -0.0416 -0.1046
29694W        W45955  13.591  10.010  11.511 -0.0737  0.0933  0.1116
29695W        W45956  19.238  19.032  11.262 -0.4224 -0.2552 -0.3625
29696W        W45957  11.690  13.902  14.842  0.2898  0.2305 -0.1210
29697W        W45958   4.368   4.889   2.860 -0.3193  0.1378 -0.2355
29698W        W45959   5.203   0.517   5.683 -0.0144 -0.3048 -0.0834
29699W        W45960  16.059  11.682  10.051  0.2087  0.0746  0.3285
29700W        W45961   8.664   6.801   3.444 -0.0106 -0.2049 -0.2801
29701W        W45962   3.992  12.229  14.793 -0.2104 -0.1061  0.4070
29702W        W45963  15.671   0.867  11.020  0.0426 -0.1007 -0.1820
29703W        W45964   3.412  13.807   1.331  0.3327  0.0865 -0.1492
29704W        W45965  14.598   0.123  12.565  0.0907  0.0435  0.1544
29705W        W45966   8.030   8.760  13.437  0.2890  0.1352 -0.0761
29706W        W45967   2.269  14.656  13.811  0.2757  0.2175  0.3375
29707W        W45968   6.945   5.743   2.499 -0.0111  0.1741 -0.0808
29708W        W45969   0.541   3.293  13.724  0.2875 -0.0556  0.1464
29709W        W45970   8.691   1.812   4.336 -0.0898 -0.0168  0.0069
29710W        W45971  13.507   2.044   3.401  0.2766  0.0590  0.1080
29711W        W45972  10.729   4.751   5.765  0.3658  0.3201 -0.1171
29712W        W45973   7.863   8.252  13.079  0.1951  0.0018  0.1195
29713W        W45974   0.441  14.741   3.349  0.1066 -0.1442  0.1276
29714W        W45975  12.997  18.959  10.059  0.1024 -0.3852 -0.1356
29715W        W45976   4.054   5.642  11.905 -0.2453 -0.2929 -0.2007
29716W        W45977  13.765  12.102   1.431 -0.0292  0.1086 -0.1006
29717W        W45978   4.840   2.718   0.986 -0.1116  0.1707 -0.0645
29718W        W45979   2.269   9.522   1.429  0.3552  0.1794 -0.2266
29719W        W45980   9.849  15.055  12.006  0.0143 -0.5233  0.1357
29720W        W45981   7.094  12.671  12.007  0.0961  0.5225 -0.0911
29721W        W45982   6.912   3.596  12.415  0.1077  0.0711 -0.0101
29722W        W45983  12.757  16.130  14.160  0.5467  0.0946 -0.1623
29723W        W45984   5.843  12.167  12.642  0.3817  0.2821  0.1091
29724W        W45985   5.016   7.802   1.468 -0.0292 -0.2508  0.3377
29725W        W45986   6.945  14.987   4.207  0.1014 -0.1136 -0.0820
29726W        W45987   1.530   5.008  13.836 -0.3345  0.0780 -0.1968
29727W        W45988  18.400  14.159   1.710 -0.0034  0.2268  0.1656
29728W        W45989  18.509   8.892   3.989 -0.2524 -0.0122 -0.0213
29729W        W45990  15.215   3.459   3.915  0.0630  0.1278  0.1684
29730W        W45991   4.560  10.282   3.060  0.0543 -0.0661  0.0278
29731W        W45992  10.107   9.226   0.411  0.0294 -0.0250 -0.0133
29732W        W45993   8.961  13.481  14.586 -0.1760  0.0788 -0.0253
29733W        W45994  15.263  12.488   0.720 -0.1810 -0.3727  0.0115
29734W        W45995  15.373  18.551   2.999  0.0982 -0.0445  0.1301
29735W        W45996   7.824   7.097   5.010 -0.0314 -0.0800 -0.1440
29736W        W45997  11.168  18.044  11.650  0.3148  0.0582 -0.1353
29737W        W45998  13.920  19.045   9.871 -0.2028  0.0167 -0.7371
29738W        W45999  15.237  10.230   5.140  0.1355 -0.2022 -0.3849
29739W        W46000   8.906   1.089   9.734 -0.1006  0.1443  0.1456
29740W        W46001  17.980  18.942   4.526  0.0414  0.1881  0.0022
29741W        W46002  10.935   6.839  13.633 -0.0257 -0.0397 -0.1742
29742W        W46003   8.526  17.077  12.972  0.0960  0.0549  0.4451
29743W        W46004   2.691  12.986  11.923 -0.1156 -0.0910 -0.0097
29744W        W46005  13.226   8.914  10.499  0.2407  0.2208  0.1149
29745W        W46006   1.994   2.957  13.319 -0.1327  0.3898  0.2821
29746W        W46007   9.941   8.767  14.551 -0.1494  0.4064  0.0233
29747W        W46008   5.516  18.400  11.952  0.0236  0.1146 -0.2219
29748W        W46009  11.204  18.501   0.202  0.0104 -0.1155 -0.1737
29749W        W46010   7.381   8.987   1.944  0.4185  0.2579 -0.0019
29750W        W46011  15.178  14.739   0.748  0.1716 -0.2270  0.0987
29751W        W46012   0.942  11.120   2.972  0.2549  0.0148 -0.0769
29752W        W46013   5.484   7.231  14.410  0.1611  0.0123 -0.0252
29753W        W46014   8.160   3.040  11.266 -0.0039 -0.1179 -0.2519
29754W        W46015   7.073  16.054   4.856  0.0081  0.4370 -0.0928
29755W        W46016  13.345  14.145  13.342 -0.3010  0.0627 -0.0065
29756W        W46017   8.178  18.895  11.944 -0.2047 -0.3757  0.0648
29757W        W46018   1.048  15.056  14.587 -0.0949 -0.2617 -0.1421
29758W        W46019  13.714   5.033  13.026 -0.1272 -0.1847 -0.0109
29759W        W46020   5.664  15.316  14.138  0.0400 -0.2275  0.3771
29760W        W46021   5.565   2.330   3.842 -0.0141  0.0026 -0.1321
29761W        W46022  11.133   1.554   2.850 -0.2464 -0.1338  0.1202
29762W        W46023   8.397   5.498   0.828 -0.0627  0.1698 -0.2279
29763W        W46024   2.156   5.188   4.554 -0.2677  0.1152  0.3501
29764W        W46025  12.043   4.672   2.983  0.2085  0.0556  0.1960
29765W        W46026  10.538   2.717   3.480  0.2917 -0.1172  0.2851
29766W        W46027  10.562   7.514  13.686 -0.1208 -0.0454  0.3621
29767W        W46028  10.250   5.207   2.099 -0.1098  0.0577  0.1180
29768W        W46029   5.743   7.498  11.084 -0.4122 -0.0013 -0.3191
29769W        W46030   1.247   4.238   1.698 -0.2026  0.1732 -0.1192
29770W        W46031   4.904   0.601  13.633 -0.1532 -0.1356  0.0916
29771W        W46032  18.359   7.392   1.603  0.0988 -0.3050 -0.2493
29772W        W46033   4.835  16.497   4.308 -0.1693 -0.3654 -0.3837
29773W        W46034  15.973   9.471   4.984 -0.0739  0.2845 -0.1188
29774W        W46035  13.392   7.225  12.568 -0.1575  0.2676 -0.3891
29775W        W46036  17.957  13.062   4.163  0.2589 -0.1878  0.1387
29776W        W46037  12.194  15.943   3.953 -0.0144 -0.0907  0.1480
29777W        W46038  11.322   6.082   3.901 -0.0447  0.0313 -0.0825
29778W        W46039   5.547  14.753   0.094  0.1492 -0.1318  0.0923
29779W        W46040  14.035  13.369   1.879  0.2939  0.1383  0.0735
29780W        W46041  13.467   0.071   2.033  0.2692  0.0513 -0.1009
29781W        W46042  16.752  13.814  14.654  0.0107 -0.0215  0.1674
29782W        W46043  11.423   3.179  10.344 -0.0389 -0.1088  0.0878
29783W        W46044   3.801   1.665  10.336 -0.0145 -0.1403 -0.0336
29784W        W46045  10.649  16.848  11.685  0.0776  0.1651 -0.2772
29785W        W46046  12.547   5.630  13.679 -0.2398 -0.4265 -0.0639
29786W        W46047   1.994  16.482   3.046  0.0267 -0.0894  0.0422
29787W        W46048   7.507   9.167  11.681 -0.0011  0.0037 -0.1568
29788W        W46049  18.381  14.264  12.517 -0.0965  0.0011  0.2446
29789W        W46050   2.048   4.648   3.758  0.1354 -0.1383 -0.0090
29790W        W46051   3.862   9.282   0.555  0.3923  0.2447  0.3558
29791W        W46052  12.046  12.479  10.943 -0.0649 -0.1298 -0.0260
29792W        W46053  13.925   7.848   1.078 -0.1685  0.1524  0.0596
29793W        W46054   8.003   8.810   0.339  0.1005 -0.2231  0.1828
29794W        W46055   2.608  18.124   3.560  0.1803 -0.4786  0.1754
29795W        W46056  19.254   4.987  10.488  0.3128  0.2437  0.0961
29796W        W46057   1.844  11.311  11.749  0.1703  0.0905  0.2263
29797W        W46058  12.760  15.701  13.830  0.0867 -0.2857  0.0604
29798W        W46059   3.308  13.857  14.879  0.2780 -0.1846 -0.2897
29799W        W46060  15.234  14.967  10.455 -0.1594 -0.0432 -0.0196
29800W        W46061   1.197  14.960   5.086 -0.2502 -0.4091  0.1300
29801W        W46062   2.381  15.963  13.559  0.1653  0.0510  0.4645
29802W        W46063   0.068   9.669  13.937  0.1577 -0.1591 -0.2012
29803W        W46064   1.613   4.876   3.695  0.0586 -0.1702 -0.1185
29804W        W46065  14.666   8.712  14.296  0.3691 -0.0147 -0.0589
29805W        W46066   4.091   3.950   3.912  0.1539  0.0602 -0.1029
29806W        W46067   2.852   7.001  12.562  0.0916  0.0553 -0.4107
29807W        W46068   1.508  13.836  10.730 -0.0685 -0.1127 -0.2494
29808W        W46069   0.701  10.208  11.190 -0.2447  0.3092  0.4922
29809W        W46070   0.384   1.238   0.683  0.0461 -0.1015 -0.0783
29810W        W46071   9.993  19.403   0.094 -0.2056  0.0630 -0.0482
29811W        W46072   6.202   2.414  10.538  0.5327  0.0662  0.1501
29812W        W46073   3.202  14.114   1.670 -0.1717 -0.1079 -0.2321
29813W        W46074  11.524  18.861  12.954  0.1247  0.0138  0.0003
29814W        W46075   0.180   6.982  14.358 -0.2784 -0.0232  0.2929
29815W        W46076   3.224   9.207  14.574  0.0632  0.1661 -0.0164
29816W        W46077  11.869  13.096  14.570 -0.2615 -0.1069  0.1444
29817W        W46078   3.190  18.319  13.974  0.2592  0.0147  0.1221
29818W        W46079   0.680   2.406   2.490  0.0237 -0.1271 -0.5102
29819W        W46080   6.633  17.923   1.127 -0.0245  0.3119  0.1357
29820W        W46081  10.638   7.413   4.043 -0.1710 -0.1415 -0.1474
29821W        W46082  10.576  19.048   4.290  0.1542 -0.0320  0.2312
29822W        W46083   4.077   6.094   1.649  0.2790 -0.2137  0.1973
29823W        W46084  12.179  10.738   1.436 -0.0457  0.0950  0.0085
29824W        W46085   6.353   9.702  12.494 -0.0188  0.2201  0.0414
29825W        W46086  17.504   4.944  11.756 -0.0565  0.0009 -0.0429
29826W        W46087   4.510   0.196   1.696 -0.1304  0.0092  0.0237
29827W        W46088   2.902  15.512  13.415  0.0766  0.2562  0.1922
29828W        W46089  17.539  17.462  11.871  0.1419  0.2680 -0.2480
29829W        W46090  14.170  12.846  11.161  0.4009  0.4107 -0.2556
29830W        W46091   1.509   5.194   3.280 -0.1592  0.0354 -0.0444
29831W        W46092  19.219   7.226  13.748  0.1183  0.0074  0.3742
29832W        W46093   4.978   3.835  14.040  0.1555  0.1286  0.0079
29833W        W46094  10.576   4.702   0.957 -0.0237  0.4082  0.1947
29834W        W46095   8.675  18.636  14.711 -0.0289 -0.1093  0.0274
29835W        W46096   4.177  15.542  11.349 -0.0044  0.1215 -0.1427
29836W        W46097   8.265  15.998  10.612  0.0341 -0.1506 -0.0942
29837W        W46098   8.084   3.224  14.660  0.1597  0.1861 -0.0273
29838W        W46099   4.921   5.854   3.874  0.1542  0.3607 -0.0037
29839W        W46100   6.842   0.210  13.785 -0.1261 -0.1348  0.3287
29840W        W46101  13.552  10.799   4.154  0.5555  0.0668  0.0329
29841W        W46102  15.056   0.376  10.530  0.1592  0.0252  0.1934
29842W        W46103   7.444   4.596   9.582  0.0507  0.1533  0.1803
29843W        W46104   2.516   3.750  14.081 -0.1918  0.3964  0.1644
29844W        W46105  11.884  11.710   0.962  0.2989  0.4419  0.0390
29845W        W46106   7.432   5.606   2.648  0.0753  0.1585 -0.1209
29846W        W46107  15.568  18.445  12.861 -0.1741 -0.0479 -0.1746
29847W        W46108  11.332   2.887   0.183 -0.0564 -0.1080  0.2460
29848W        W46109   6.897  11.263   2.921 -0.1534 -0.1309  0.1919
29849W        W46110  11.716   6.035   4.172 -0.1673 -0.0324 -0.1858
29850W        W46111  12.649  19.409   9.842 -0.0400 -0.0073  0.1252
29851W        W46112   4.152  15.967  14.771 -0.1714 -0.1800 -0.5360
29852W        W46113  10.649   5.038   1.703 -0.0199  0.1293  0.0301
29853W        W46114  11.901  13.162   0.754  0.1607 -0.1955  0.0784
29854W        W46115   2.677   1.169  10.256  0.1690  0.1288 -0.1153
29855W        W46116   7.634   2.620  10.830  0.1133 -0.1692 -0.1059
29856W        W46117   5.835   2.769  13.612  0.2794 -0.2388 -0.2475
29857W        W46118  15.262  11.716   3.918 -0.0839  0.2275 -0.0882
29858W        W46119  15.567  15.937  14.812  0.0666 -0.1180 -0.3726
29859W        W46120   0.721  17.826  11.709  0.0408 -0.0437 -0.3262
29860W        W46121   8.902   8.476  10.715 -0.1508 -0.1546 -0.0001
29861W        W46122  10.658  10.337  14.242  0.0253 -0.3551  0.0099
29862W        W46123   6.705  10.702  12.486  0.1235 -0.0964 -0.2521
29863W        W46124   6.266   5.708  10.308 -0.1175 -0.0512  0.2469
29864W        W46125  17.349  18.384   4.253  0.0360 -0.3722  0.1644
29865W        W46126  18.366   5.381   5.147  0.2277 -0.0037  0.0496
29866W        W46127  13.385   6.464  14.605 -0.1546  0.0114 -0.2051
29867W        W46128  17.240  10.549  11.072  0.2311  0.0018 -0.2378
29868W        W46129  19.282  15.502  12.966  0.0556 -0.0240 -0.2194
29869W        W46130   2.164   2.200   0.984  0.1855  0.0228  0.2253
29870W        W46131  13.038   3.729   2.133 -0.2057  0.3477 -0.1378
29871W        W46132  16.618   9.071  13.744 -0.1983  0.1179  0.0349
29872W        W46133   8.312   8.509  11.401  0.4994  0.0042 -0.1224
29873W        W46134   1.853   7.342  12.377 -0.2643  0.1279 -0.0138
29874W        W46135   4.572  15.420   1.052 -0.2562  0.1590  0.0830
29875W        W46136   9.399  11.770  11.178 -0.0864 -0.0786 -0.2072
29876W        W46137   4.214   5.627   1.489  0.0404 -0.2095  0.0866
29877W        W46138  12.756   4.816   9.376 -0.0462  0.1116 -0.0413
29878W        W46139  12.345  16.484   3.935 -0.0387 -0.1014 -0.0759
29879W        W46140   0.561  12.558   1.554  0.1162  0.0108  0.1006
29880W        W46141  15.925  15.059  10.281 -0.1364  0.1736  0.2987
29881W        W46142   4.960   8.008   3.037  0.2044  0.0605  0.1855
29882W        W46143   3.872   8.410   1.091 -0.0137  0.0633 -0.3646
29883W        W46144   0.950  18.232  11.160  0.2888  0.0138 -0.0552
29884W        W46145   4.107   8.055  12.675 -0.4589 -0.1735 -0.0824
29885W        W46146   3.029  19.172   4.955 -0.2334  0.1225  0.1503
29886W        W46147   0.043   3.736  11.959  0.1276  0.0154 -0.1925
29887W        W46148   8.344  11.451   2.807  0.1596  0.0062  0.0921
29888W        W46149  12.683  16.778   0.174 -0.3682 -0.2056  0.0141
29889W        W46150   0.344   3.548   1.299 -0.1855 -0.0691  0.2844
29890W        W46151   0.507   0.604   3.620  0.0103  0.0067 -0.0740
29891W        W46152  10.216  17.401   0.207  0.1442 -0.2542  0.0162
29892W        W46153  17.565   3.083   1.904 -0.3723 -0.1317 -0.0602
29893W        W46154  16.097   1.610   4.689  0.0468 -0.1033 -0.0045
29894W        W46155  16.017  18.643   0.605 -0.0870 -0.0449  0.1081
29895W        W46156   1.834   7.685   5.176 -0.0316  0.0935 -0.1801
29896W        W46157  15.763   2.415   2.913 -0.0797 -0.2996 -0.2138
29897W        W46158   1.612   6.274  13.442 -0.3253  0.0607  0.1881
29898W        W46159   5.048  17.624   1.893  0.3352 -0.1223 -0.2518
29899W        W46160   5.497  18.019   4.011  0.4173  0.2779 -0.2674
29900W        W46161  18.743   4.181   3.425 -0.0943  0.0433 -0.0590
29901W        W46162   6.146   4.713  14.173 -0.1229  0.2247  0.1021
29902W        W46163   0.742  16.774  13.860 -0.2053 -0.1012 -0.0058
29903W        W46164   4.723  13.150   5.082 -0.0472 -0.2295  0.1008
29904W        W46165  14.142   6.717  10.880  0.0021  0.2576  0.0698
29905W        W46166   7.594   2.116   2.113 -0.0498 -0.2074  0.0332
29906W        W46167  15.563   4.764  14.545 -0.2968  0.1765  0.2379
29907W        W46168  18.347   9.070  12.233 -0.1698 -0.4261 -0.1528
29908W        W46169  10.144  10.732   4.643 -0.0278  0.0504  0.1525
29909W        W46170  14.361   4.313   3.048  0.0841  0.0349  0.0669
29910W        W46171   0.099  16.741   4.921  0.3789  0.0068 -0.1831
29911W        W46172  18.298   1.740  13.644  0.1750 -0.1614  0.2364
29912W        W46173  13.109   2.889   9.762 -0.2758  0.1840  0.2488
29913W        W46174   5.823  10.232   2.850  0.1474  0.2415  0.0612
29914W        W46175  10.783  16.866  10.511  0.0444 -0.0780 -0.2580
29915W        W46176   7.540   7.109   9.788 -0.1496  0.0523 -0.3042
29916W        W46177  13.577   6.083   2.181  0.1849  0.2059 -0.1404
29917W        W46178  19.162   7.057  11.088  0.0833 -0.2060 -0.0161
29918W        W46179  18.050  12.152   2.019 -0.1617  0.0449 -0.3063
29919W        W46180   1.320   8.546   2.242 -0.0740  0.4523 -0.2642
29920W        W46181  14.315  19.081   2.680 -0.0208  0.0862 -0.0428
29921W        W46182   5.027  17.999  12.601  0.0068 -0.2437  0.0076
29922W        W46183   8.029  11.478  14.337 -0.0524  0.0687 -0.0247
29923W        W46184   7.042  16.735  14.743 -0.4198 -0.1387 -0.1470
29924W        W46185  15.888  12.548   4.327  0.4737  0.0213 -0.3405
29925W        W46186  14.953  18.499   4.372 -0.1256  0.0608  0.0078
29926W        W46187  15.437   4.601   0.253 -0.1234 -0.1323  0.2545
29927W        W46188  14.239  17.491   0.497 -0.0479  0.1786 -0.2918
29928W        W46189  14.252  14.206  10.436  0.1394  0.0887  0.1116
29929W        W46190   8.128  15.081   3.947 -0.1171 -0.0370  0.1152
29930W        W46191  17.440   6.495   1.341  0.0233  0.0271  0.0045
29931W        W46192  11.848  17.902  12.754  0.1883  0.4383  0.0860
29932W        W46193  14.611  10.967  12.426  0.3986  0.2515  0.0185
29933W        W46194   2.832  15.662  14.337  0.0533  0.0075 -0.2492
29934W        W46195  12.652   0.712   4.567 -0.0121  0.0908  0.0854
29935W        W46196  18.613   5.528   5.541  0.0103 -0.2891 -0.0211
29936W        W46197  12.595   1.552  13.661 -0.0486 -0.0812 -0.1201
29937W        W46198   2.971  14.578   1.595 -0.1094 -0.6060 -0.2072
29938W        W46199  16.118  11.818   2.088 -0.0322  0.0668 -0.2488
29939W        W46200   1.017   0.464   3.258  0.0919 -0.0221  0.0045
29940W        W46201   5.858  13.686  13.659 -0.1372  0.1356  0.2380
29941W        W46202   5.640  14.711   4.795  0.0367 -0.3341  0.1885
29942W        W46203   2.091  15.613   2.314  0.3378 -0.1195  0.1875
29943W        W46204  17.462  14.884   3.291 -0.2710 -0.0850  0.2698
29944W        W46205   5.942  11.445  10.876  0.1030 -0.0121  0.3565
29945W        W46206  17.406   7.923   4.207 -0.2849  0.1339 -0.0996
29946W        W46207  15.253   5.438  14.050 -0.0089  0.2288  0.3446
29947W        W46208  14.708   1.744  11.734  0.1744  0.1059  0.0604
29948W        W46209  18.101  12.518   4.510  0.1582 -0.3036  0.1100
29949W        W46210  11.273   6.565   1.976  0.1863  0.0275 -0.1531
29950W        W46211  10.643   4.805  14.596  0.3459 -0.2031 -0.1924
29951W        W46212   9.650  14.172  14.558 -0.0702 -0.1104  0.1653
29952W        W46213   2.798   3.894   4.000 -0.3353 -0.0732 -0.0757
29953W        W46214  14.059   4.269   0.689  0.0400  0.0541 -0.2300
29954W        W46215  14.180   3.073   1.096  0.0665  0.3318  0.0335
29955W        W46216  14.650  19.420   2.507 -0.0501 -0.0639  0.0548
29956W        W46217  11.816  18.838   3.704  0.1391  0.0388 -0.4780
29957W        W46218   7.516   3.065   0.787  0.0297 -0.2069  0.0399
29958W        W46219  17.748  16.384   4.137  0.2859  0.0825  0.0053
29959W        W46220   6.311   9.586   0.555  0.1691 -0.2862 -0.1439
29960W        W46221   4.248   7.788   0.151 -0.2724 -0.0439  0.2970
29961W        W46222  12.808   3.937  11.250 -0.0596 -0.1833  0.2163
29962W        W46223   1.771   3.855   3.910 -0.0807  0.0062  0.0099
29963W        W46224   2.104  13.148   3.791 -0.0169  0.1774 -0.0031
29964W        W46225   8.849  18.405  12.854 -0.1791 -0.1465  0.1520
29965W        W46226  17.226  15.368  13.797 -0.4465  0.0207 -0.0683
29966W        W46227   1.908   1.260   1.787  0.1842  0.0506  0.0084
29967W        W46228  17.038   3.956  11.544  0.0545  0.1183 -0.0776
29968W        W46229  17.716   8.853  12.327  0.0316 -0.0159  0.0161
29969W        W46230   8.551  19.367   1.869 -0.2349  0.2938  0.1073
29970W        W46231   5.127  16.518  14.527  0.1314 -0.0145 -0.2126
29971W        W46232  18.836   3.087   5.985 -0.0647 -0.0092  0.1106
29972W        W46233   0.989  16.567   0.697 -0.0297  0.1422 -0.0001
29973W        W46234   1.113   8.837  14.132 -0.0118  0.2960  0.1254
29974W        W46235  19.067  15.553   1.877  0.2968 -0.3222 -0.1843
29975W        W46236   5.427   1.975  13.358  0.0524 -0.0095 -0.3543
29976W        W46237  15.393   6.050   4.337  0.0363  0.3489  0.1154
29977W        W46238  12.642  18.291  10.686  0.1890  0.1539 -0.2343
29978W        W46239   8.262  19.033   1.430  0.1243 -0.0202  0.1023
29979W        W46240   1.416  16.474   4.316 -0.2448  0.0037 -0.0894
29980W        W46241   2.832   1.343   3.376 -0.0782 -0.0005 -0.2110
29981W        W46242  15.241   0.414   0.329  0.1163  0.2886 -0.1765
29982W        W46243  19.148   1.980   4.494 -0.0950 -0.0313 -0.4463
29983W        W46244  11.717   9.137   3.909 -0.0181 -0.5733  0.1841
29984W        W46245   0.295   0.890   0.319  0.3022  0.3301 -0.0768
29985W        W46246  18.044   2.233   1.834 -0.2645  0.0593 -0.1281
29986W        W46247   7.337  16.027  13.971 -0.1703 -0.1101 -0.3383
29987W        W46248  17.980  15.092   0.003  0.1323 -0.0371 -0.0106
29988W        W46249  12.227   9.429   4.603 -0.0101 -0.2589  0.1536
29989W        W46250  13.567  18.586  10.685 -0.2686  0.0870  0.2842
29990W        W46251   9.810   4.213  11.885  0.4027 -0.2222 -0.1279
29991W        W46252  14.451  16.696  12.412  0.0434 -0.1609 -0.0975
29992W        W46253   8.327  16.594   0.563 -0.0337 -0.0342 -0.0454
29993W        W46254  17.208  11.992   4.588  0.0097 -0.1456  0.3063
29994W        W46255   9.386   7.925   3.194 -0.1056 -0.1106  0.0008
29995W        W46256   9.163   6.098  14.520 -0.0024  0.1394 -0.1751
29996W        W46257  15.024  12.396   1.172 -0.2975 -0.3308  0.4804
29997W        W46258  18.084  15.770   2.224  0.3548  0.2339  0.1017
29998W        W46259   2.610  17.638  14.799  0.1246  0.0284 -0.0550
29999W        W46260  10.922  15.686  14.084  0.1754  0.2369 -0.0653
30000W        W46261  15.303  18.488   1.006 -0.0969  0.0419 -0.0231
30001W        W46262  12.467   6.079   0.692 -0.2831  0.2917  0.1904
30002W        W46263   1.812   0.368  13.896 -0.1725  0.2562 -0.1701
30003W        W46264   2.635   0.746  11.157  0.1733 -0.3735  0.2467
30004W        W46265  19.180  15.673  11.703  0.2230  0.0597 -0.0465
30005W        W46266   1.299  14.735   0.017  0.1176  0.1441  0.0240
30006W        W46267  15.593   3.357   1.258  0.2850 -0.2241  0.2510
30007W        W46268   5.776   4.196   1.528  0.2911  0.0499 -0.0511
30008W        W46269   4.402  19.311  11.215 -0.0516  0.2613 -0.2267
30009W        W46270  14.637   3.242  11.615 -0.1030  0.0491  0.0943
30010W        W46271  17.243   4.659  13.024  0.2014  0.0336  0.0780
30011W        W46272   2.348   6.820   3.242  0.0169  0.2401  0.1957
30012W        W46273   2.266   8.097   2.950  0.2778 -0.0223  0.0637
30013W        W46274   9.663  17.284  13.431 -0.2319  0.0377 -0.0974
30014W        W46275  17.567   9.677  10.078 -0.0075  0.2762  0.2246
30015W        W46276   3.335   3.744   3.193 -0.0974 -0.1158  0.0920
30016W        W46277  10.300   0.709  12.096  0.0368  0.2957 -0.0165
30017W        W46278   3.053  10.835   1.882  0.2376  0.0226  0.0160
30018W        W46279   9.614  15.349   3.792 -0.4543 -0.1932 -0.4387
30019W        W46280   6.156  11.660  14.754 -0.5532  0.5204  0.2117
30020W        W46281  13.389  11.634   3.116  0.1233 -0.2566 -0.4357
30021W        W46282   8.069   6.408   2.740 -0.3324  0.3601  0.1360
30022W        W46283   5.472  14.907   1.395  0.1517 -0.2797 -0.0212
30023W        W46284  13.947   8.167   1.553  0.2746  0.0628 -0.0933
30024W        W46285   1.982   9.261  12.622  0.0585  0.0419  0.1149
30025W        W46286   7.107   3.441   0.228  0.1928 -0.2579  0.0172
30026W        W46287  11.055  13.873  10.277 -0.0584 -0.2341 -0.2637
30027W        W46288   5.662   7.708   1.969 -0.1013  0.1283  0.3068
30028W        W46289  19.272  10.920   4.797 -0.3555  0.1617 -0.2815
30029W        W46290   9.892   2.207   3.195  0.0421 -0.1870  0.3649
30030W        W46291   5.078   3.034   4.092 -0.0118  0.1738 -0.3340
30031W        W46292  16.919  17.588  14.266  0.4776 -0.0976 -0.0689
30032W        W46293  18.525   3.917   0.628 -0.3784  0.3122 -0.3085
30033W        W46294   1.074   0.146   0.963  0.0557 -0.1011 -0.1001
30034W        W46295  15.582  12.708  10.404 -0.2112 -0.0211 -0.1306
30035W        W46296   4.290  18.778  10.592 -0.0844  0.2149 -0.0376
30036W        W46297   3.311  18.789   1.635 -0.1553  0.0630  0.0562
30037W        W46298   5.288   3.094   2.791  0.0562  0.1324 -0.2697
30038W        W46299  12.321  15.666  13.193 -0.0749  0.1434  0.0853
30039W        W46300   3.466   2.239  12.012 -0.0363  0.0767 -0.3301
30040W        W46301   9.255  10.291  11.504  0.0873  0.2628  0.0982
30041W        W46302  12.941   8.859   1.583  0.1645  0.0854  0.2950
30042W        W46303   5.759  14.824   0.999  0.1081  0.0207  0.1043
30043W        W46304   0.201  17.711   2.092 -0.2305  0.0040  0.2013
30044W        W46305  12.894   1.938  14.591  0.0541  0.3125  0.0472
30045W        W46306  18.316   3.474   3.986 -0.2093 -0.1626  0.2677
30046W        W46307   0.798   6.403   3.547 -0.0078 -0.0278 -0.0261
30047W        W46308   6.152  16.661   9.812 -0.0246  0.3157  0.2206
30048W        W46309  18.776  17.839  11.758  0.3211  0.0585  0.1401
30049W        W46310   4.750   4.982  13.352 -0.0905 -0.1177  0.2648
30050W        W46311   0.936  12.561  12.542  0.1340  0.0109  0.1517
30051W        W46312  15.566   8.686   4.457 -0.3476  0.3051  0.0088
30052W        W46313   0.006   2.554   0.342  0.0661  0.2547 -0.3524
30053W        W46314   3.771   2.543   3.602 -0.0306  0.0512  0.0326
30054W        W46315   7.371  18.837   0.929  0.0134 -0.1416 -0.1050
30055W        W46316   6.098   8.358   0.303 -0.0600  0.3596 -0.0943
30056W        W46317   1.332  13.874   2.492 -0.3262 -0.0653 -0.2722
30057W        W46318  16.877   6.340  13.999  0.0695  0.3207  0.0523
30058W        W46319  14.142   8.281   0.975 -0.0468  0.1984  0.0372
30059W        W46320   2.358  14.188   1.203  0.0535  0.1104  0.1183
30060W        W46321  15.418   4.301   1.454 -0.2502  0.0860  0.0524
30061W        W46322   4.538  13.153  13.067  0.1661  0.0120  0.2441
30062W        W46323  16.630   8.875   3.353 -0.1522  0.0137  0.0348
30063W        W46324  17.171   5.667   3.792 -0.2578  0.0582  0.2070
30064W        W46325  10.054   8.457  12.666  0.0676 -0.2664 -0.1374
30065W        W46326   8.632  13.250  13.708 -0.0937  0.1793  0.2008
30066W        W46327   7.676  14.859   0.838  0.1346 -0.0513  0.1629
30067W        W46328   0.119  16.849  14.485 -0.4353 -0.0412  0.0358
30068W        W46329   9.278   6.426   0.176  0.1294 -0.0353 -0.2262
30069W        W46330   8.946   9.146   1.925  0.2167 -0.1556  0.2253
30070W        W46331   8.993   8.955   4.006  0.2389  0.1309 -0.1065
30071W        W46332  18.764  11.242   3.744 -0.0373  0.1801 -0.0294
30072W        W46333  12.920   0.595   3.175 -0.1090  0.1109  0.1762
30073W        W46334   1.748   3.239  14.055 -0.2244 -0.1115 -0.2298
30074W        W46335   7.052   2.408   5.070  0.0591  0.4056 -0.1376
30075W        W46336   8.289   8.950  14.267 -0.0727  0.0977  0.1505
30076W        W46337  14.091   6.005  10.412  0.0498 -0.0328  0.1732
30077W        W46338  12.483   3.070   3.920 -0.1702  0.0489  0.0780
30078W        W46339  16.092  17.565  11.928  0.3530 -0.1212 -0.2700
30079W        W46340  11.173   5.557  13.543 -0.0713 -0.3199 -0.1774
30080W        W46341   2.586   2.647  13.323 -0.0906 -0.1242 -0.0639
30081W        W46342  18.325  18.833  13.158 -0.1377  0.3194  0.3375
30082W        W46343   3.356  16.052   0.778 -0.0282 -0.2214 -0.2136
30083W        W46344  10.247  14.635  11.863 -0.3322  0.0054  0.0452
30084W        W46345   5.684   0.342   1.769 -0.0417 -0.1568 -0.4055
30085W        W46346   2.239   4.836  13.133  0.0277  0.3308  0.3264
30086W        W46347  12.852   9.244  12.900  0.3738  0.0807  0.0628
30087W        W46348  17.649   2.483   0.366  0.3148 -0.0029  0.1570
30088W        W46349  17.219   1.669   0.159  0.1774 -0.1232 -0.0352
30089W        W46350  13.605   8.157   0.861 -0.0057 -0.1283 -0.1119
30090W        W46351  15.037  16.437  11.078 -0.2848  0.2062  0.1629
30091W        W46352   7.813   0.488  11.392 -0.0550 -0.2662  0.2155
30092W        W46353  10.595  11.369   1.066  0.3824  0.0449 -0.0302
30093W        W46354  11.157   3.110  14.243  0.2468  0.0684 -0.2307
30094W        W46355   6.933   6.281  11.411  0.1376 -0.0243  0.2470
30095W        W46356   1.134   6.905   2.521  0.2644  0.2724  0.2168
30096W        W46357  16.910  18.026  12.018 -0.1647 -0.1670 -0.1094
30097W        W46358  17.759   1.372  10.447  0.1825 -0.1953  0.0453
30098W        W46359  11.980  11.324  12.272 -0.0074 -0.2047 -0.3339
30099W        W46360  15.248  11.236   4.206  0.3135  0.3078  0.0192
30100W        W46361  18.424  14.085   2.636 -0.0957 -0.1056 -0.1981
30101W        W46362   3.047   1.578  11.410  0.3318 -0.3491 -0.0248
30102W        W46363  12.550  12.462   2.092  0.1922 -0.2159  0.2322
30103W        W46364  13.740  16.018  13.288 -0.0826 -0.2243  0.4022
30104W        W46365  10.257   7.586   4.565 -0.0578 -0.0252 -0.2543
30105W        W46366  14.429   3.325   2.116 -0.0737 -0.0844 -0.1663
30106W        W46367  14.528  10.961   9.393  0.2068 -0.0026 -0.2234
30107W        W46368  15.486   9.440  14.556  0.1403  0.0570  0.3571
30108W        W46369  10.936  14.583  14.815 -0.0755 -0.1731  0.1677
30109W        W46370  16.843   8.093  11.494  0.2416  0.0685  0.2578
30110W        W46371  14.925  15.588   1.632  0.0752 -0.0093  0.1539
30111W        W46372   0.747  12.875  13.101  0.1441  0.0053 -0.2012
30112W        W46373  19.296  15.858  10.653  0.2525  0.1217 -0.0214
30113W        W46374   0.919   1.525  12.086 -0.2770 -0.0240 -0.0032
30114W        W46375   3.394  13.561  11.607  0.0483  0.3600  0.0260
30115W        W46376  18.151   6.963   3.101  0.0349  0.2452 -0.0457
30116W        W46377  12.932  14.212  12.453 -0.2241  0.1877 -0.0538
30117W        W46378   4.507   3.790   4.134 -0.1366  0.0863 -0.0608
30118W        W46379   7.870  18.854   0.721  0.1846  0.1863  0.2346
30119W        W46380  19.377   9.988   5.013 -0.2191  0.1372 -0.0106
30120W        W46381  13.547   7.079   1.820 -0.4005  0.2877 -0.2009
30121W        W46382   1.872  13.936  14.001 -0.1024  0.0397 -0.0100
30122W        W46383   1.168  16.508  13.693  0.0783  0.0651  0.2573
30123W        W46384  12.661  13.577   9.280 -0.3157  0.1460  0.1064
30124W        W46385  15.830   2.143  14.646  0.0729  0.0633  0.5478
30125W        W46386  17.799  10.475   2.890  0.0232 -0.2935 -0.1563
30126W        W46387  15.094  13.179   0.187  0.2858  0.2941  0.2710
30127W        W46388   4.412   9.632   1.438  0.0854 -0.2585 -0.0683
30128W        W46389   6.329  18.331  10.901  0.0000  0.1993 -0.0038
30129W        W46390  17.383   2.839   9.785  0.1534  0.0507 -0.1788
30130W        W46391  18.386   9.826   9.488  0.0074  0.1336 -0.1363
30131W        W46392  16.257   3.641   4.559  0.1373 -0.1323 -0.0705
30132W        W46393  18.006  15.390   3.981 -0.5099 -0.0686 -0.3860
30133W        W46394   0.220  18.148  14.219  0.0960 -0.1236 -0.2779
30134W        W46395   5.475   5.053  13.846 -0.2847  0.0325 -0.1901
30135W        W46396   1.903  18.057   4.872 -0.3617 -0.0348  0.0176
30136W        W46397   4.490   6.090   1.248  0.0302 -0.2902 -0.0516
30137W        W46398  18.555  19.076  10.954  0.0256  0.0350  0.0188
30138W        W46399   5.086   9.515   5.525  0.2775  0.0103 -0.2363
30139W        W46400   2.485   0.389   1.069  0.1721  0.0705 -0.3189
30140W        W46401  15.784   0.968  11.732 -0.1348  0.0369 -0.1072
30141W        W46402  11.159  15.111   3.456  0.0883 -0.2891 -0.1997
30142W        W46403  13.911   5.495  10.660 -0.0025  0.0954  0.0188
30143W        W46404  18.442   8.892  14.187 -0.1099  0.0156 -0.1378
30144W        W46405   5.195   7.818   0.246 -0.0532  0.1246 -0.0019
30145W        W46406  10.439  11.090   1.860 -0.2007  0.2642  0.3538
30146W        W46407  11.269   4.924  13.257 -0.2141  0.1268 -0.3839
30147W        W46408   6.950  19.301   4.239  0.1278  0.0281  0.0197
30148W        W46409  13.969   7.523  11.550  0.1019  0.1278  0.3047
30149W        W46410   9.954   7.814  13.712 -0.0410 -0.0549  0.0962
30150W        W46411  13.372  11.259  12.003  0.1153 -0.2477 -0.2818
30151W        W46412  10.471  16.429  10.372  0.4849  0.1317  0.1571
30152W        W46413   7.420   0.231   0.529 -0.0485  0.2068 -0.4138
30153W        W46414  11.194  15.197  11.377 -0.0007 -0.1886  0.0374
30154W        W46415  12.710  13.679   5.152 -0.1268  0.2850  0.1146
30155W        W46416  15.616   6.939  11.652 -0.2313 -0.7468  0.0284
30156W        W46417  10.195  10.017  14.415 -0.0787  0.0344 -0.1950
30157W        W46418   9.155   1.236   2.657  0.1160  0.0311  0.0350
30158W        W46419  12.772   1.916  12.413  0.1167 -0.0868  0.1912
30159W        W46420  15.655  10.340  13.579 -0.1738 -0.0371  0.0217
30160W        W46421   1.592  16.051   3.493 -0.1326 -0.0577 -0.1039
30161W        W46422  12.834  12.016  10.129 -0.2811 -0.1373  0.0013
30162W        W46423   2.293   6.339   3.444 -0.1822  0.1764 -0.1147
30163W        W46424   9.496  17.398   4.154 -0.0378  0.1550 -0.1744
30164W        W46425   5.955  12.911   9.644 -0.2417  0.0393  0.0857
30165W        W46426   8.890   6.114  12.241  0.2798 -0.0452 -0.4190
30166W        W46427   3.104  18.352   4.508  0.1384 -0.0059 -0.2166
30167W        W46428  16.937   1.230   0.170  0.1890 -0.1839  0.2741
30168W        W46429  11.724  17.806  13.319  0.1441 -0.0005 -0.2803
30169W        W46430   2.812   1.786   2.177 -0.1513 -0.2836  0.1404
30170W        W46431  18.499  15.802  13.135  0.0711 -0.2578 -0.2551
30171W        W46432  15.432  16.211   1.227 -0.2212  0.2222  0.0793
30172W        W46433  15.693  15.615  11.191 -0.0005  0.2915  0.3098
30173W        W46434   9.519   0.203   2.546  0.1940 -0.2791 -0.0415
30174W        W46435  18.909  12.347   4.876 -0.0143 -0.3226 -0.0151
30175W        W46436   4.589  19.225   1.372  0.2312  0.0449  0.2228
30176W        W46437   0.664   7.601  12.166 -0.1124 -0.0746 -0.0755
30177W        W46438   0.596   4.240  11.439  0.3524  0.2670  0.2346
30178W        W46439   6.384  13.047  11.204  0.3035  0.1564 -0.0068
30179W        W46440  13.139   0.004  10.851  0.0064  0.1052 -0.3341
30180W        W46441   1.123  12.943   1.132  0.1321  0.0478  0.3122
30181W        W46442   8.718   4.951   9.487  0.1159  0.0835 -0.1158
30182W        W46443  14.611   3.235  14.271  0.0236 -0.2422  0.0771
30183W        W46444  14.459  10.748   4.182  0.0793  0.2709 -0.1094
30184W        W46445  18.846   7.238   1.578 -0.0588 -0.0167  0.0310
30185W        W46446   6.119   8.120  13.242  0.1913  0.0629  0.5917
30186W        W46447  18.863  15.221   2.357  0.1409 -0.3727  0.3781
30187W        W46448   9.234   1.513   4.379 -0.3219 -0.0799 -0.0177
30188W        W46449   1.477  12.152  14.086  0.2223 -0.1396  0.2289
30189W        W46450  11.833  13.303   0.166  0.1159  0.0670  0.1409
30190W        W46451   2.402  11.334  10.542 -0.1331 -0.3213 -0.3125
30191W        W46452  13.230  14.784   5.012 -0.1233 -0.0148 -0.2584
30192W        W46453  16.495  14.145   2.605  0.4559  0.2765 -0.1678
30193W        W46454  18.418   1.703   1.456  0.2009 -0.1937  0.0003
30194W        W46455  13.540   9.410   3.883 -0.0782  0.1252 -0.3400
30195W        W46456   1.158   0.210   2.328  0.1952  0.0096  0.2527
30196W        W46457  10.484   3.342  12.298  0.3013 -0.0433 -0.1434
30197W        W46458   3.276  17.954   0.353  0.1108 -0.2504 -0.2158
30198W        W46459   6.101   5.876   3.101  0.0795  0.0511 -0.2292
30199W        W46460   6.143   9.886  11.026  0.0461 -0.2911  0.0224
30200W        W46461  16.543  13.458  14.371  0.1717 -0.1649 -0.2887
30201W        W46462   2.371  11.927  14.144  0.1243  0.0624  0.2401
30202W        W46463   1.663  11.550   5.048 -0.0078  0.0239 -0.1324
30203W        W46464   9.286   6.335   1.112 -0.2723  0.2686  0.2229
30204W        W46465  11.887   4.535   0.389 -0.0062 -0.1707 -0.1045
30205W        W46466  16.012   5.421   2.806 -0.1735 -0.0700 -0.1667
30206W        W46467  15.821  13.215   9.860  0.0321  0.0168 -0.3142
30207W        W46468  16.241  17.771   3.580  0.0777 -0.2960  0.1390
30208W        W46469   3.589   6.563  13.116 -0.6420 -0.0933 -0.1667
30209W        W46470  15.934   3.351  11.843  0.1581  0.4188 -0.5211
30210W        W46471   5.659  17.129  11.829 -0.0173 -0.1992  0.1168
30211W        W46472  15.130   9.530   0.072  0.2807  0.0262 -0.1460
30212W        W46473   4.434  17.172  14.680  0.0938 -0.1903 -0.0736
30213W        W46474  17.338   8.725  14.279 -0.1272  0.0731  0.3250
30214W        W46475  18.710   3.403   3.206  0.1705  0.1161  0.2279
30215W        W46476   2.730  17.212   5.208 -0.0543 -0.1351  0.0316
30216W        W46477   4.050  12.155  11.594 -0.0869  0.2627 -0.0692
30217W        W46478  17.634  11.592   0.472 -0.0848  0.0334 -0.0301
30218W        W46479   2.420   6.368   2.915  0.2162 -0.2225 -0.3065
30219W        W46480  19.311   2.141  14.404  0.3058 -0.1796 -0.0952
30220W        W46481   8.283   1.154   0.888  0.0409 -0.0187  0.3689
30221W        W46482  14.851  11.653  13.892 -0.1780 -0.2558 -0.1832
30222W        W46483  15.234   4.507  12.942  0.0086 -0.2492 -0.0946
30223W        W46484  10.386   1.531  12.895 -0.2199 -0.2470 -0.0157
30224W        W46485   1.439  15.525   3.505 -0.1700  0.2497 -0.0344
30225W        W46486  19.235  16.379  10.758 -0.1640 -0.2456  0.2830
30226W        W46487   7.845  16.715   3.327 -0.0862 -0.1111  0.2496
30227W        W46488  17.673   7.797  10.765  0.0793 -0.2463 -0.0158
30228W        W46489   9.353   2.839  11.681 -0.0850  0.1299  0.0559
30229W        W46490   2.791   0.414   1.441  0.0242 -0.2455  0.3230
30230W        W46491  12.864   2.321   3.604  0.1449  0.0401 -0.1512
30231W        W46492   7.505   8.936   0.184  0.2109 -0.0741 -0.1728
30232W        W46493   3.010   4.957   2.439  0.0740 -0.3493 -0.0757
30233W        W46494  17.194  10.175   0.219 -0.1212  0.3749 -0.0997
30234W        W46495   5.396   9.270   4.628  0.0662  0.1717 -0.1851
30235W        W46496  16.964   2.971   1.250 -0.3389 -0.1250  0.2975
30236W        W46497  17.259   4.519  11.576 -0.0327  0.2349  0.0812
30237W        W46498   5.758   0.828  10.720  0.4055  0.2665 -0.3104
30238W        W46499  18.883  11.517  14.148  0.0415 -0.0720 -0.1298
30239W        W46500   6.244   5.389   4.523 -0.0192  0.0456 -0.3793
30240W        W46501   4.089   8.963   0.839 -0.0610 -0.1505 -0.0862
30241W        W46502  12.030   5.445  13.742  0.1501 -0.0948 -0.1169
30242W        W46503  17.976   4.722   1.304  0.2021 -0.0877 -0.2108
30243W        W46504  16.397   1.152   0.327 -0.1388 -0.0807  0.0275
30244W        W46505  17.481   9.383   3.641 -0.2450 -0.2086 -0.0137
30245W        W46506   9.684  16.526  14.189 -0.1856  0.2546 -0.2050
30246W        W46507  10.210  15.812  11.052  0.3773  0.1488  0.2073
30247W        W46508  16.230   3.748  12.055  0.3107 -0.1418 -0.1472
30248W        W46509  19.023  17.360  13.933 -0.1850 -0.1138 -0.0498
30249W        W46510   8.127  17.925   2.250 -0.1487 -0.0416  0.2730
30250W        W46511   5.141   6.065  13.440 -0.2331  0.1078 -0.2792
30251W        W46512   2.992  10.694   0.488  0.0164  0.1536  0.1639
30252W        W46513  14.290   7.597  11.149  0.1513 -0.1397  0.1930
30253W        W46514   0.999  15.151  12.209  0.1870 -0.0082 -0.3670
30254W        W46515   7.082   5.825   0.690 -0.2071 -0.1431  0.1126
30255W        W46516  16.079  16.149  13.630 -0.0478  0.1569  0.0947
30256W        W46517   1.970  15.107   1.146 -0.1683  0.0542  0.2378
30257W        W46518   3.531   7.218  13.823  0.5400 -0.2352  0.0335
30258W        W46519  13.439  14.506   3.062  0.0559  0.4818  0.0370
30259W        W46520  13.915   7.637  12.511  0.2111  0.0253  0.1381
30260W        W46521   9.097  13.303   1.555  0.0397 -0.0967  0.0262
30261W        W46522   1.018  16.292   3.298  0.0743 -0.0938 -0.2104
30262W        W46523   7.656  13.580   3.060  0.0960 -0.1870 -0.0786
30263W        W46524  12.105  16.989   2.883 -0.0204 -0.1594  0.2317
30264W        W46525   1.341  14.777  10.561  0.0700 -0.0185  0.2683
30265W        W46526   1.298   0.483  11.829 -0.0182  0.0143 -0.1507
30266W        W46527   8.615  10.323  13.932 -0.2200 -0.1048  0.1511
30267W        W46528   0.511   8.879  11.239 -0.0940 -0.0531 -0.2750
30268W        W46529  14.066  13.216   2.853  0.4174 -0.0571 -0.3438
30269W        W46530   5.020   6.928   3.311 -0.2984 -0.1548  0.1151
30270W        W46531  15.907  13.217   5.675  0.2824 -0.1943  0.0036
30271W        W46532  17.359   0.795   0.118  0.0138  0.1729 -0.0113
30272W        W46533  17.325   5.338   3.031 -0.0227  0.1945 -0.4601
30273W        W46534  12.149  18.470  11.301  0.3764 -0.2265 -0.3510
30274W        W46535  16.041   7.845   5.230 -0.2943 -0.0786 -0.0993
30275W        W46536   2.042   1.135   9.971  0.2526  0.0879 -0.0478
30276W        W46537   9.112  10.547  12.390 -0.1207 -0.1873 -0.1534
30277W        W46538   0.859   4.162   2.590  0.4101  0.1617 -0.0367
30278W        W46539  18.839   7.720   1.371 -0.0535 -0.1213 -0.1105
30279W        W46540  10.921   7.595  11.788  0.3166  0.2979 -0.1719
30280W        W46541   5.864  16.146  10.697 -0.1582 -0.3649  0.2879
30281W        W46542   1.610  10.265   4.932  0.2657 -0.0382  0.0281
30282W        W46543   2.094  15.066  13.610 -0.3637 -0.0211  0.0646
30283W        W46544  13.296  11.064   4.463 -0.0052  0.0673  0.0736
30284W        W46545  13.887   1.131   4.952 -0.1525  0.1801  0.1971
30285W        W46546   1.272   6.890  12.860 -0.2463 -0.1269  0.0608
30286W        W46547   9.012   1.521  14.493 -0.2022 -0.0821 -0.2163
30287W        W46548   8.616   5.000  12.360  0.1038  0.2268  0.0078
30288W        W46549   2.744  16.382   4.971  0.2747  0.2366  0.4218
30289W        W46550   3.473  14.280   0.423  0.3709  0.0530  0.2800
30290W        W46551  17.655   5.128   3.895  0.0789  0.1671  0.0207
30291W        W46552   2.609   7.115   0.103  0.0454 -0.0183 -0.2621
30292W        W46553   0.693  13.270  13.533  0.2426 -0.0761 -0.1162
30293W        W46554  10.501   5.775  12.918 -0.0048 -0.1529  0.0518
30294W        W46555  10.859  16.235   1.108 -0.0341 -0.1658 -0.0446
30295W        W46556  10.054   3.364   0.230  0.0278  0.3334 -0.2057
30296W        W46557  12.341  13.559  10.690  0.0801  0.2326 -0.1975
30297W        W46558   9.404  13.005   4.316  0.3434 -0.0955  0.3313
30298W        W46559  10.039  19.385  10.365 -0.1827  0.1731 -0.2903
30299W        W46560   0.406   7.193  11.547  0.1595  0.0410  0.4172
30300W        W46561  10.557   3.707  13.046  0.1535 -0.6416 -0.0274
30301W        W46562   3.949   2.997  12.921 -0.1939 -0.0752  0.0675
30302W        W46563   4.087  14.516   0.724 -0.0763  0.1025  0.0888
30303W        W46564  14.609   9.234  12.723 -0.1097  0.3346 -0.2058
30304W        W46565   5.183   8.930   1.969  0.3037 -0.3412 -0.0737
30305W        W46566  14.516   4.650   0.312  0.1495  0.0418  0.3416
30306W        W46567   5.974   5.491   3.580  0.2382 -0.2705  0.0174
30307W        W46568   3.764   2.780  14.855  0.0021 -0.0270 -0.2202
30308W        W46569  11.189   7.404   5.500 -0.1901  0.3306 -0.1903
30309W        W46570   4.081  18.522   2.472 -0.3747 -0.1185  0.4246
30310W        W46571  18.045   8.121  13.337  0.1373  0.0626 -0.0349
30311W        W46572  14.158   9.504   1.801  0.0568 -0.3400  0.4024
30312W        W46573   3.335   4.835  12.305 -0.2220 -0.0509 -0.4021
30313W        W46574   8.093  19.210   2.066 -0.3565 -0.0177 -0.0912
30314W        W46575   6.936   4.745   2.979  0.3980  0.0565 -0.0962
30315W        W46576   1.189   9.696   4.363  0.0451  0.1714  0.0209
30316W        W46577   5.105  11.700  13.851  0.0712  0.3171  0.2709
30317W        W46578   7.981  11.763  11.928 -0.1392 -0.2270  0.3619
30318W        W46579  17.364   0.954   5.534  0.0903 -0.0315 -0.0245
30319W        W46580   7.667  15.868  10.457 -0.4470 -0.1057 -0.0605
30320W        W46581   3.695   4.948  12.660 -0.0167  0.3577  0.0047
30321W        W46582  16.388   2.086  13.146  0.2246  0.1029 -0.0953
30322W        W46583  13.412  19.246   0.183  0.1340  0.2073 -0.0516
30323W        W46584  10.366   3.645   2.427 -0.1894  0.3117 -0.1299
30324W        W46585  10.010  13.301  14.628  0.1333  0.4764  0.2678
30325W        W46586   6.334  14.090  14.800 -0.1579  0.1202 -0.2045
30326W        W46587  13.427  17.039   0.606  0.0212  0.1114  0.2271
30327W        W46588   4.098  10.425   4.415  0.3750  0.0895 -0.3146
30328W        W46589  18.372  11.924  13.036 -0.0936 -0.1785  0.0438
30329W        W46590   8.394  14.590  12.567 -0.4263 -0.2128  0.0074
30330W        W46591   2.791   8.611   2.451  0.0159  0.3463  0.1197
30331W        W46592   1.024   1.586   3.082 -0.2413 -0.0178 -0.1373
30332W        W46593  15.416   5.146  12.823  0.0625 -0.1077  0.0340
30333W        W46594   5.869  10.552  13.562 -0.2746 -0.2366  0.4437
30334W        W46595  17.344   3.633  13.682 -0.4152  0.0953 -0.4335
30335W        W46596   4.497   2.772  12.177  0.0198  0.3275 -0.2740
30336W        W46597   4.696  11.859  12.388  0.1696  0.1657  0.0940
30337W        W46598  12.580   0.408  12.374  0.0419 -0.0733  0.2990
30338W        W46599   8.576   4.312   3.708 -0.0151  0.2648  0.2411
30339W        W46600   8.366  13.932   1.420 -0.0087 -0.3066 -0.1498
30340W        W46601  13.195   9.596   3.469  0.2577  0.1283 -0.0526
30341W        W46602   1.953   5.498   0.256 -0.0511  0.0104  0.0169
30342W        W46603   1.597   5.855  13.195 -0.2114 -0.2372  0.1456
30343W        W46604   2.111   2.881   1.789  0.0562 -0.0588 -0.0242
30344W        W46605   7.902  15.497  13.785  0.2518  0.3834  0.2153
30345W        W46606   5.255  11.895  12.463  0.0964  0.1085  0.2428
30346W        W46607  16.583  14.789  11.050  0.1390 -0.2553  0.0981
30347W        W46608   4.633  19.380   3.855 -0.0255  0.0221 -0.3064
30348W        W46609   1.600  16.387   0.161 -0.2249  0.1242  0.2467
30349W        W46610  12.111  10.050   4.655  0.2018  0.1671 -0.1976
30350W        W46611   2.427  16.808   5.080 -0.0308 -0.1651  0.1822
30351W        W46612  15.669   3.959  13.392 -0.1974 -0.3441 -0.0712
30352W        W46613  12.125   6.640   3.566  0.0111  0.0401  0.0932
30353W        W46614  11.226   7.022  14.507 -0.0010 -0.0273  0.1670
30354W        W46615   9.846  11.849  11.600 -0.1973  0.0351 -0.2143
30355W        W46616  17.087  16.206   8.896 -0.2236 -0.1367 -0.1929
30356W        W46617  18.879   1.470   4.147 -0.0724 -0.3029 -0.0806
30357W        W46618  19.196   6.719  13.628 -0.2945 -0.0511 -0.1908
30358W        W46619  19.166   6.279   5.858  0.1000  0.1210  0.0655
30359W        W46620  19.333  13.265   2.354  0.2005  0.1441 -0.0142
30360W        W46621   4.006   5.354  12.515 -0.1060 -0.0717 -0.2181
30361W        W46622   2.532   3.085   1.520 -0.3161  0.2460 -0.2442
30362W        W46623  11.878  18.911  11.105 -0.4109 -0.2000 -0.0052
30363W        W46624   8.668   5.804   0.510  0.0825  0.2550  0.1988
30364W        W46625   0.224  10.203   1.683  0.1205  0.0011 -0.0165
30365W        W46626  12.703  12.262  11.631 -0.0280 -0.0129  0.1866
30366W        W46627  11.316  10.456   1.913 -0.0334  0.2762 -0.1981
30367W        W46628  15.757  12.881  11.589 -0.4518  0.0869  0.0488
30368W        W46629  15.910  11.233  11.300 -0.1611  0.2060 -0.4044
30369W        W46630  17.317   2.672  13.374  0.0148  0.0408 -0.1285
30370W        W46631  12.564   8.411  12.488  0.1126  0.2036  0.1832
30371W        W46632   9.374   4.808   2.445 -0.1693  0.2084  0.0307
30372W        W46633  16.572   9.904   2.590 -0.2228  0.2068  0.0066
30373W        W46634   6.175  12.663   4.264  0.3195  0.0012  0.2334
30374W        W46635   0.729  13.950  11.243 -0.2813 -0.0128  0.0342
30375W        W46636  15.113  15.488  12.782  0.4442  0.1114 -0.0441
30376W        W46637   6.503  11.752   4.596 -0.0883  0.1691  0.0553
30377W        W46638   2.915   7.660   0.781 -0.0620 -0.2169 -0.0802
30378W        W46639  12.515  15.673   3.705  0.0773  0.0005 -0.0148
30379W        W46640   3.260   7.051   9.727  0.0601 -0.0640  0.0455
30380W        W46641  16.591  15.598   9.154 -0.0504 -0.3060 -0.0388
30381W        W46642  18.850  18.529   0.481  0.1041  0.1327 -0.2926
30382W        W46643  17.085   5.871   4.569 -0.1662 -0.1454 -0.2126
30383W        W46644   6.876  17.774   1.525  0.0693 -0.0531  0.0842
30384W        W46645   5.295  14.643   0.930 -0.0316  0.3457  0.1908
30385W        W46646   8.142  13.297   1.937 -0.0793 -0.1513 -0.0945
30386W        W46647   9.990   7.214  13.264  0.1350  0.2030  0.3859
30387W        W46648  17.177  15.088   1.400 -0.1582  0.1251 -0.1401
30388W        W46649   1.338   4.994  12.574  0.1443  0.0724  0.0256
30389W        W46650  16.903  16.366   0.464 -0.0445  0.0789  0.0190
30390W        W46651   0.920  10.019  12.583  0.2598 -0.0084  0.1502
30391W        W46652  13.687   0.337  14.788  0.0364 -0.2921 -0.2691
30392W        W46653  14.428   9.813   2.655 -0.1449 -0.1585  0.3189
30393W        W46654   3.353   1.545   4.686  0.0190  0.0825 -0.0744
30394W        W46655   8.243   6.089  11.882  0.2924  0.1704 -0.1328
30395W        W46656  17.286  18.695   1.201 -0.2671 -0.2681 -0.1806
30396W        W46657   1.661   8.300  11.312 -0.2869 -0.3137 -0.4375
30397W        W46658  12.536   2.284   0.568  0.2340 -0.2056  0.0745
30398W        W46659  10.380   7.576  12.642  0.3470  0.1133 -0.0469
30399W        W46660  14.238   2.915   3.215  0.0556 -0.1339  0.1966
30400W        W46661   0.311  11.253  12.593 -0.1845  0.0280 -0.4036
30401W        W46662   7.331  15.625   3.685 -0.0657  0.0556 -0.1413
30402W        W46663   4.826  16.703   2.871 -0.0260  0.5387  0.1126
30403W        W46664   0.177  12.471   1.921 -0.0201  0.2179 -0.0244
30404W        W46665  13.621  10.501  12.759  0.3065  0.2998  0.1958
30405W        W46666  12.374  16.620   4.671 -0.2250 -0.4192  0.2283
30406W        W46667  17.835  17.532  11.415  0.0889 -0.0170  0.3055
30407W        W46668   5.594  15.154   4.933 -0.2729  0.0226  0.0522
30408W        W46669  13.392  18.720   2.691  0.0231 -0.0981  0.1420
30409W        W46670  10.503   0.678   1.250 -0.3281  0.0856 -0.2193
30410W        W46671  16.967  19.035  14.760  0.1562 -0.1116 -0.0138
30411W        W46672  11.805  18.201   0.171 -0.2373  0.1124 -0.1197
30412W        W46673   5.488   8.818   3.259  0.2454  0.2580  0.0191
30413W        W46674  13.377  11.890   4.725 -0.2231  0.1849 -0.0162
30414W        W46675  13.318   1.254  10.505 -0.2287 -0.5853  0.2199
30415W        W46676   1.737  17.410   4.375  0.0066 -0.2997  0.3643
30416W        W46677  10.320  15.929   4.298  0.2684 -0.3211 -0.0109
30417W        W46678  13.583   7.969  11.841  0.1743  0.1745 -0.1438
30418W        W46679  13.527  17.865  12.793  0.1036  0.2876 -0.0803
30419W        W46680   4.066  10.239  13.741  0.1204  0.1523  0.1475
30420W        W46681  18.934   0.668   0.234  0.4152 -0.2448 -0.0609
30421W        W46682  11.572  10.419   1.400  0.3880 -0.0812  0.2785
30422W        W46683  12.450  11.135  12.129  0.0893 -0.2525 -0.1185
30423W        W46684  15.536   6.651   1.352  0.0037  0.2071 -0.1598
30424W        W46685  14.036   7.792   9.918  0.0672  0.2871  0.0850
30425W        W46686  10.394  11.782   3.163 -0.1721 -0.4128  0.2563
30426W        W46687  15.223  19.257   9.220  0.1786  0.2210 -0.3690
30427W        W46688   4.618  18.055   4.658 -0.0124 -0.4173  0.2182
30428W        W46689  17.790   2.263  11.720 -0.1684  0.0607  0.1163
30429W        W46690   7.774   8.545   4.920 -0.1143 -0.0229  0.5064
30430W        W46691   6.931  19.238  13.526 -0.0771  0.1947  0.0803
30431W        W46692  14.926   4.161  13.708  0.4487 -0.2530  0.0538
30432W        W46693  18.369   3.684  11.365  0.3592 -0.0518  0.3101
30433W        W46694   4.779   1.405   2.590 -0.5218  0.1080  0.2118
30434W        W46695   1.983  12.889  11.034  0.0469  0.2556  0.2046
30435W        W46696  11.570   3.409  13.164  0.0374 -0.2331 -0.2168
30436W        W46697  16.005   9.434   1.022 -0.1509  0.1583 -0.0783
30437W        W46698   4.357   5.330  13.279 -0.2960  0.1696 -0.0840
30438W        W46699   1.326  12.927  13.901 -0.2448 -0.0862 -0.1550
30439W        W46700  15.464   9.878  13.665  0.3620  0.1472  0.0399
30440W        W46701   8.847  19.397  13.285 -0.2023  0.0547  0.0176
30441W        W46702  16.894   9.240   4.636 -0.2165  0.0553 -0.2406
30442W        W46703  11.316  11.879   9.587 -0.1429  0.1089 -0.1325
30443W        W46704   2.059  11.078  11.374 -0.1605 -0.2535 -0.0595
30444W        W46705  11.594   9.681  10.912  0.3123 -0.0772 -0.0628
30445W        W46706   1.291  13.845   4.512 -0.0237  0.0931  0.1825
30446W        W46707   1.658  12.700   3.936  0.2215 -0.0826 -0.1724
30447W        W46708  11.220   9.717   0.945  0.2332  0.1191 -0.3744
30448W        W46709  13.952  14.573   3.346 -0.1121  0.1939  0.0691
30449W        W46710   5.390  15.734   0.840 -0.1287  0.4118  0.4054
30450W        W46711  15.413   6.252   0.940 -0.3280  0.1690 -0.2349
30451W        W46712   3.195   3.434   0.329 -0.1306 -0.2789  0.1122
30452W        W46713   0.483   0.070   1.661 -0.0560  0.1272  0.0988
30453W        W46714  11.936  16.691   3.821 -0.0468  0.2117  0.3848
30454W        W46715  13.942  10.170  12.878  0.0574  0.2787  0.1032
30455W        W46716   3.629   9.133   1.596  0.1479  0.2370 -0.1395
30456W        W46717  13.291  14.498   0.017  0.0777 -0.0302  0.2222
30457W        W46718  12.068  13.780  10.311  0.1203  0.0793  0.1280
30458W        W46719   6.744   8.896   3.501 -0.0430  0.0289 -0.0606
30459W        W46720  14.894   5.341  12.770  0.0558 -0.1608  0.1208
30460W        W46721  19.157  17.058  11.403  0.0797 -0.1932  0.1132
30461W        W46722   9.776   3.520   2.480 -0.0109 -0.1893  0.0280
30462W        W46723  16.081  17.142   5.042 -0.1167 -0.1078  0.0091
30463W        W46724   8.701  13.745  13.629 -0.1981 -0.3024  0.0952
30464W        W46725  14.134   9.481   3.522  0.0119 -0.0961 -0.1732
30465W        W46726   7.394  18.554  14.241 -0.2381 -0.0340 -0.0381
30466W        W46727   4.562   0.800   1.668  0.0103 -0.1520 -0.1755
30467W        W46728   6.289   0.088   0.557  0.1418 -0.3003  0.1917
30468W        W46729   3.913   9.715   0.295  0.0827 -0.0663  0.1998
30469W        W46730  10.053   8.619   1.591 -0.1413 -0.0528 -0.3081
30470W        W46731  17.248  19.397  14.533 -0.1412  0.2491  0.1282
30471W        W46732   4.950  12.267  12.684 -0.0943  0.1450 -0.2155
30472W        W46733   6.615  14.655  12.276  0.1025 -0.1315  0.0862
30473W        W46734   5.615   8.594   0.398 -0.0969  0.0540 -0.0545
30474W        W46735   0.388  18.183   2.129 -0.2364 -0.0661  0.3065
30475W        W46736  18.914  15.823  13.527 -0.4557 -0.0343 -0.0651
30476W        W46737   6.412  17.079   2.127 -0.0345  0.0416  0.0140
30477W        W46738  13.460   5.655   3.543  0.3339  0.0204 -0.0709
30478W        W46739  14.811   3.092   1.863  0.0991 -0.1339 -0.0126
30479W        W46740  14.577  12.109   4.294  0.5471  0.0432 -0.0980
30480W        W46741  18.822  17.350  11.616 -0.2898  0.0256 -0.1170
30481W        W46742   1.152  12.114  14.535  0.0356 -0.1692  0.2969
30482W        W46743  11.215   8.403   3.756  0.0554  0.1056  0.0342
30483W        W46744  10.830   7.410   2.305  0.1688 -0.2682 -0.0877
30484W        W46745   0.581  10.481   0.765 -0.1775  0.1740  0.1013
30485W        W46746   1.250  10.182   5.295 -0.2006  0.0982  0.1407
30486W        W46747  10.839  18.369  14.032  0.0347 -0.2310  0.0005
30487W        W46748  19.337  14.867   0.442  0.1250  0.2982 -0.2729
30488W        W46749  13.215   8.970  12.720  0.0879 -0.3089 -0.5609
30489W        W46750   6.258   9.533   4.857  0.0963 -0.3699  0.0331
30490W        W46751   0.606   5.257  14.802  0.1955 -0.1760  0.3614
30491W        W46752  15.433  19.262  12.601  0.0418 -0.2563 -0.0290
30492W        W46753   4.633   2.419   5.708 -0.2002 -0.3837 -0.4375
30493W        W46754   1.417   8.697  10.101  0.0353  0.2368 -0.3075
30494W        W46755   3.697   5.163  12.214  0.0969 -0.1317 -0.1790
30495W        W46756   7.238   5.632  10.540  0.1713 -0.2491  0.2101
30496W        W46757  19.368  16.508   0.765  0.0455 -0.0833 -0.0687
30497W        W46758  17.737  11.169   2.920  0.1080 -0.0967  0.2024
30498W        W46759   8.562   8.843  10.682  0.3449 -0.1537  0.1246
30499W        W46760   3.558   2.125   1.712 -0.2920  0.1215 -0.0419
30500W        W46761  18.394  19.281  11.458  0.1301  0.1127 -0.3572
30501W        W46762   7.085   2.480  10.176  0.3327 -0.3573 -0.0100
30502W        W46763  14.238   1.107  11.194  0.1487  0.4034  0.1656
30503W        W46764  15.587   5.853  14.650 -0.0602 -0.0309  0.1019
30504W        W46765  16.755   0.258   0.485  0.1728  0.0961 -0.2134
30505W        W46766  12.645   9.297  11.659 -0.5638 -0.0116 -0.5402
30506W        W46767  13.971  11.653   1.436 -0.0717  0.1192 -0.2531
30507W        W46768  12.934   1.821   2.185  0.0785 -0.0296  0.3204
30508W        W46769  17.233   2.621   1.705  0.0147  0.3038  0.3122
30509W        W46770  18.336   5.780   0.247  0.4302  0.1084 -0.0829
30510W        W46771  16.274   7.599   2.345  0.3236 -0.0667  0.0724
30511W        W46772  12.861   3.813  14.388 -0.0255 -0.0014  0.0555
30512W        W46773   9.578   0.062  10.608  0.0006 -0.1092 -0.2886
30513W        W46774   6.840  15.612   4.830  0.1773  0.0455  0.2211
30514W        W46775  11.800   2.689   5.249  0.0087 -0.1661  0.1454
30515W        W46776   0.856   8.440  13.972 -0.2672 -0.1704  0.3223
30516W        W46777   6.984  15.717  12.558 -0.0754  0.0604 -0.1546
30517W        W46778  18.443   5.115  11.351  0.1297  0.0275 -0.1771
30518W        W46779   1.820  11.221  10.364 -0.0571  0.1688 -0.0483
30519W        W46780   2.449  14.245  14.070 -0.2265  0.1080 -0.2673
30520W        W46781   5.867   7.274  14.734 -0.2007  0.1390  0.1232
30521W        W46782  19.195   5.662   3.035  0.1116  0.4762  0.1292
30522W        W46783   1.502  18.258   0.212 -0.0823  0.0067  0.2655
30523W        W46784   6.410   5.497   0.468 -0.2060 -0.2135  0.0836
30524W        W46785  11.261  14.282  13.459 -0.1338  0.0144 -0.0024
30525W        W46786  18.150  13.458   1.485  0.0664 -0.1458  0.0268
30526W        W46787   7.550   4.221   2.653 -0.1543 -0.3298  0.0668
30527W        W46788   6.261   8.103   5.090 -0.1318  0.0755 -0.1746
30528W        W46789  14.007   9.241  14.590  0.1436 -0.2049  0.1405
30529W        W46790   9.583   7.722  10.855 -0.1634 -0.0860 -0.0292
30530W        W46791  13.129  13.710   0.451 -0.4534  0.2195 -0.0801
30531W        W46792  10.715  11.135   3.327  0.2621  0.0044  0.1036
30532W        W46793  15.237   6.439  12.993  0.1998  0.0802  0.2298
30533W        W46794   3.230  17.880   4.442  0.1351 -0.2362 -0.0746
30534W        W46795   1.655  12.680   9.305  0.0312  0.2756  0.0548
30535W        W46796   0.464  10.901   1.162  0.0260  0.3987 -0.2118
30536W        W46797   3.134   0.654  13.041  0.6028 -0.0955  0.1899
30537W        W46798  12.171   5.368   0.117  0.0647  0.0606  0.1505
30538W        W46799  17.473   7.913  11.323 -0.0094  0.0193  0.0339
30539W        W46800  17.828   1.584  13.601  0.2549  0.1799 -0.2141
30540W        W46801  16.478   4.133  12.817  0.0608  0.1925 -0.2760
30541W        W46802   3.338   9.828  14.225 -0.0735 -0.0377 -0.1685
30542W        W46803  19.099  14.070  14.123  0.0119  0.1120  0.0745
30543W        W46804  10.484  14.070   4.684  0.1686  0.1485 -0.1227
30544W        W46805  10.530   9.869   4.332 -0.0081 -0.2032 -0.0874
30545W        W46806   2.102   1.678  13.608 -0.2067 -0.0725  0.0226
30546W        W46807  15.231  13.860  12.719 -0.0125  0.0572 -0.1468
30547W        W46808  13.551  18.248  13.638  0.3176 -0.0571  0.4181
30548W        W46809  17.804  12.672   1.758 -0.0272 -0.0536 -0.2214
30549W        W46810   8.662  17.906  12.799 -0.2092  0.3362 -0.2163
30550W        W46811  16.914   1.459  14.603 -0.2836 -0.2172 -0.1163
30551W        W46812  12.057  19.366   0.406  0.5361  0.1399  0.1682
30552W        W46813   3.041   6.080   5.201  0.0767  0.1804 -0.0993
30553W        W46814  10.544  17.700   1.428  0.0927  0.1915 -0.2733
30554W        W46815   0.685  13.751  14.838  0.0739  0.1256  0.1436
30555W        W46816   7.348   7.026  11.079 -0.1873  0.0985 -0.1001
30556W        W46817  14.089  16.154   1.540  0.1039  0.3617  0.0749
30557W        W46818  15.568  16.010  12.880 -0.0037 -0.2479 -0.1997
30558W        W46819  14.626   8.651  11.936  0.3611 -0.2522  0.3505
30559W        W46820   6.000   6.057  14.876  0.0353  0.2121  0.0726
30560W        W46821  17.686  17.526   2.776 -0.2174  0.0672 -0.0802
30561W        W46822  12.205   2.343   3.202  0.2540 -0.1332  0.0012
30562W        W46823   5.990   9.920   5.036  0.3184 -0.1113  0.1958
30563W        W46824   4.108   9.701  13.837  0.2055  0.0129  0.2150
30564W        W46825  11.921  16.933  14.715 -0.1571  0.0368  0.1287
30565W        W46826   7.072   5.355  12.629  0.1219  0.0987 -0.0372
30566W        W46827   1.665  10.046   2.055 -0.1991 -0.1092  0.0769
30567W        W46828   2.851   7.390   2.609  0.0215  0.1130  0.2661
30568W        W46829  14.777  14.103   0.382  0.2760  0.0317 -0.2754
30569W        W46830  17.919   2.452  14.148  0.2689 -0.0572  0.0046
30570W        W46831  18.038  14.833   1.358 -0.1551 -0.1928 -0.1583
30571W        W46832  11.635  18.615   3.122  0.2003  0.0017 -0.2531
30572W        W46833   2.522  16.252   2.264 -0.3609 -0.2690  0.0155
30573W        W46834  12.409   8.506  11.129  0.0083 -0.2815 -0.1977
30574W        W46835  16.247   5.437   5.026  0.1234 -0.2448  0.2323
30575W        W46836  18.275  11.617   4.719  0.0378 -0.0033 -0.1397
30576W        W46837  18.890  11.186  11.076 -0.0837  0.2371 -0.2723
30577W        W46838  19.439  13.383   3.734  0.1022 -0.0300  0.1549
30578W        W46839   5.606   9.376   1.600  0.2700 -0.1210 -0.0316
30579W        W46840  11.535  14.959   2.472 -0.1806 -0.1537  0.3650
30580W        W46841   5.949   8.727   3.348  0.1695  0.1611 -0.1720
30581W        W46842  18.102   4.941   0.829 -0.1426 -0.1595 -0.0546
30582W        W46843   9.544  18.476  14.327  0.0633  0.2747  0.1585
30583W        W46844   9.813  13.079   2.402  0.0415  0.2395  0.1607
30584W        W46845   8.379   0.644   3.334 -0.0995  0.0440  0.2066
30585W        W46846   2.643   7.330   4.935 -0.1013 -0.1319  0.0278
30586W        W46847  13.390   0.700   0.716  0.1152  0.1388 -0.2541
30587W        W46848   7.817  11.594   0.051 -0.2566 -0.0260 -0.0831
30588W        W46849   5.955  13.575  14.760 -0.3194  0.1012 -0.1512
30589W        W46850  13.015   5.567  10.471  0.1456 -0.0242  0.2116
30590W        W46851   8.136   2.262  13.751  0.1277 -0.0515 -0.1299
30591W        W46852   0.553   6.618  13.985 -0.0268  0.2586  0.0038
30592W        W46853  14.279  11.667  10.630 -0.1562 -0.0488  0.2226
30593W        W46854  17.334  13.776  14.270  0.0342  0.0830 -0.3400
30594W        W46855   5.979   8.619   4.724 -0.2380 -0.1013  0.0398
30595W        W46856   3.081  15.372  13.881 -0.0601 -0.0924  0.1571
30596W        W46857   3.392  12.385  14.810  0.1506 -0.0314 -0.0614
30597W        W46858   3.324  12.054   1.357 -0.0800 -0.1780  0.0939
30598W        W46859   8.138  14.605   0.808  0.0527  0.1455 -0.1520
30599W        W46860  17.027   7.209   4.476 -0.1788  0.1086  0.2274
30600W        W46861   3.225   7.412  14.178  0.0978  0.1146 -0.0630
30601W        W46862   4.187   7.404  11.657 -0.1299 -0.0595 -0.1122
30602W        W46863   8.892  14.394  12.306 -0.0146  0.0538  0.0819
30603W        W46864   4.197  13.433   3.779  0.2145  0.0032  0.0391
30604W        W46865  12.434  19.030   0.624  0.0208  0.2300  0.3829
30605W        W46866   4.746   1.962  14.064 -0.2754  0.0450  0.0283
30606W        W46867   0.358  13.182  13.888  0.0196 -0.5460  0.2368
30607W        W46868   7.536  19.069  12.411 -0.2418 -0.3666  0.5219
30608W        W46869  17.313   8.574   1.184 -0.3946  0.1798 -0.1466
30609W        W46870   1.826  11.595   2.896 -0.2582 -0.3838 -0.1481
30610W        W46871   8.740   3.710  10.666 -0.0873 -0.0788 -0.2117
30611W        W46872   4.715  11.238   3.252 -0.3083  0.3230  0.2629
30612W        W46873   7.094  13.951  11.163  0.1244 -0.0443 -0.0542
30613W        W46874   5.157   4.997   1.188 -0.3253  0.0794  0.1017
30614W        W46875   5.185   3.923  10.593  0.1552 -0.2471 -0.1184
30615W        W46876  16.306   3.989   1.399  0.0949  0.0219  0.1725
30616W        W46877  16.781  16.426   4.388 -0.1304  0.2170  0.3267
30617W        W46878  18.154   6.597   3.988 -0.0313 -0.1748 -0.1274
30618W        W46879  13.684   8.675   2.966 -0.0176  0.0283 -0.2575
30619W        W46880   1.981   3.481   0.249 -0.1901  0.2651 -0.1139
30620W        W46881  13.863  15.563  11.689 -0.0635  0.2015  0.1013
30621W        W46882   6.019  11.396   2.435 -0.3790 -0.0887 -0.4229
30622W        W46883  15.567   3.390  10.649 -0.0245 -0.1065  0.0771
30623W        W46884  12.462  19.044  13.324  0.0061  0.0608 -0.0739
30624W        W46885   0.426   0.255  11.621 -0.0534  0.5594 -0.1981
30625W        W46886   0.261   6.055  12.073  0.2828 -0.0259 -0.0363
30626W        W46887  15.473  15.812   2.597 -0.0387  0.0196  0.3605
30627W        W46888  11.572  14.992  14.817  0.0373 -0.1800  0.0880
30628W        W46889   5.412  12.554   3.879  0.0826 -0.1502 -0.1975
30629W        W46890  18.717   5.125   1.475 -0.2530 -0.0243  0.2511
30630W        W46891   8.442  10.202   3.276  0.2103  0.1444  0.1000
30631W        W46892   8.780  15.619   4.520  0.0101 -0.1764 -0.2644
30632W        W46893  18.359  15.409  11.248  0.2106  0.0747  0.1542
30633W        W46894   9.257   7.616  10.047  0.1711 -0.2568  0.0034
30634W        W46895  17.397  13.041   4.208  0.3128 -0.2218 -0.0376
30635W        W46896  19.431  14.474   3.527  0.1437  0.0956  0.2671
30636W        W46897   0.262  13.720  13.586  0.2127 -0.1794 -0.1496
30637W        W46898  19.015  16.392  14.301 -0.1031 -0.1124 -0.0330
30638W        W46899   3.830   5.987  12.568 -0.3812  0.0829  0.3448
30639W        W46900  12.322   4.205   1.534 -0.1581  0.4539 -0.0668
30640W        W46901  17.420   4.655   2.591 -0.2006  0.0258  0.0521
30641W        W46902  14.473   7.856  13.215  0.0759 -0.0258 -0.1421
30642W        W46903  17.541   1.378  14.789 -0.0273 -0.3312 -0.1419
30643W        W46904   3.453  10.811   2.292  0.0399  0.1151  0.1563
30644W        W46905   3.611   3.505   0.740 -0.0262 -0.0207 -0.1790
30645W        W46906   6.932  13.675   4.114 -0.1402  0.0136 -0.1734
30646W        W46907  19.440  15.764  13.378  0.0496 -0.2235 -0.1853
30647W        W46908   1.644   6.920  14.672  0.0015 -0.1917 -0.0414
30648W        W46909  10.751   6.628  14.594  0.2458 -0.0799 -0.0524
30649W        W46910   8.473   7.110   2.878  0.0912 -0.0985  0.4616
30650W        W46911  16.742   9.228   5.672 -0.1054  0.3277  0.0325
30651W        W46912  16.219  15.196   0.093 -0.0797  0.0386  0.1122
30652W        W46913  17.437  17.274   1.931  0.0760 -0.1023 -0.2641
30653W        W46914   2.945   5.077  13.601 -0.1823 -0.1097 -0.2271
30654W        W46915   1.235  17.549   0.523  0.0513  0.0162 -0.2568
30655W        W46916  18.235   5.978  12.121 -0.0412 -0.0542 -0.1622
30656W        W46917  18.169   7.805  13.729 -0.1764 -0.1519  0.0443
30657W        W46918   9.280  17.793   1.112  0.3191  0.0679 -0.0213
30658W        W46919   3.523  16.944   5.414  0.2378  0.0418 -0.0056
30659W        W46920  15.627   5.997   3.370 -0.1487 -0.3354 -0.2273
30660W        W46921  17.134   3.223   2.425 -0.2424 -0.1257 -0.2273
30661W        W46922  17.467   0.818  12.242  0.1425 -0.0256  0.0972
30662W        W46923  15.994  16.239  11.537  0.0990  0.0039 -0.0474
30663W        W46924  12.780  12.772  13.089 -0.1222  0.0820 -0.1427
30664W        W46925   2.552  10.604   5.060  0.1742 -0.1562  0.2136
30665W        W46926   9.679  14.490   1.296  0.3418 -0.2175 -0.0711
30666W        W46927   4.503   3.208   0.762 -0.0100  0.0904  0.1451
30667W        W46928   4.284   4.235   2.011  0.2809 -0.4008  0.0199
30668W        W46929   8.478  19.138   0.090  0.0272 -0.0057 -0.1578
30669W        W46930   2.454  16.662   4.588 -0.3033  0.0577 -0.1084
30670W        W46931  13.010  15.762  14.795  0.2955  0.1481  0.0446
30671W        W46932  17.949  17.730   1.211  0.0333 -0.0236 -0.0611
30672W        W46933  10.445  16.404   4.295  0.1942 -0.4426  0.2091
30673W        W46934   6.387   8.846   4.511  0.0009  0.0808  0.0385
30674W        W46935   2.206  15.234   0.736  0.0514 -0.1247  0.3752
30675W        W46936   2.153  18.364   1.621 -0.1192  0.2261 -0.0282
30676W        W46937  17.875  14.324   0.567 -0.0719 -0.0144  0.1160
30677W        W46938  10.968   0.312  11.229  0.0797 -0.1619  0.0792
30678W        W46939   2.980   3.608  11.881 -0.2505 -0.3228  0.2869
30679W        W46940  16.523  13.075  12.909  0.0356  0.3729  0.4206
30680W        W46941   9.540   2.600   5.329 -0.3306 -0.1748 -0.0851
30681W        W46942  18.020  15.246   2.243  0.1303 -0.3481  0.0654
30682W        W46943   7.401  10.269   4.688  0.0437 -0.4254 -0.1067
30683W        W46944  17.342   3.680  11.879 -0.1243  0.1897 -0.0534
30684W        W46945   4.521   8.988  12.705 -0.0500  0.4601  0.1098
30685W        W46946  11.291   9.832  11.288  0.0389 -0.0009  0.1101
30686W        W46947   2.985  13.112  12.400  0.0047  0.0706  0.3322
30687W        W46948  16.111   5.580  14.142  0.1416  0.0361  0.0681
30688W        W46949   6.026   5.530  11.190 -0.0209 -0.1141  0.2426
30689W        W46950  10.213   2.049   0.817 -0.1111 -0.0874 -0.0218
30690W        W46951  13.439  10.961  11.214  0.0694  0.2076  0.1437
30691W        W46952  19.441   9.682  13.436 -0.0438 -0.2467 -0.0803
30692W        W46953   0.633  18.132  14.674 -0.2101  0.0817 -0.2043
30693W        W46954  11.147  16.572  12.477 -0.2022  0.2606 -0.0551
30694W        W46955  13.617   1.568   4.272  0.2172 -0.2913 -0.0765
30695W        W46956   2.869  17.776   3.790 -0.0728 -0.3151  0.2287
30696W        W46957   3.279   9.665   3.160  0.0178 -0.0933 -0.3441
30697W        W46958  14.375   0.309   2.298  0.0932 -0.0146  0.2089
30698W        W46959  13.225  11.491  13.247  0.3139 -0.0747  0.2516
30699W        W46960   8.665   9.434   0.446 -0.1642 -0.1721 -0.0098
30700W        W46961  13.974  10.601  11.772  0.0756  0.1319 -0.0407
30701W        W46962   9.766   6.776  10.648 -0.1112  0.0547  0.1142
30702W        W46963   0.787   2.135   3.203 -0.1736 -0.3682  0.1384
30703W        W46964   9.333   4.398   1.158 -0.3130 -0.0303 -0.0707
30704W        W46965  12.924  16.924   0.635 -0.2289 -0.0110 -0.4679
30705W        W46966   8.275   1.487   1.309 -0.0206  0.1786  0.0698
30706W        W46967   9.393   9.595   0.570 -0.1941 -0.0374  0.0139
30707W        W46968  15.425  12.127   3.713  0.1930 -0.0548  0.0320
30708W        W46969   9.031   2.237   3.244  0.1397 -0.0543 -0.0313
30709W        W46970  15.786  16.078  10.192  0.0871 -0.2718 -0.1179
30710W        W46971  18.250   9.014  10.318  0.1119 -0.4650 -0.1878
30711W        W46972   7.090   1.127   1.963  0.1348 -0.0599  0.5098
30712W        W46973   4.283  13.745  13.828  0.2914  0.2504 -0.0367
30713W        W46974  12.646   7.602   1.045  0.1448  0.0457 -0.0663
30714W        W46975   1.686   0.406  13.313  0.2703 -0.3162  0.1035
30715W        W46976   9.055  12.122  10.957 -0.3650 -0.1164 -0.1684
30716W        W46977  18.228  15.554   0.839 -0.0425  0.0036  0.3865
30717W        W46978   6.945  11.549   4.485 -0.1254 -0.1615  0.3021
30718W        W46979   0.087  14.009   1.314 -0.1667  0.3630 -0.0124
30719W        W46980   3.768   8.653   4.627 -0.1120  0.0480  0.0569
30720W        W46981   7.350   7.706  13.081 -0.1929 -0.4813  0.1445
30721W        W46982   0.136  18.924  14.397  0.1643 -0.4020  0.6315
30722W        W46983   0.240  15.607  12.597 -0.0637  0.1703  0.1469
30723W        W46984   4.408   5.341   0.343  0.0251 -0.2431 -0.0474
30724W        W46985  12.902   5.888   3.039 -0.1804  0.2347 -0.0866
30725W        W46986   1.034   3.107   4.730 -0.1829  0.0752  0.2382
30726W        W46987  12.107   8.411  13.374 -0.2858 -0.2036  0.1283
30727W        W46988  11.008   6.676  11.190  0.2399  0.2688  0.1979
30728W        W46989   3.503  18.684  14.012 -0.0283  0.1383  0.3133
30729W        W46990  13.507   3.912   4.361  0.1039 -0.1741  0.2384
30730W        W46991  19.187  11.842  12.368 -0.1074  0.0824 -0.0795
30731W        W46992  15.909   0.741   1.948 -0.0478 -0.1668 -0.0808
30732W        W46993   3.855  16.699   0.272  0.0915  0.0461 -0.2308
30733W        W46994   2.739   1.268   2.414 -0.6500 -0.0867  0.1445
30734W        W46995  17.091  16.847  14.878  0.0984  0.0781 -0.1697
30735W        W46996   9.011   6.930  10.809  0.1407  0.0098  0.0128
30736W        W46997   4.291  13.566  13.321 -0.2185  0.0624 -0.2943
30737W        W46998  15.819   5.761   0.796  0.0057  0.2249 -0.2767
30738W        W46999  19.401   2.333   1.557 -0.0725 -0.0339 -0.1062
30739W        W47000   1.288   0.234  13.705 -0.0957  0.0308  0.2386
30740W        W47001  11.566  18.556  10.694 -0.0243 -0.1455 -0.1307
30741W        W47002   6.872  17.555   0.527  0.5669 -0.1973  0.2983
30742W        W47003   7.619   3.454  14.814 -0.1694  0.3003  0.3337
30743W        W47004  11.274  15.037   0.771  0.2138 -0.0712  0.1366
30744W        W47005  18.063  10.475  12.850 -0.1468 -0.2792  0.1272
30745W        W47006  12.957  10.219  10.532  0.0387 -0.0510  0.1155
30746W        W47007  17.228   2.841   3.777 -0.3048  0.0675  0.2468
30747W        W47008  16.867  11.156   2.616 -0.2018 -0.0109  0.1071
30748W        W47009  11.804  13.212   2.565  0.3202  0.0542 -0.0544
30749W        W47010  13.354   4.438   1.508  0.2610  0.0932 -0.0372
30750W        W47011  14.074   8.103  11.122  0.1709  0.3827  0.1820
30751W        W47012  18.692  12.324   1.589  0.2240 -0.0566 -0.1403
30752W        W47013  16.726   0.790  11.217 -0.4525  0.1193  0.0649
30753W        W47014   0.257  10.497  10.162  0.0114 -0.1220  0.0699
30754W        W47015  13.184  12.043  13.735  0.2758 -0.5942 -0.1275
30755W        W47016  19.124   1.275   4.999  0.0954 -0.3113  0.1316
30756W        W47017   5.448  15.847  13.121  0.4375  0.0718 -0.1566
30757W        W47018   0.157  15.422   9.721 -0.0498 -0.1364 -0.1231
30758W        W47019   2.674   6.011   2.585  0.1140  0.0468 -0.1024
30759W        W47020  13.342   3.103   1.881  0.0373  0.0644  0.1771
30760W        W47021   0.912  15.225   2.386  0.0305 -0.0520 -0.2232
30761W        W47022  15.087   8.592   4.047  0.1073  0.0624 -0.0159
30762W        W47023  13.099  14.553   2.591 -0.2354  0.0669 -0.0304
30763W        W47024   8.914  14.383  10.780  0.0917 -0.2074 -0.1858
30764W        W47025  18.610   6.496  13.039 -0.0077  0.3224  0.1863
30765W        W47026  18.645  16.810   0.577 -0.2595  0.1067 -0.1300
30766W        W47027   4.402   3.927   2.850  0.1386  0.2543 -0.2645
30767W        W47028   2.480   3.463   0.369 -0.1609  0.0432  0.0726
30768W        W47029   9.628  14.819  10.816  0.1029 -0.2712 -0.2179
30769W        W47030  14.617  16.578  10.180  0.1087  0.1211 -0.4083
30770W        W47031   5.613   5.027   1.920 -0.1470 -0.1701 -0.2248
30771W        W47032   7.398   2.637   1.891 -0.2087 -0.1057  0.1392
30772W        W47033  15.056   1.052   0.103  0.1946 -0.1054  0.0678
30773W        W47034   2.507  16.152   0.431 -0.2165  0.2253 -0.0122
30774W        W47035  14.404   8.148   3.770  0.3210 -0.0885 -0.0651
30775W        W47036   2.770  16.960   1.145 -0.1963 -0.1036  0.1386
30776W        W47037  12.309   9.129   0.250 -0.0303  0.3187  0.0664
30777W        W47038  18.332   9.031   0.264  0.1459 -0.0582  0.0113
30778W        W47039  10.545  12.778  12.725 -0.3939  0.0600 -0.1534
30779W        W47040  13.530  15.409  10.741  0.0203  0.0526  0.1318
30780W        W47041   3.380  16.842  10.435  0.0595  0.0652  0.3057
30781W        W47042  16.425   1.340  14.703 -0.3126 -0.0684 -0.0355
30782W        W47043   1.738   8.204  13.244 -0.1126  0.1534  0.1202
30783W        W47044  14.179   0.703   1.955 -0.3631  0.1179 -0.2737
30784W        W47045  11.734  10.867   1.190 -0.1702 -0.0793  0.3710
30785W        W47046  19.247   5.522   3.877  0.1425 -0.0850 -0.3095
30786W        W47047   9.148   5.074  10.377 -0.0015  0.2720  0.1770
30787W        W47048   3.395   2.771   3.450  0.0180 -0.0811  0.1641
30788W        W47049  11.279   0.067  13.430 -0.0805  0.4333  0.2785
30789W        W47050   6.277  10.609   3.818 -0.3649  0.2228  0.3836
30790W        W47051  16.877  18.932   4.160 -0.3969 -0.2520  0.2002
30791W        W47052   4.034  17.078   2.628  0.1775 -0.1832 -0.2307
30792W        W47053  12.068   2.807  12.670  0.0291  0.3997  0.1022
30793W        W47054   4.202   5.620   3.271  0.1391  0.0979  0.0205
30794W        W47055  10.697  12.962  11.899  0.0276 -0.2592 -0.0898
30795W        W47056  18.952  13.698   3.376  0.1673  0.3778 -0.2136
30796W        W47057  17.425  15.905   3.231 -0.3004  0.0995 -0.2550
30797W        W47058   4.809   7.935   5.364 -0.1760 -0.0640 -0.1790
30798W        W47059  15.654  11.600   4.910 -0.0426  0.0248  0.0293
30799W        W47060   5.553  17.998   5.893  0.2275 -0.0577 -0.1797
30800W        W47061  17.216   4.245  11.173  0.3297 -0.0253  0.0318
30801W        W47062   6.348   7.372  14.553  0.1906  0.1975  0.0790
30802W        W47063  16.908   0.181   3.000 -0.2752  0.0376  0.0761
30803W        W47064  10.396  17.263  10.443  0.1978  0.2808 -0.0199
30804W        W47065   3.891  12.683   4.067  0.3127  0.0860 -0.2448
30805W        W47066   7.526  14.604   3.058  0.1271  0.1374  0.1601
30806W        W47067  10.270   4.803   2.449 -0.3958  0.0785  0.0711
30807W        W47068   3.861  11.864   1.090 -0.2121  0.1975  0.0556
30808W        W47069   1.229  11.069   2.572  0.1079  0.2128  0.2275
30809W        W47070   2.179   9.611  10.981  0.3303  0.0356  0.0111
30810W        W47071   3.780   7.195   5.583 -0.1522  0.1176 -0.0353
30811W        W47072   5.366   3.391   0.620  0.0224  0.0514 -0.3648
30812W        W47073   7.452  16.779   2.174  0.2541  0.1520 -0.5024
30813W        W47074   8.109   2.695  12.379  0.3141 -0.2625 -0.0377
30814W        W47075  12.400   9.972   1.205  0.0856 -0.1569  0.1098
30815W        W47076   9.284   4.098  12.208 -0.3173  0.0578 -0.0206
30816W        W47077   9.264  12.654  11.983 -0.1648  0.2299 -0.1842
30817W        W47078  16.192   6.772  12.895 -0.0501  0.0524  0.2237
30818W        W47079  19.099   9.430   4.957 -0.3830 -0.2019  0.2828
30819W        W47080   1.235  17.577   4.646  0.3542  0.0435  0.0028
30820W        W47081  15.608   7.792   2.941 -0.1386  0.1880 -0.0673
30821W        W47082   7.594  17.569   3.728 -0.3976  0.2706 -0.2155
30822W        W47083  18.361  19.220  14.372  0.1343 -0.2923 -0.2986
30823W        W47084   1.159   5.528   2.435 -0.2992  0.0936 -0.0891
30824W        W47085  17.614   4.840   0.395  0.0458  0.1912 -0.0622
30825W        W47086   8.903   9.920  13.883  0.0097  0.0928  0.0146
30826W        W47087  16.926  15.961  12.324 -0.0707 -0.4854 -0.2942
30827W        W47088   3.327  13.983  13.487  0.2781 -0.0332 -0.3293
30828W        W47089   4.306  12.293  13.003  0.0008 -0.0606  0.2954
30829W        W47090  16.913  15.859  10.897 -0.3415 -0.0936 -0.3886
30830W        W47091  11.968  14.092   3.647 -0.1668 -0.2270 -0.2744
30831W        W47092  10.789   8.148   9.792 -0.2598 -0.0654 -0.0733
30832W        W47093   0.370   1.325  13.958  0.6260 -0.3150 -0.2546
30833W        W47094   5.040   8.486   4.459  0.3406 -0.0439 -0.0421
30834W        W47095  12.167   5.581  13.300 -0.0812  0.0608  0.0021
30835W        W47096   4.140  10.894   4.168  0.0711  0.0705  0.3520
30836W        W47097   1.903   0.435  12.764  0.3405  0.1617  0.0592
30837W        W47098  18.985   3.757   1.041  0.2215 -0.0095 -0.0210
30838W        W47099  14.649   9.737   3.627 -0.2444 -0.0965  0.1731
30839W        W47100  12.216  16.766   2.309 -0.0263  0.0393 -0.1497
30840W        W47101   9.950  18.820  11.722  0.0776 -0.2776  0.0572
30841W        W47102   8.185  18.616   4.473  0.1843 -0.0851 -0.1224
30842W        W47103  10.137   5.388  11.331 -0.2100 -0.0476 -0.1815
30843W        W47104  16.787  17.501   2.299  0.2053  0.1285  0.2078
30844W        W47105  15.357  16.169  10.670  0.1694 -0.2519  0.3055
30845W        W47106   6.059  10.330   2.367 -0.0719 -0.5635  0.1877
30846W        W47107  13.665  13.537  11.468 -0.2333  0.0475  0.2795
30847W        W47108   4.871   9.984  11.628  0.0283  0.0998 -0.0576
30848W        W47109   0.002   5.195  14.801 -0.0303  0.3157  0.0499
30849W        W47110   7.275  17.907  14.170 -0.1345  0.0978  0.2776
30850W        W47111   2.036   6.925  13.291 -0.0561  0.0679 -0.0767
30851W        W47112   2.572   9.661   0.689 -0.0185  0.0244 -0.1196
30852W        W47113  19.074  11.228   1.017  0.1013  0.3131 -0.0963
30853W        W47114   0.453   2.448   4.095 -0.2511  0.0997 -0.1717
30854W        W47115   0.768  13.788  10.336  0.1328  0.1639  0.3858
30855W        W47116  17.209   0.082  13.057 -0.1287 -0.0750  0.0747
30856W        W47117   8.210   6.336   1.312  0.3393 -0.3301 -0.1262
30857W        W47118   1.497  16.624   1.144  0.1604 -0.1505 -0.0741
30858W        W47119   3.370   0.565   0.325  0.3620  0.2778  0.2566
30859W        W47120   4.763   5.999  14.210  0.1541 -0.0544  0.1060
30860W        W47121  16.636   2.230   0.878  0.0671  0.0057  0.0204
30861W        W47122  11.213  15.580  10.983 -0.1232  0.1110 -0.2270
30862W        W47123  14.914   5.318   2.695  0.1908 -0.1374 -0.2151
30863W        W47124  11.196  14.101  11.195 -0.0673 -0.0096  0.0906
30864W        W47125   0.530  14.148   4.290  0.2049  0.0816 -0.0689
30865W        W47126  17.429  19.381   1.331 -0.1731  0.2436 -0.1734
30866W        W47127  15.941   3.374   2.086 -0.0593 -0.3331 -0.0631
30867W        W47128  16.106  16.672  14.462 -0.4449  0.1500 -0.1980
30868W        W47129  12.321   9.791   3.353 -0.2903  0.0936 -0.2068
30869W        W47130   8.107   7.417   3.227  0.0946 -0.1617  0.1487
30870W        W47131   6.283  14.282  12.075 -0.1035 -0.1540  0.1441
30871W        W47132   2.059  14.285   0.284 -0.0924 -0.0730  0.0193
30872W        W47133  19.045  18.039   0.417 -0.0318 -0.0201  0.0206
30873W        W47134   1.181   0.441  13.228  0.0703  0.0273 -0.0664
30874W        W47135  14.207  10.122   0.910 -0.2742  0.4642  0.0174
30875W        W47136   5.553  17.586   4.292 -0.0223 -0.2057 -0.1342
30876W        W47137   2.880  16.517   0.877  0.2756  0.0864 -0.0278
30877W        W47138   0.940   5.888   4.731  0.0374 -0.1327  0.1990
30878W        W47139  15.134  12.139  14.037  0.0001  0.0230 -0.0051
30879W        W47140  12.677   7.357   3.078 -0.0130  0.1359  0.0928
30880W        W47141   8.285  18.391   4.054  0.0642 -0.2106 -0.3055
30881W        W47142   4.757  10.193  10.048 -0.1306  0.0939 -0.1457
30882W        W47143   2.146   1.773  12.210 -0.2077 -0.0092  0.0117
30883W        W47144   2.877   5.132   5.019 -0.1479 -0.1300 -0.2678
30884W        W47145   3.300  13.349  14.836 -0.1988  0.0106 -0.5112
30885W        W47146   4.103  16.788   5.023 -0.0445 -0.0907 -0.0213
30886W        W47147   5.293  15.128  10.822  0.1998  0.1028  0.1447
30887W        W47148  11.328  10.432  12.381  0.1162 -0.2442  0.0454
30888W        W47149  13.879  12.659   2.500  0.3429 -0.0248 -0.2223
30889W        W47150   4.261  10.386  11.444  0.1120  0.3800  0.0121
30890W        W47151   0.131  14.337   5.124 -0.0504 -0.1411  0.2506
30891W        W47152   5.441  11.123   3.846  0.0773  0.3216 -0.1870
30892W        W47153   3.913  10.969  12.166  0.1494 -0.1414  0.2408
30893W        W47154   4.399  17.832   3.330  0.2197  0.0256  0.0786
30894W        W47155   6.666  19.333   5.542  0.2210  0.2327 -0.1281
30895W        W47156   3.540  10.926   5.003  0.2260  0.2645  0.1518
30896W        W47157  10.870  13.686   9.128 -0.1581 -0.2570 -0.1296
30897W        W47158  12.359   6.321   5.582  0.2538  0.2365  0.2145
30898W        W47159  17.612   0.408   4.450  0.1041 -0.1454 -0.0368
30899W        W47160  10.222  16.698   1.480  0.0289  0.1409 -0.0233
30900W        W47161  14.378  16.741   2.627  0.0349  0.0363 -0.2302
30901W        W47162   7.457   7.998   1.945  0.2292  0.0956  0.1884
30902W        W47163   3.404   4.851   0.675 -0.2966  0.0551 -0.1988
30903W        W47164   0.903  10.734  10.978  0.1268  0.1397  0.1952
30904W        W47165  15.242  14.834   4.615 -0.1063 -0.0267 -0.2447
30905W        W47166  16.110  16.417   4.990  0.0642 -0.1686  0.0691
30906W        W47167  17.394  11.872  13.211 -0.2133  0.1509 -0.1236
30907W        W47168   5.652   7.126  13.437 -0.4558  0.1847  0.3382
30908W        W47169   0.606  14.531   4.615 -0.0695  0.0571 -0.0337
30909W        W47170  16.261   8.171  10.342  0.3003  0.0200  0.0931
30910W        W47171   0.333   9.481  13.108 -0.3520 -0.3128  0.0238
30911W        W47172  10.371  12.145  14.813  0.0847 -0.0376  0.2275
30912W        W47173   8.010  13.774  11.372 -0.1466  0.0833  0.0765
30913W        W47174  15.578  14.368   0.990 -0.0185  0.0040 -0.3066
30914W        W47175   0.268   1.125  12.452  0.2559 -0.2651  0.3339
30915W        W47176   8.570  11.809   4.034  0.0418 -0.1749  0.3627
30916W        W47177   4.535  15.652   1.492  0.0503  0.0045  0.1376
30917W        W47178  15.790  18.798  11.384 -0.3951 -0.1781  0.3023
30918W        W47179   0.235  11.721   0.866  0.2898 -0.2884  0.3123
30919W        W47180  13.223   4.930   1.528  0.0632 -0.0791 -0.1550
30920W        W47181  10.977   2.423   0.626 -0.0859 -0.3076  0.1931
30921W        W47182  13.173  10.902  13.193 -0.0789 -0.1081  0.1610
30922W        W47183  10.109   7.890  10.596 -0.0258 -0.0404  0.0662
30923W        W47184   9.276  13.889  14.318  0.0624 -0.1281  0.4555
30924W        W47185  14.295  10.726   1.505 -0.0607  0.0618  0.3614
30925W        W47186   8.349  12.024   4.434 -0.0818 -0.4088  0.0369
30926W        W47187  10.923  17.488  12.082  0.1729  0.2926  0.0263
30927W        W47188  18.560   8.954   0.700  0.2137  0.1392  0.2135
30928W        W47189   6.064  13.922   5.188  0.1039  0.0876 -0.2359
30929W        W47190  13.041  10.076   9.437 -0.1479  0.3060 -0.4120
30930W        W47191   5.822   5.464   4.887  0.0102 -0.3135 -0.1740
30931W        W47192   2.311   4.572  11.369  0.2845  0.0001 -0.1742
30932W        W47193   8.892   6.575  12.434 -0.2409  0.1742 -0.0285
30933W        W47194  13.515   5.628   0.899 -0.3938 -0.1149 -0.0109
30934W        W47195  10.966  12.269   2.506 -0.0645  0.1273  0.4589
30935W        W47196   9.846   6.287   2.272 -0.0125 -0.2396  0.4469
30936W        W47197  12.891   4.550   4.318 -0.0925  0.3127 -0.2830
30937W        W47198  16.559  14.722   2.171  0.1014 -0.0140  0.1322
30938W        W47199  14.776  15.051   4.191 -0.0885 -0.2254  0.3083
30939W        W47200  17.794   1.054   0.205 -0.1133 -0.1435 -0.2555
30940W        W47201   3.669   5.698  12.237 -0.1185  0.2043 -0.4386
30941W        W47202  11.662   4.615   2.558  0.2631  0.0717  0.0859
30942W        W47203  16.868   2.426   1.336 -0.1563  0.1890 -0.0308
30943W        W47204   7.838  15.029   1.952  0.1185  0.0081  0.2210
30944W        W47205   3.683   0.641   2.898 -0.2087 -0.0850 -0.4895
30945W        W47206  13.983   7.165  11.157  0.0189 -0.0811 -0.0884
30946W        W47207   3.709  19.282   3.244 -0.2769  0.0499 -0.0925
30947W        W47208  13.630   6.929   4.501 -0.0499  0.0016  0.4414
30948W        W47209   7.448   4.286  12.252 -0.3027 -0.1040 -0.0326
30949W        W47210  15.484  10.905   9.900  0.2694 -0.0576  0.0090
30950W        W47211   7.618   6.105  11.109 -0.2381 -0.0433  0.2927
30951W        W47212  14.644   9.341   1.464  0.0095  0.2617  0.2723
30952W        W47213  14.527  17.978   1.289 -0.0937 -0.0133  0.0321
30953W        W47214   7.586  15.673   2.709 -0.0740  0.2016 -0.1557
30954W        W47215  10.150  13.166   3.970 -0.1070 -0.2107  0.2275
30955W        W47216   1.059  10.636   3.432 -0.0145  0.1943  0.0790
30956W        W47217   1.557  18.558   5.115  0.1649  0.3504 -0.0531
30957W        W47218   8.714   0.215  12.363  0.0769 -0.2614  0.2305
30958W        W47219  18.808   1.207  12.490  0.1744  0.1377  0.0958
30959W        W47220  10.117   3.541   4.391 -0.0586 -0.1054  0.1538
30960W        W47221   6.354   2.421  12.924  0.1512  0.2169  0.2376
30961W        W47222  17.861   3.189   9.631 -0.1207  0.0607 -0.1030
30962W        W47223   2.962  11.624  13.392 -0.2196  0.0121 -0.2317
30963W        W47224  17.734   7.881  12.387 -0.0213  0.0828 -0.0779
30964W        W47225   3.701   7.907   1.242 -0.0135 -0.1620 -0.1739
30965W        W47226  17.301  14.252  10.207 -0.0268  0.0446 -0.1508
30966W        W47227   2.604  19.285   1.756  0.0581 -0.1275 -0.0819
30967W        W47228  10.846   9.760  12.837  0.2101 -0.1824 -0.4742
30968W        W47229  14.327  11.354   4.469 -0.1277 -0.2747  0.2152
30969W        W47230  15.045  10.343  11.461 -0.0551  0.0468 -0.2172
30970W        W47231   1.072   1.087   3.236  0.0531 -0.0398  0.2455
30971W        W47232   2.661   8.913  13.927  0.1320  0.5191 -0.3455
30972W        W47233  11.418   2.028  11.453 -0.1493 -0.2188 -0.1904
30973W        W47234  14.493  15.169  14.757 -0.1351  0.0845  0.0494
30974W        W47235  16.796   8.789  12.960 -0.3579  0.0472  0.2210
30975W        W47236   2.613  16.592  14.204 -0.1243  0.2626  0.3426
30976W        W47237  12.972   2.404  11.250  0.1789 -0.1252 -0.4074
30977W        W47238   3.634  17.764   6.210  0.3458 -0.4448  0.0616
30978W        W47239   3.312  13.682   4.670 -0.0736 -0.1003 -0.2022
30979W        W47240  14.434  14.781  11.613 -0.1497  0.3095  0.3378
30980W        W47241  12.101   4.045  12.753 -0.0090  0.0878 -0.3424
30981W        W47242   0.081   5.427   1.183 -0.0492 -0.1745  0.0580
30982W        W47243   7.277  18.174  14.647  0.0804 -0.0720  0.0828
30983W        W47244   8.484   3.088  12.273  0.0531  0.4350 -0.2648
30984W        W47245  16.136   4.749  13.674  0.2097  0.1111  0.0826
30985W        W47246   3.859  11.069   0.962 -0.2146 -0.1451 -0.0298
30986W        W47247  10.700  18.783  14.529  0.1092  0.0103  0.1642
30987W        W47248  11.547   1.288   2.735  0.2489 -0.0793 -0.1727
30988W        W47249   8.458   2.621  12.000 -0.0379  0.2966 -0.0020
30989W        W47250  18.243   5.211   0.424  0.0535  0.3470 -0.1174
30990W        W47251   2.692   8.754   0.156  0.0087  0.0287 -0.1875
30991W        W47252  15.910  10.551  14.550  0.0353  0.1541  0.0501
30992W        W47253   8.039   6.425  11.059  0.1489  0.0218 -0.2491
30993W        W47254  10.432   3.749  12.563  0.0098 -0.0094 -0.1095
30994W        W47255   1.302  16.740  13.107 -0.1998  0.1144  0.2001
30995W        W47256  16.335  18.234  13.356 -0.0556  0.2107 -0.0207
30996W        W47257  17.191   4.254   4.915  0.0075  0.1199 -0.2712
30997W        W47258   3.563   5.810  11.723 -0.0588 -0.1920  0.0546
30998W        W47259   6.365  15.798  12.776  0.0733  0.0771  0.0556
30999W        W47260  12.827  18.516   0.016  0.0820  0.3090 -0.1642
31000W        W47261   0.790   5.928  13.040  0.1565 -0.0288 -0.4089
31001W        W47262   7.439   9.966   3.283 -0.1776 -0.1846 -0.1703
31002W        W47263  10.109   8.670  10.936 -0.1234  0.2730  0.2281
31003W        W47264   2.516  10.646  12.624 -0.2647 -0.2899  0.0213
31004W        W47265  11.412  14.191  12.255  0.0498  0.0295 -0.1497
31005W        W47266   7.095   6.961  11.471  0.1266 -0.2593  0.1464
31006W        W47267   2.042   3.884   2.032  0.0086 -0.0267 -0.0795
31007W        W47268  13.747  14.342   1.665  0.1457 -0.3918  0.1425
31008W        W47269  16.120  17.961  10.823 -0.2711 -0.0657 -0.0573
31009W        W47270   9.685   2.591   0.841  0.0951 -0.2590  0.0760
31010W        W47271  11.788  16.928  10.834  0.0687 -0.1923  0.3445
31011W        W47272  17.627  15.805  11.651 -0.1443 -0.2461 -0.1147
31012W        W47273   9.516   3.090   0.855  0.3085 -0.0762  0.2219
31013W        W47274  14.649  18.656  14.412  0.3031  0.1631  0.1589
31014W        W47275  17.102   4.455   1.611  0.2343  0.1638 -0.0765
31015W        W47276   3.213  17.118   0.556  0.1996  0.1944  0.0133
31016W        W47277  14.346   0.889   1.508  0.2260  0.4621 -0.2366
31017W        W47278   5.937   0.034  12.816 -0.0135  0.0295 -0.4707
31018W        W47279  12.188  10.757   0.541  0.0629  0.1697  0.2388
31019W        W47280   6.274  17.291   0.954  0.0480  0.1779 -0.0875
31020W        W47281  19.377  18.602  13.364  0.1725 -0.1511 -0.0499
31021W        W47282  10.126  10.169  12.247 -0.0790  0.0971 -0.0438
31022W        W47283   3.922   1.929   0.872  0.2440  0.0752 -0.0433
31023W        W47284   4.092  13.403  12.000  0.0181 -0.1488 -0.0440
31024W        W47285  15.541  19.143   0.997 -0.1451  0.1961  0.2348
31025W        W47286   6.446   1.327   0.090 -0.0369 -0.0244  0.1071
31026W        W47287  12.077  18.540  10.797 -0.1567  0.0242  0.0555
31027W        W47288  18.834  17.852  11.248 -0.1867  0.1408 -0.3613
31028W        W47289   2.412  19.444  12.072  0.0237  0.2300  0.1604
31029W        W47290   4.728   5.548  12.619 -0.0601  0.2406 -0.0590
31030W        W47291  13.891  16.020   2.025  0.2490  0.1515  0.1959
31031W        W47292  12.310  11.220  13.120 -0.3723 -0.1640  0.1487
31032W        W47293  18.146  15.817   2.752 -0.2531 -0.1249 -0.0969
31033W        W47294   3.958   8.376   1.623  0.0884  0.1889  0.2729
31034W        W47295  16.623  19.423   4.195  0.1745 -0.0636 -0.3384
31035W        W47296   6.380   3.797  11.617 -0.1063  0.3855 -0.0944
31036W        W47297  14.596  16.835  14.764  0.0784 -0.0720 -0.2923
31037W        W47298   2.709  12.511  10.529 -0.1394  0.3191  0.2844
31038W        W47299   4.829  17.593   4.519  0.1148  0.1065 -0.1010
31039W        W47300   7.387   2.105  14.766  0.1203  0.1082  0.0707
31040W        W47301   7.114   4.466  11.949  0.3297 -0.2296  0.0729
31041W        W47302   6.013   5.010  11.092 -0.0912  0.1074 -0.1064
31042W        W47303   7.316   5.216   3.084 -0.0148  0.0276  0.1651
31043W        W47304  19.350   8.851  10.901  0.2546  0.0229  0.2792
31044W        W47305  15.345   3.878  13.807  0.2977 -0.1425 -0.3225
31045W        W47306   5.206  18.118  10.088  0.0489  0.2037  0.0919
31046W        W47307  10.977  10.227   3.638  0.1326 -0.1632  0.0265
31047W        W47308  14.173  18.375  13.666  0.0196 -0.1092 -0.1083
31048W        W47309   8.887   8.108   1.547  0.0774  0.3187  0.1897
31049W        W47310  13.223   3.076   1.325 -0.0506  0.2034  0.0635
31050W        W47311  17.293  17.777   5.067  0.6490 -0.4323  0.0771
31051W        W47312  10.231   5.077  10.722  0.2040 -0.0532 -0.4620
31052W        W47313   9.960  12.263  14.448  0.0907 -0.1449 -0.2173
31053W        W47314  11.869  18.105   1.612 -0.1071  0.0616 -0.2467
31054W        W47315   2.130  17.567  10.762 -0.0173  0.0624 -0.2390
31055W        W47316  12.347  17.375   4.207 -0.2717  0.0736  0.1630
31056W        W47317  18.131   4.021  13.734  0.1930 -0.1845 -0.0728
31057W        W47318  11.331  11.262  14.884  0.2493  0.0344  0.0740
31058W        W47319  14.376  16.493   2.127 -0.0347 -0.1657 -0.1566
31059W        W47320   3.507  19.198   0.024  0.0899 -0.1084 -0.1575
31060W        W47321   0.292   8.410   2.324 -0.3531 -0.0372 -0.2877
31061W        W47322   0.835  11.566  11.639 -0.2602 -0.0772 -0.2369
31062W        W47323  11.093   5.381  10.237  0.1382 -0.0786  0.0223
31063W        W47324  10.465   2.947   1.242  0.0374  0.1202  0.1544
31064W        W47325   3.736  16.204   1.742 -0.0414  0.0761 -0.2785
31065W        W47326  12.053  12.171  12.948  0.3088  0.0471  0.3909
31066W        W47327  16.402   6.663  11.146  0.0407  0.1477 -0.1573
31067W        W47328  16.455  11.949  10.555 -0.2840  0.0441  0.0436
31068W        W47329  17.478  11.917  13.728 -0.0328 -0.2167  0.5018
31069W        W47330   8.131  14.709  10.253  0.0628 -0.2332 -0.4094
31070W        W47331  17.263  17.585  13.380  0.2150  0.2261  0.1911
31071W        W47332   7.956   3.875   0.484 -0.0526  0.2822  0.3502
31072W        W47333   6.616  16.173  12.556 -0.3993  0.2342  0.2221
31073W        W47334  18.093  12.276   2.963 -0.0310 -0.2081  0.0897
31074W        W47335  18.759  18.904  11.376 -0.0285  0.0863  0.2250
31075W        W47336  17.519   4.007   0.823 -0.1417 -0.0150 -0.0750
31076W        W47337  19.118   6.270  13.032 -0.0984  0.0229 -0.0297
31077W        W47338   0.251   3.292   0.034  0.0878  0.1535  0.2749
31078W        W47339   3.540   2.869  13.651  0.1614  0.0315  0.0207
31079W        W47340  14.861  15.508  12.161  0.1277  0.0544 -0.0817
31080W        W47341   4.849   3.988  12.760 -0.0840  0.0394  0.4993
31081W        W47342  14.003   8.938   2.551 -0.0743  0.0482  0.0842
31082W        W47343   6.482   2.779   4.322 -0.0388 -0.1108 -0.1183
31083W        W47344   0.767   9.985   0.493  0.5014 -0.3497 -0.1391
31084W        W47345  18.370   3.187   2.865 -0.2539 -0.3049 -0.2119
31085W        W47346  14.638   8.753   0.448 -0.0010  0.4887 -0.1096
31086W        W47347  12.039  13.032  11.462  0.1572 -0.2489 -0.2760
31087W        W47348  17.476  12.425  11.520  0.0045 -0.0818 -0.1117
31088W        W47349   7.679   4.056   3.571 -0.1083  0.5983  0.1647
31089W        W47350   3.710   7.147   2.366  0.0299 -0.0630  0.1800
31090W        W47351  16.918   8.803   4.140 -0.0529 -0.2046  0.0480
31091W        W47352  17.018  14.022  13.281 -0.1394 -0.0509 -0.1647
31092W        W47353  17.493  14.620   1.996 -0.0886 -0.1275 -0.0960
31093W        W47354  11.164   0.000   1.596 -0.0005  0.0926 -0.1931
31094W        W47355  18.823  16.855  11.010 -0.1033  0.1924  0.0105
31095W        W47356  14.058   6.292  11.302  0.0606  0.2051 -0.1029
31096W        W47357   2.647   6.156  12.667  0.0738  0.0284  0.1533
31097W        W47358   3.314   0.556   1.187 -0.0106 -0.3259  0.3638
31098W        W47359  18.398  17.744   1.591  0.4719 -0.3208  0.0439
31099W        W47360   0.025   7.000  11.886 -0.1026 -0.0269  0.0385
31100W        W47361   5.249   2.229   1.365 -0.1498 -0.0474 -0.0632
31101W        W47362   4.525   0.348  11.341 -0.0849 -0.0065 -0.3100
31102W        W47363   3.107   0.294   4.346 -0.2491  0.1366 -0.0810
31103W        W47364  16.147  19.188  13.924 -0.2361 -0.1863  0.4459
31104W        W47365  17.228   1.120   3.195 -0.0022 -0.0813  0.0550
31105W        W47366  16.955  10.527  11.535  0.0184 -0.0632 -0.0340
31106W        W47367   9.616  16.137  13.240 -0.0367  0.0832  0.0719
31107W        W47368  15.706  19.442  13.845 -0.3737  0.0276 -0.0525
31108W        W47369  14.603  15.715  11.734 -0.2298  0.0239  0.0267
31109W        W47370   9.904   8.236  13.424 -0.0237  0.0706 -0.2571
31110W        W47371   2.746   4.088   4.534  0.0710 -0.4667  0.0793
31111W        W47372   7.029   1.002  13.002 -0.2781 -0.1773 -0.2380
31112W        W47373  14.765  12.742   3.163 -0.2913  0.0557  0.0421
31113W        W47374  13.733  15.343   3.223  0.3005  0.1003  0.1028
31114W        W47375  10.177  13.787  12.503  0.1303  0.2345 -0.3008
31115W        W47376  14.149   5.634  14.250 -0.0739 -0.2551 -0.0728
31116W        W47377   1.384   7.008   4.825 -0.0482 -0.2146  0.2848
31117W        W47378   7.651   1.282   1.834  0.5309 -0.0356 -0.3745
31118W        W47379   0.706  14.296  12.550 -0.4510  0.0637 -0.0256
31119W        W47380  11.744  12.570   2.915 -0.1431 -0.0868  0.0764
31120W        W47381  15.600  10.508   4.505  0.0531 -0.0159  0.1905
31121W        W47382  18.935  16.508  13.185  0.0999 -0.0015  0.0688
31122W        W47383   6.445   5.203   3.579  0.1785 -0.0340 -0.0734
31123W        W47384  11.382   5.821  10.932 -0.1604 -0.1352  0.0172
31124W        W47385  11.790  17.077  13.761  0.0856  0.0492  0.0817
31125W        W47386   7.032   7.188   2.102 -0.1288  0.0200  0.0335
31126W        W47387   9.218  13.077   3.107 -0.3103  0.3819  0.1136
31127W        W47388   9.991  14.524  14.622  0.2888  0.0096 -0.1957
31128W        W47389   6.101  15.196   5.150  0.2825 -0.4097  0.2524
31129W        W47390   1.691   5.286   1.310 -0.5524  0.2032  0.1758
31130W        W47391  12.645  16.461   2.487 -0.1314  0.0502 -0.0686
31131W        W47392   7.193  13.484  10.949 -0.2761 -0.1126 -0.1409
31132W        W47393   1.698  16.172  12.350  0.0942  0.2296  0.0260
31133W        W47394  11.537  10.306   3.311 -0.1558 -0.2064  0.1972
31134W        W47395  14.508  16.197   1.746  0.0484 -0.2269  0.2546
31135W        W47396   1.455   6.894   4.302 -0.0125 -0.1191  0.1777
31136W        W47397   9.787  13.920   1.498  0.1357 -0.1632 -0.1428
31137W        W47398  10.596   8.535   1.446 -0.1464 -0.3311  0.4194
31138W        W47399  14.441   5.138   2.296  0.1468 -0.0605  0.1676
31139W        W47400  17.639  10.090   1.721 -0.0099 -0.2068  0.1954
31140W        W47401   4.328   7.872   0.829 -0.0981  0.1482  0.0486
31141W        W47402   0.928  15.011   4.609  0.3452 -0.0001 -0.0328
31142W        W47403  15.826   8.746  11.081  0.1318  0.1860 -0.0383
31143W        W47404   4.252  11.495  14.832  0.0086 -0.0469 -0.1315
31144W        W47405  14.386  12.461   1.868 -0.1143  0.1713  0.1686
31145W        W47406   7.188  10.492  12.442  0.2176  0.1344  0.0438
31146W        W47407  12.089   3.754   1.256  0.0927 -0.1328 -0.1397
31147W        W47408   2.293  15.130   0.233 -0.0995 -0.1308  0.1183
31148W        W47409   7.077  17.769  10.943 -0.1105  0.0939 -0.2906
31149W        W47410  16.416  18.128  10.436 -0.3242 -0.1485  0.2586
31150W        W47411   0.538   3.015   3.044  0.1099 -0.0853  0.2420
31151W        W47412  13.811   8.983   4.737  0.0086 -0.1269  0.0910
31152W        W47413   8.061  10.526  12.710  0.0382 -0.1774 -0.0159
31153W        W47414   4.259   0.745   4.849  0.0528  0.4968 -0.0355
31154W        W47415  14.244   8.472  12.131  0.1235 -0.1975  0.1662
31155W        W47416   9.246  17.653  14.820 -0.0610  0.1580  0.1654
31156W        W47417  11.217  19.025   0.208 -0.2639 -0.2422  0.1321
31157W        W47418  15.896   4.583  14.126  0.0640 -0.1212  0.2643
31158W        W47419  17.321  17.240   0.282  0.0508 -0.1797  0.3674
31159W        W47420   6.283  17.271   2.943  0.2253 -0.0260 -0.1769
31160W        W47421   9.509  14.623   1.766  0.0396 -0.0764  0.0762
31161W        W47422   3.478  16.756  14.818  0.2603 -0.0629 -0.1224
31162W        W47423   8.174   6.518   3.442  0.1121 -0.1165 -0.0642
31163W        W47424   8.145   4.372  12.033 -0.2660 -0.1011 -0.1827
31164W        W47425  15.898   0.467  11.264 -0.2962 -0.0995 -0.1251
31165W        W47426   7.594   2.591  11.329  0.3626 -0.0891 -0.1763
31166W        W47427  19.211   5.299   1.871  0.0259 -0.0417 -0.0341
31167W        W47428   7.185   0.233  10.293  0.2175 -0.0933  0.3727
31168W        W47429  15.501   9.639   2.285  0.1474 -0.2672 -0.3167
31169W        W47430   6.728  12.129   3.232 -0.1368 -0.1628 -0.0649
31170W        W47431  15.308   3.977  10.778 -0.3058  0.2323 -0.0260
31171W        W47432   4.745  17.672   3.670 -0.2724  0.2584 -0.0144
31172W        W47433  15.883  13.536   2.438  0.0337  0.0246  0.0510
31173W        W47434   4.061  15.878   4.546  0.1983 -0.2901  0.0319
31174W        W47435  18.507   3.822   1.197  0.1012  0.0652  0.0379
31175W        W47436   6.459  11.224  13.400  0.0414  0.2439  0.0737
31176W        W47437   5.583   0.272  11.557 -0.1296  0.0955 -0.2257
31177W        W47438  15.842  14.516  12.169  0.1382  0.2160  0.3960
31178W        W47439   4.345  18.118  14.442 -0.0121 -0.5484  0.0424
31179W        W47440   1.966   0.698  14.878 -0.0032  0.0294 -0.0201
31180W        W47441  11.034  13.016   1.592  0.2500  0.0166  0.2862
31181W        W47442   1.334  12.385  10.283  0.1310 -0.1904 -0.0132
31182W        W47443  14.634   2.018   0.969  0.0572  0.1016 -0.0194
31183W        W47444   4.191   6.318   4.421  0.1824 -0.1046 -0.1817
31184W        W47445  17.414   2.101   3.521 -0.1881 -0.0494 -0.1229
31185W        W47446  10.153  19.372  13.899  0.1806  0.5148  0.3600
31186W        W47447   4.164  17.296   4.947 -0.0279 -0.1028 -0.2670
31187W        W47448   1.148   8.596   1.753 -0.0440 -0.1171  0.0246
31188W        W47449   5.418  14.195  11.853  0.0073 -0.0473  0.2605
31189W        W47450  18.996   0.043  11.742  0.0204 -0.1322 -0.0733
31190W        W47451  17.471  18.848   2.496  0.1290 -0.0648 -0.2842
31191W        W47452   6.245   5.785   0.959  0.0921  0.1690  0.2014
31192W        W47453   6.175   8.651  13.371  0.0829  0.0359 -0.0237
31193W        W47454   1.378  17.449  13.918  0.2906 -0.0943  0.0573
31194W        W47455  15.073  10.429   3.014 -0.0393  0.2309 -0.2102
31195W        W47456   8.395   8.682   2.674 -0.2092  0.2214  0.0004
31196W        W47457   2.833   2.917   5.960  0.1564  0.0339 -0.1298
31197W        W47458   0.725   8.687  10.844  0.0673  0.3343 -0.0992
31198W        W47459   8.581  16.944  14.731 -0.0646  0.2175 -0.0323
31199W        W47460   3.453  13.980   4.270  0.0256 -0.2048 -0.0324
31200W        W47461  16.926   2.331  13.302 -0.0305  0.3106 -0.0394
31201W        W47462   3.061   4.286  12.553 -0.0297  0.4952 -0.5312
31202W        W47463  16.848   1.508   2.335 -0.1466  0.0385 -0.5619
31203W        W47464   2.608  15.212   2.761 -0.3684  0.2468 -0.1693
31204W        W47465  17.658  16.919   0.656 -0.0372  0.1619 -0.1270
31205W        W47466  19.122  14.720   2.572  0.2507 -0.0027 -0.4661
31206W        W47467  18.418   6.706  13.432  0.3732  0.1583 -0.0615
31207W        W47468  16.243   2.252   2.668  0.0620 -0.1764  0.1113
31208W        W47469  14.259   1.646   0.855  0.1424  0.2321 -0.1125
31209W        W47470   6.357  18.407   1.974  0.1023  0.3996  0.1661
31210W        W47471   4.187  17.145   0.284 -0.2850  0.5547 -0.2213
31211W        W47472   2.733  19.197   5.450 -0.2378 -0.3185 -0.0425
31212W        W47473  15.354  13.734   0.502 -0.1768  0.1854 -0.2303
31213W        W47474  11.448  14.940  12.726  0.0872 -0.0609 -0.1074
31214W        W47475   6.231  12.338   3.474  0.1128  0.0780 -0.1286
31215W        W47476   8.709  12.151   0.349 -0.1662  0.1133 -0.3718
31216W        W47477  19.289   2.396  12.803 -0.1379  0.0092  0.0311
31217W        W47478  12.276   4.783   4.221  0.1830  0.1321  0.1768
31218W        W47479  18.605  17.826  10.394 -0.0459  0.1763 -0.1280
31219W        W47480  13.172  13.916   1.342  0.1886  0.2845 -0.1713
31220W        W47481  18.436   8.497   4.950  0.0895  0.3305 -0.3975
31221W        W47482  19.090  14.731  11.554 -0.4106  0.0196  0.2251
31222W        W47483  10.238  16.970  13.337  0.2696 -0.3156 -0.0329
31223W        W47484   0.070   9.125  11.289 -0.1503 -0.2131 -0.0839
31224W        W47485   7.226  14.571   3.903  0.2068  0.0558  0.3320
31225W        W47486  18.740  17.302   2.923 -0.2131  0.2793 -0.2295
31226W        W47487   9.719   2.514  14.127  0.0846  0.0445  0.1180
31227W        W47488  13.520  19.399  10.521  0.0143 -0.0128 -0.2492
31228W        W47489  14.291  16.337   9.896  0.2646  0.2494  0.2148
31229W        W47490   9.101   9.178  14.331 -0.2822  0.3896  0.0615
31230W        W47491   1.722   6.829   2.341 -0.0731 -0.0827 -0.0816
31231W        W47492  14.072   1.951  12.420  0.2199 -0.1939  0.1044
31232W        W47493   7.540   1.900  10.908 -0.2225  0.1394 -0.0081
31233W        W47494   2.637   1.417  10.689 -0.1227 -0.0725  0.2583
31234W        W47495  13.188  11.219  10.846 -0.3361  0.0458 -0.2218
31235W        W47496   9.886   8.325  14.305 -0.0049 -0.2257 -0.1049
31236W        W47497  14.472   2.346  12.624 -0.3549 -0.3609  0.2201
31237W        W47498  16.276   4.503   3.438  0.2686  0.0552 -0.0022
31238W        W47499   0.216   1.504  13.379  0.1499  0.1221  0.0627
31239W        W47500  11.084   5.632   3.719 -0.0246 -0.1947 -0.1773
31240W        W47501  19.147   4.733   3.142  0.0960  0.1087  0.0333
31241W        W47502  16.375  17.801  13.630  0.0324  0.0622 -0.0315
31242W        W47503   9.768  11.654   1.695 -0.0338  0.1721 -0.0664
31243W        W47504   9.412  13.686   2.934  0.2133  0.1120  0.0209
31244W        W47505  18.106   4.888   5.308  0.0071 -0.1770 -0.0250
31245W        W47506   9.105  17.659   3.197 -0.3201 -0.0041 -0.1615
31246W        W47507   4.674  18.686   3.285  0.2091  0.3880 -0.1410
31247W        W47508  18.228  13.856  12.765 -0.0923  0.1129 -0.2226
31248W        W47509   3.887  14.312  13.011 -0.3059 -0.0255 -0.1001
31249W        W47510   7.198   4.802   3.912  0.0361  0.3576 -0.4016
31250W        W47511   8.112   3.870   1.623  0.1790  0.0836 -0.2089
31251W        W47512   9.784   6.314  12.824  0.0986 -0.0783 -0.1126
31252W        W47513  13.221  19.282   1.229 -0.3225  0.0370 -0.0320
31253W        W47514  15.926   7.060   4.438  0.4287 -0.0222  0.0483
31254W        W47515   5.657   3.290   0.222  0.0644  0.0273  0.2899
31255W        W47516   0.964   5.223   0.934 -0.0204  0.0284 -0.4071
31256W        W47517  16.245   0.526  14.339 -0.1846  0.4804 -0.2932
31257W        W47518  19.076  19.119  12.407  0.1750  0.1852 -0.1397
31258W        W47519   9.876  17.541   3.508  0.0681  0.1041  0.2383
31259W        W47520   5.233  13.554  12.379  0.1868  0.1994  0.0526
31260W        W47521   7.890   6.556   4.201 -0.0029  0.0962  0.2455
31261W        W47522   7.219  17.302  13.690  0.0250 -0.2866 -0.1586
31262W        W47523  16.291   5.613   2.381  0.1363 -0.0411  0.1366
31263W        W47524   9.626  14.913   4.052 -0.2046  0.0134 -0.2293
31264W        W47525   6.997   2.687   1.568  0.0463 -0.2816 -0.1379
31265W        W47526   2.809   1.309  12.424 -0.0775 -0.1321 -0.1244
31266W        W47527   0.926   7.494   0.387  0.1265 -0.2624  0.1264
31267W        W47528  16.933  12.986  14.330  0.1743 -0.1179 -0.0760
31268W        W47529  10.013   0.610   1.254  0.1210 -0.0646  0.1700
31269W        W47530   9.759   9.612   4.952 -0.2001  0.3224  0.2643
31270W        W47531   9.957   4.442  10.480  0.1858 -0.3278  0.1072
31271W        W47532  18.443  14.250  14.653 -0.1730  0.2414  0.0061
31272W        W47533   6.909   5.176   1.303 -0.1259 -0.0505 -0.1871
31273W        W47534   7.044   9.244   5.212  0.1008  0.1694 -0.1331
31274W        W47535  10.855   1.954   0.300  0.0256 -0.0685 -0.0333
31275W        W47536   5.636   7.077  13.953 -0.0813  0.1034 -0.2812
31276W        W47537  10.388  11.588  10.800  0.0016  0.1920  0.3593
31277W        W47538  13.114   4.114   1.830 -0.1363 -0.1512  0.0530
31278W        W47539   0.850   6.925   4.164  0.0414  0.5000 -0.0255
31279W        W47540   9.925  17.611   1.674  0.0565  0.2623  0.1233
31280W        W47541   1.292   3.252  11.668 -0.1448 -0.2460 -0.2611
31281W        W47542  14.316  18.369   3.264  0.1389  0.1718 -0.3449
31282W        W47543   1.417  13.657   3.726 -0.4642 -0.3230 -0.1482
31283W        W47544   7.297   3.799  12.125 -0.0653  0.0944  0.1614
31284W        W47545  18.937  15.143   3.652  0.0011 -0.0767 -0.0659
31285W        W47546   4.244   1.367   3.243  0.1264  0.1461 -0.0489
31286W        W47547  10.256  13.199   2.698  0.0589  0.0728  0.0898
31287W        W47548   7.506   8.954   1.367 -0.3597  0.3221 -0.2256
31288W        W47549  13.607  16.963  14.851  0.0977  0.0341  0.0083
31289W        W47550  18.809   5.590   4.484  0.0524 -0.1615 -0.3202
31290W        W47551  18.677  16.923  14.020  0.0059  0.0347  0.0765
31291W        W47552  15.819  12.286   2.215  0.3278  0.1296  0.3184
31292W        W47553  10.735  12.624  14.347 -0.1208  0.1542 -0.2650
31293W        W47554  14.349  18.612   2.533 -0.3249 -0.1220 -0.2330
31294W        W47555   5.253   3.948  11.118  0.0301  0.1444 -0.0219
31295W        W47556  18.585   8.735  10.096 -0.0606  0.0989 -0.2652
31296W        W47557   3.877  14.316   5.073  0.0130  0.0738 -0.0771
31297W        W47558   5.545  17.406   1.872 -0.1334 -0.0553 -0.0542
31298W        W47559  10.358  17.441   2.235  0.2305  0.1601  0.0245
31299W        W47560  10.556   1.091   0.826  0.1493 -0.0751 -0.1309
31300W        W47561  14.415  11.498  12.025 -0.1318 -0.2399 -0.0283
31301W        W47562  17.442   2.922  14.191 -0.1252 -0.2465 -0.0785
31302W        W47563   5.848   3.234  10.951  0.0670  0.1154  0.0153
31303W        W47564   9.835   0.227  13.487  0.1943 -0.5126 -0.0638
31304W        W47565  12.962   2.526   9.365  0.3485  0.0880  0.1528
31305W        W47566   0.928  15.604   1.994  0.3930 -0.1751  0.3727
31306W        W47567  18.860   2.338   5.611  0.1396  0.0543  0.3629
31307W        W47568  15.033   2.956  14.110  0.0143 -0.1412  0.0137
31308W        W47569  18.944  10.044   0.969 -0.1275  0.3208  0.1347
31309W        W47570  14.588  10.218  10.290 -0.0480  0.2813 -0.0410
31310W        W47571   5.156   6.028   4.374  0.0651 -0.1595  0.0785
31311W        W47572   3.166   2.178   5.221 -0.1642  0.0693 -0.0217
31312W        W47573   6.232   6.369   2.902  0.0208  0.1663 -0.3428
31313W        W47574   7.859  15.769   4.533 -0.0540 -0.1885 -0.2995
31314W        W47575  17.230  12.856  12.295  0.3597  0.3787  0.1387
31315W        W47576   1.923   0.028  13.090 -0.1897 -0.0990 -0.1035
31316W        W47577   8.219   0.386  13.142 -0.2719  0.3207 -0.1209
31317W        W47578   5.011  12.024   0.910 -0.1050 -0.2290 -0.3636
31318W        W47579  12.069   8.994   2.839 -0.0158  0.0803 -0.1239
31319W        W47580  14.226  17.930  10.371 -0.1725  0.1766  0.1276
31320W        W47581  12.431   2.558  12.480 -0.0541 -0.0133  0.1587
31321W        W47582   6.959   8.291   0.025  0.0243  0.1546  0.2757
31322W        W47583  11.984  12.827   4.875 -0.0882 -0.4069  0.0263
31323W        W47584   4.969  16.287   0.304  0.1175  0.1139 -0.0209
31324W        W47585   4.611   9.351  10.290  0.3068 -0.2224  0.0235
31325W        W47586  14.997  18.523  11.029  0.2228 -0.0123  0.3749
31326W        W47587   5.965   1.081   1.413  0.0407 -0.0530  0.2449
31327W        W47588   4.129   4.143   0.963 -0.1868 -0.1224  0.3852
31328W        W47589   8.611  13.329  13.224  0.1417 -0.1916  0.1801
31329W        W47590   1.882  16.609   2.067  0.2215  0.0622  0.2468
31330W        W47591  16.046  14.001   2.851  0.2719  0.2494 -0.2741
31331W        W47592  14.607  12.638   1.383 -0.1799  0.3618 -0.1924
31332W        W47593   4.021   1.145  12.517  0.1884  0.2856 -0.1793
31333W        W47594  17.011   4.957  11.804 -0.0849 -0.1264 -0.0598
31334W        W47595  16.777  14.281  14.868  0.0461 -0.0302  0.0026
31335W        W47596   6.702  14.858  14.836 -0.1579 -0.0891  0.1028
31336W        W47597   1.181  16.757   0.273  0.1622 -0.1691  0.2155
31337W        W47598   4.330  11.406   0.876 -0.2127 -0.2339  0.0060
31338W        W47599   0.141  17.185  12.773 -0.0026  0.3350  0.2200
31339W        W47600  10.981   7.163  13.188 -0.2822  0.2371 -0.0287
31340W        W47601   7.680  15.848   0.576  0.0389  0.1871 -0.1867
31341W        W47602  19.370   7.158  12.402 -0.1559  0.2091  0.2467
31342W        W47603  15.325  17.968   5.064  0.1011 -0.1252  0.1080
31343W        W47604   2.404   2.650   1.136 -0.2702 -0.2175 -0.0638
31344W        W47605  14.510   1.764   3.327  0.0530  0.3902  0.2159
31345W        W47606  11.683   5.592  11.263 -0.0969 -0.0147 -0.1097
31346W        W47607   7.297   0.834   3.724  0.0202 -0.0648  0.1359
31347W        W47608  13.514  10.258   2.536 -0.1067  0.2771 -0.0908
31348W        W47609   0.503  14.878   2.267  0.3444 -0.0328 -0.1318
31349W        W47610  17.484  10.939  10.892 -0.0881  0.0307 -0.1349
31350W        W47611   9.511   5.428   1.081  0.2948 -0.4625  0.1403
31351W        W47612  15.473   6.354   3.047 -0.2147  0.2246  0.0492
31352W        W47613  15.096   7.094   2.584 -0.0274  0.1473 -0.2283
31353W        W47614  13.830  18.618   2.129  0.0624  0.1143  0.2257
31354W        W47615  13.320   0.768   9.102  0.0419  0.0477 -0.2849
31355W        W47616   8.796   4.682  14.327 -0.3013  0.3706  0.1605
31356W        W47617   3.021  17.880   6.210  0.4506  0.0814 -0.1572
31357W        W47618  17.173   4.079  12.239  0.2544 -0.0422  0.2274
31358W        W47619   1.397   2.481   4.145  0.2243 -0.1755 -0.0925
31359W        W47620  16.784   3.235  13.584  0.1314  0.1349 -0.3624
31360W        W47621   9.154  19.138   0.740  0.3122 -0.0440  0.3715
31361W        W47622   7.569  15.105  14.688  0.1535  0.1690  0.0998
31362W        W47623  11.140  17.875   2.190 -0.3473 -0.0796  0.0622
31363W        W47624   0.998   0.659   3.709 -0.0714  0.0517  0.4207
31364W        W47625   0.145   5.718   5.772 -0.0339  0.1528  0.2446
31365W        W47626  11.102  17.189  12.582  0.1627 -0.2436  0.0642
31366W        W47627   4.199  18.885   3.329  0.0407  0.1672 -0.0854
31367W        W47628  17.531  19.337   2.507 -0.2473 -0.1703 -0.0998
31368W        W47629  16.598  13.044  13.921  0.0098  0.0744  0.0298
31369W        W47630  15.757  12.060  13.363 -0.4566 -0.1695  0.0311
31370W        W47631   9.521  15.809  14.580  0.4822 -0.1238  0.0384
31371W        W47632  10.242   9.689  11.738  0.0639  0.2197 -0.3338
31372W        W47633  12.395  14.842  13.871 -0.2295  0.1624 -0.0393
31373W        W47634   5.327  12.085  11.992 -0.2312 -0.2709 -0.0152
31374W        W47635  13.019   8.489   0.188  0.3065 -0.4542  0.2662
31375W        W47636  14.320   1.251   2.653 -0.0772  0.2530 -0.1024
31376W        W47637   1.768   2.664  10.779  0.1141 -0.0581  0.1600
31377W        W47638   4.172   9.403   4.832  0.2407  0.3231  0.0079
31378W        W47639  18.237   8.491   1.731 -0.1004 -0.1178  0.0488
31379W        W47640   9.261   8.314   0.014 -0.1393 -0.0373  0.0906
31380W        W47641   4.061  14.835  12.001 -0.1125 -0.0883 -0.1179
31381W        W47642  11.841   6.830   2.928 -0.1573 -0.1174 -0.2306
31382W        W47643   0.540   3.109   0.917  0.3750 -0.1185 -0.1738
31383W        W47644   7.801  17.671   2.989  0.2348 -0.0615 -0.0442
31384W        W47645  18.880   2.391   3.031 -0.0712 -0.0028 -0.2118
31385W        W47646  15.789   0.354   0.317 -0.1866  0.0051 -0.3179
31386W        W47647   1.929   2.459   4.390 -0.1920 -0.0872  0.1071
31387W        W47648  16.770  12.907   0.322  0.1877 -0.0841  0.0881
31388W        W47649   0.628   3.040  14.143 -0.0479 -0.1589 -0.1534
31389W        W47650   4.774   6.494  13.489  0.0553  0.2074  0.0728
31390W        W47651  17.527   6.356  11.650  0.1430 -0.3127  0.0788
31391W        W47652   4.488  11.520   5.235  0.1410 -0.2720 -0.2017
31392W        W47653  11.144   4.088   1.921 -0.0088  0.1552 -0.1569
31393W        W47654   4.810   0.715   3.509 -0.0344  0.2916  0.1419
31394W        W47655   8.811   4.432  14.825  0.3666  0.2010  0.1122
31395W        W47656  11.239   5.891  10.329 -0.1007  0.2141 -0.0464
31396W        W47657  11.043  12.672  11.182  0.2643  0.0692  0.0016
31397W        W47658   1.453   9.918  12.519  0.0004 -0.3177 -0.1622
31398W        W47659   4.428  10.605  13.964  0.2115  0.2229 -0.1132
31399W        W47660  16.558  14.344  10.102 -0.2682 -0.0371  0.0122
31400W        W47661   4.956  16.789   1.547  0.5743 -0.2474 -0.0334
31401W        W47662   4.222   4.953   3.861  0.0261  0.1248  0.1810
31402W        W47663  18.439   3.265   1.759 -0.3224 -0.0089  0.2022
31403W        W47664   6.828   6.996   5.523  0.0607 -0.0788 -0.3279
31404W        W47665   4.819   7.848   3.569 -0.0124 -0.0430  0.3108
31405W        W47666  13.330   0.785   3.400  0.0913 -0.0084 -0.1020
31406W        W47667   7.142  15.193   9.851  0.1288 -0.1221 -0.0406
31407W        W47668  15.048   5.403  14.541 -0.1616  0.2100  0.0725
31408W        W47669  11.807   9.536  11.966 -0.2003 -0.0241  0.1886
31409W        W47670   1.230   1.397  13.659 -0.0634 -0.1305 -0.1478
31410W        W47671  11.927  12.064  11.327  0.1257 -0.1118  0.2451
31411W        W47672   7.769   7.162  11.968  0.2284 -0.0857 -0.2596
31412W        W47673   4.511  18.628   0.229  0.0449 -0.3059  0.1401
31413W        W47674   7.498  16.269   5.605 -0.1045 -0.0456  0.1011
31414W        W47675   5.402   1.686   3.925 -0.1145 -0.1821  0.0926
31415W        W47676   3.633  17.384   5.240 -0.1411  0.1187 -0.2744
31416W        W47677  16.505  15.302   0.510  0.1489  0.0170  0.3589
31417W        W47678   2.952  18.930  14.200 -0.2738  0.1616 -0.4857
31418W        W47679  19.286  18.526  11.981  0.0090 -0.1472 -0.1510
31419W        W47680   7.085  12.124   1.270 -0.0119 -0.1275 -0.2108
31420W        W47681  18.524   2.819   0.897  0.0936  0.0506  0.0462
31421W        W47682   0.150  14.681  10.760  0.0834  0.2499 -0.0275
31422W        W47683  15.421   0.855   2.387 -0.1159  0.1783  0.1184
31423W        W47684  14.000   3.732   2.385  0.2580  0.1028  0.1173
31424W        W47685   4.433  10.602   1.419  0.0039  0.5515  0.3755
31425W        W47686  17.465   3.828   0.059 -0.2190  0.1046  0.1863
31426W        W47687  17.773   4.302  11.059 -0.1826 -0.0196  0.0504
31427W        W47688  12.611  13.699   0.187 -0.3098  0.4047  0.4888
31428W        W47689  19.213  19.176   5.310  0.1623 -0.0573  0.1555
31429W        W47690   1.451  15.475   1.096 -0.1187 -0.1608  0.1140
31430W        W47691   2.301  18.088  10.670 -0.2848  0.1797 -0.0976
31431W        W47692   9.059   2.819   3.397  0.0746  0.0178 -0.0609
31432W        W47693   2.922  11.878  14.025  0.0003 -0.0178  0.1472
31433W        W47694  12.308   4.702   0.999  0.1535  0.2760 -0.0356
31434W        W47695  16.887  14.119   3.319 -0.0760  0.0285  0.3251
31435W        W47696  11.872   5.876  13.986 -0.0811 -0.2766 -0.3061
31436W        W47697   1.214  12.759   0.692 -0.2516 -0.4469  0.0696
31437W        W47698  11.102  17.661  13.326 -0.1723  0.2195  0.0804
31438W        W47699   2.041   1.474  12.597 -0.2147  0.0622 -0.4291
31439W        W47700  13.417  18.294   0.004 -0.1832 -0.1294  0.0324
31440W        W47701  11.820  18.267   2.776 -0.0845 -0.0463  0.1375
31441W        W47702   4.580  11.039  12.145  0.0297  0.0896  0.1952
31442W        W47703  16.324  11.695   0.673  0.3291 -0.1510 -0.2636
31443W        W47704   8.693   8.128   0.162  0.0945  0.0404  0.0002
31444W        W47705  12.004   7.736  13.227 -0.0187  0.1273  0.1170
31445W        W47706   6.225   7.707   4.745 -0.0659 -0.2674  0.0771
31446W        W47707  18.792   7.415   0.094  0.1323 -0.3733 -0.0671
31447W        W47708   8.637   9.194  10.353 -0.0091  0.1141  0.0747
31448W        W47709   7.185   5.313  14.306 -0.1058 -0.2601  0.0485
31449W        W47710   5.988  12.038   2.109 -0.1957  0.0986 -0.4541
31450W        W47711   2.552   8.266   2.051  0.2353  0.0954 -0.0360
31451W        W47712   2.008   5.244   2.359 -0.2998 -0.0626 -0.2627
31452W        W47713  16.987  19.361   1.656 -0.1882 -0.2592 -0.1010
31453W        W47714   3.714  10.400  11.548 -0.1004 -0.1052 -0.0085
31454W        W47715  16.922   7.430  11.636  0.0730 -0.1204  0.0887
31455W        W47716   6.770  11.012  14.106  0.2655  0.0656  0.0023
31456W        W47717  17.772   5.820   1.651  0.1602  0.0261 -0.1696
31457W        W47718  14.820   2.349  10.989 -0.1108 -0.0896  0.1576
31458W        W47719   0.336  14.360  12.075  0.1373  0.2076  0.1417
31459W        W47720  18.573  16.017   2.563  0.2290 -0.2796 -0.0718
31460W        W47721   9.371   0.952  11.647  0.2339  0.1505 -0.0681
31461W        W47722   2.165  15.450  12.860  0.1310  0.1031 -0.2157
31462W        W47723   1.750  18.638   0.805  0.1185 -0.4478  0.3368
31463W        W47724  12.718   8.671  14.077 -0.3868  0.3514 -0.0049
31464W        W47725  12.012   5.033  12.023  0.2405 -0.0018 -0.1021
31465W        W47726  12.095  13.914  13.501  0.1241  0.1440  0.0330
31466W        W47727   9.231   6.873  12.900 -0.4989 -0.1685  0.2140
31467W        W47728   7.522  17.950  13.562 -0.1965  0.0949 -0.1897
31468W        W47729  18.349   9.622   3.225 -0.1938  0.1141 -0.1828
31469W        W47730   5.799  18.208   0.348 -0.3453 -0.5200  0.5968
31470W        W47731   2.184   6.554   2.461 -0.2313  0.0696 -0.0609
31471W        W47732   2.768   6.393   3.315  0.4904  0.0328 -0.0265
31472W        W47733  17.713  13.323   2.289 -0.1279 -0.2115 -0.0983
31473W        W47734  10.258   5.583   0.483  0.2684  0.1885  0.0180
31474W        W47735   1.302  14.402   0.849 -0.3183  0.1531  0.2366
31475W        W47736   1.809  11.383   4.192  0.2033  0.0166 -0.0506
31476W        W47737   8.589   1.813   2.524 -0.0645  0.1193  0.0802
31477W        W47738   7.858   4.122   4.018  0.2181 -0.1173  0.1421
31478W        W47739   7.202   5.854  11.200 -0.1889  0.5572  0.1866
31479W        W47740  14.495  10.968  13.297  0.0018  0.1704 -0.0415
31480W        W47741  13.126   5.847   5.721 -0.3636  0.1436 -0.3288
31481W        W47742   8.502  12.283   2.059 -0.1367 -0.0296  0.1442
31482W        W47743  16.969  16.275   1.925 -0.0271 -0.2735  0.3351
31483W        W47744   9.278   8.292  13.211  0.0692 -0.0243  0.2644
31484W        W47745   4.474   8.263   2.291  0.2712 -0.0168 -0.0713
31485W        W47746   3.554   7.208   4.046  0.2328  0.0791 -0.0770
31486W        W47747   4.203  16.179  10.607 -0.4234 -0.0857  0.1085
31487W        W47748   6.399   7.896  10.767  0.2337 -0.1418 -0.0111
31488W        W47749  10.762   4.273   5.464  0.0920 -0.1240 -0.0571
31489W        W47750  12.129   9.591   0.390 -0.2078 -0.2157 -0.1451
31490W        W47751   9.326   4.556   1.844  0.0034 -0.0393  0.1142
31491W        W47752  18.917   2.755  10.830  0.0650 -0.2817 -0.2344
31492W        W47753   7.889   7.803   1.759 -0.0134  0.0593 -0.2737
31493W        W47754  16.946   0.400  14.516  0.2139  0.0454  0.1935
31494W        W47755   8.374   5.726  11.432  0.0052 -0.0872 -0.2183
31495W        W47756  12.449   0.065  12.009  0.0022  0.3100 -0.1219
31496W        W47757   1.397  10.666  11.101  0.0683  0.2088  0.1800
31497W        W47758  10.870   2.203  11.955  0.3441  0.1494  0.3391
31498W        W47759   0.196   6.909  13.854  0.0741 -0.3433 -0.0011
31499W        W47760   5.910  14.699  12.820 -0.4918 -0.2879 -0.0194
31500W        W47761  12.537   2.670   1.450  0.1665  0.1639  0.0170
31501W        W47762  18.028   7.192   2.084 -0.3977 -0.2343 -0.2078
31502W        W47763   2.294  11.270   4.241 -0.0823 -0.2100  0.0912
31503W        W47764  12.778  15.573  10.484 -0.2740 -0.2694  0.2372
31504W        W47765  14.748  18.551   2.153  0.0929 -0.3494  0.2824
31505W        W47766  11.027   6.694   1.551 -0.0552 -0.1294 -0.2216
31506W        W47767   9.086  11.635  12.961  0.3864  0.3425 -0.2440
31507W        W47768   7.477   1.563   5.018 -0.2565 -0.2263 -0.0039
31508W        W47769  15.122  15.702   1.016  0.0999  0.0451 -0.0854
31509W        W47770   4.033  15.784   3.747 -0.0291  0.3262  0.0922
31510W        W47771  11.766  12.542   1.432  0.4259 -0.0785 -0.2993
31511W        W47772   1.302  13.389  14.292  0.2492 -0.0806  0.2014
31512W        W47773   2.797  13.735  10.276  0.0754 -0.0002 -0.0375
31513W        W47774   6.599  15.683   3.927 -0.2481  0.0556 -0.0295
31514W        W47775  18.657   8.833  12.682  0.1448 -0.2860 -0.0911
31515W        W47776  19.074   6.413   2.200 -0.1260 -0.3817 -0.0292
31516W        W47777  18.243  17.979   4.943 -0.0752  0.0328 -0.2650
31517W        W47778   7.518   0.754  11.100  0.1302 -0.0003 -0.2211
31518W        W47779  16.652  10.486  12.877 -0.1523  0.1189  0.3331
31519W        W47780   6.815   3.151  13.434 -0.0522  0.2308  0.1128
31520W        W47781   8.320  11.438  14.876 -0.0492 -0.0419  0.0912
31521W        W47782  19.045  13.252  13.001 -0.0378 -0.4772 -0.1170
31522W        W47783  11.650  15.179   3.340  0.0201 -0.1781 -0.2506
31523W        W47784  11.375   8.470  10.923  0.0471 -0.0396 -0.3327
31524W        W47785   5.197   5.746  14.538  0.1620  0.0267 -0.2883
31525W        W47786   6.494  10.112  12.801 -0.0655  0.0981 -0.1700
31526W        W47787  14.999   5.065  13.157  0.1108  0.1214 -0.1158
31527W        W47788   2.652   6.852  14.098 -0.4159  0.2774  0.1162
31528W        W47789  11.573   7.925   3.281  0.2824 -0.1359  0.1998
31529W        W47790  14.490  13.818  13.893 -0.2292 -0.4953 -0.2179
31530W        W47791   2.044   4.873   6.175 -0.0585  0.1096  0.1931
31531W        W47792  18.372   3.892  12.552  0.0143 -0.3273 -0.0464
31532W        W47793  15.051  16.276   0.924 -0.1751  0.1649 -0.0027
31533W        W47794   8.467   7.277   0.464  0.1063 -0.0790 -0.1188
31534W        W47795  18.502   2.991   5.040  0.0507 -0.4191  0.2935
31535W        W47796   7.317   0.385  14.105 -0.1056  0.0392 -0.1070
31536W        W47797   5.223  10.709  11.650  0.0877 -0.3931 -0.0108
31537W        W47798   6.766  13.005   1.609  0.1226 -0.2825 -0.1092
31538W        W47799  14.317   2.732   0.670  0.2506  0.1375  0.0101
31539W        W47800  17.511  14.235  14.174  0.3157 -0.1193  0.2321
31540W        W47801   1.131  18.031  13.361 -0.0220 -0.1966  0.0180
31541W        W47802   9.192  19.127  11.870 -0.1847  0.2155  0.0968
31542W        W47803  17.835  13.018  12.391  0.2191 -0.0746 -0.0787
31543W        W47804   3.112  10.213  12.084  0.1545 -0.0263  0.2341
31544W        W47805   3.244  18.355  12.451 -0.0297 -0.2610 -0.0975
31545W        W47806  13.121   3.436  11.483  0.0511 -0.2131  0.2306
31546W        W47807  16.585  17.686  10.719  0.3442  0.0273  0.1085
31547W        W47808  16.967   4.918  10.474 -0.1659  0.5291 -0.2179
31548W        W47809   9.608   1.006  12.933 -0.1580 -0.0108  0.0784
31549W        W47810   8.144  11.918  13.290  0.2405  0.0502 -0.2611
31550W        W47811   1.026   4.119   5.605 -0.1948 -0.0572 -0.3477
31551W        W47812   4.703   5.133   0.988  0.0846  0.2367  0.4176
31552W        W47813   4.728  14.148   2.552 -0.2547 -0.0166  0.3891
31553W        W47814   5.844   3.937  13.827  0.2859 -0.1308  0.0542
31554W        W47815   7.954   6.928   4.528  0.4146  0.0283  0.1614
31555W        W47816   2.171  16.929   2.958  0.0578 -0.1654  0.0412
31556W        W47817   3.043   3.051   1.678 -0.2561  0.0859 -0.0267
31557W        W47818  19.180  11.817  13.313  0.1041 -0.2863  0.0238
31558W        W47819  11.250  10.468  13.182  0.0392 -0.0280 -0.0926
31559W        W47820  17.574   9.197  14.127 -0.2318  0.0339  0.0706
31560W        W47821  10.043  18.650  14.446 -0.2060 -0.0238 -0.0190
31561W        W47822  16.142   2.956   0.811  0.5081  0.1769  0.1270
31562W        W47823   2.486   9.313   9.242 -0.1452  0.1469  0.2747
31563W        W47824  15.582   7.977   1.670 -0.1227 -0.0506  0.3306
31564W        W47825   8.761  11.352   4.052  0.3296 -0.3877  0.1859
31565W        W47826  16.079  13.708  10.485  0.1338  0.1180  0.0325
31566W        W47827  10.119   7.477   1.168 -0.0504 -0.1367 -0.2441
31567W        W47828   8.019  16.376  14.573  0.1070 -0.0110 -0.0547
31568W        W47829   3.739   4.030   4.667 -0.1183  0.1757  0.1739
31569W        W47830   7.159   4.581  14.346  0.0499 -0.2192 -0.3825
31570W        W47831   7.723  13.192   1.135 -0.1323  0.0186 -0.1665
31571W        W47832  11.372   1.522   0.678 -0.1859  0.1253 -0.1469
31572W        W47833   9.496   5.767  14.122 -0.4305  0.3039  0.2758
31573W        W47834  15.015  11.613  10.830 -0.0798  0.3649 -0.2405
31574W        W47835  13.660  12.755   4.435  0.0030  0.1101 -0.2160
31575W        W47836  13.925  15.064  11.378  0.2454 -0.0457 -0.0797
31576W        W47837   1.350   0.311   3.684 -0.2777  0.0326  0.0831
31577W        W47838   1.268   7.836  14.452 -0.0845 -0.3166  0.1425
31578W        W47839  16.625  18.262   3.528 -0.2275 -0.0073 -0.1470
31579W        W47840  10.719   0.695  10.880 -0.1870 -0.3337  0.2539
31580W        W47841   5.959  17.235   0.144 -0.0542 -0.0353 -0.0075
31581W        W47842   8.711   3.972   1.762  0.2771  0.0611  0.0421
31582W        W47843   1.126  14.399  14.545 -0.0068  0.1638  0.1687
31583W        W47844  12.482   0.082  10.607 -0.0271 -0.1996  0.1280
31584W        W47845  10.574  14.397   1.931 -0.1861 -0.1682  0.4300
31585W        W47846  16.752   1.913   2.704  0.2777 -0.0109 -0.0978
31586W        W47847   3.042  10.891   3.583  0.0665 -0.1272 -0.0679
31587W        W47848  10.692   5.097  10.401 -0.2349 -0.2410 -0.2982
31588W        W47849   9.342  18.086   0.240  0.0025  0.0060 -0.1599
31589W        W47850   4.513   7.376  14.128 -0.2335 -0.3779 -0.0130
31590W        W47851  16.869  18.236   0.003  0.1496  0.0250 -0.2133
31591W        W47852   2.215   8.085   3.791  0.0920  0.3295 -0.3425
31592W        W47853  13.100   6.505   1.311 -0.1485  0.1633  0.0750
31593W        W47854  12.192   3.577   2.567 -0.1408  0.1382 -0.2358
31594W        W47855   9.151   0.410  10.227  0.0253  0.1518 -0.0135
31595W        W47856   3.883   6.169  13.540  0.0507  0.0468 -0.0370
31596W        W47857   3.112   2.559   3.095  0.1651 -0.1073  0.1026
31597W        W47858   4.670   7.334  11.538 -0.3138  0.2670  0.1315
31598W        W47859  12.284  10.306  10.655  0.1401  0.2812 -0.0859
31599W        W47860   2.445   5.724  12.825  0.0473 -0.2286  0.2313
31600W        W47861   3.187   4.776   2.855 -0.0718  0.2699  0.1462
31601W        W47862   7.166  16.493   2.563 -0.0240  0.2060  0.1100
31602W        W47863   8.362   5.101  14.247  0.2908  0.1022  0.0878
31603W        W47864   1.602   7.131  14.061  0.1136  0.0695 -0.3435
31604W        W47865   5.252   6.792  14.660 -0.1073  0.1193 -0.0868
31605W        W47866   4.748   4.614  14.155  0.0392  0.1712 -0.2412
31606W        W47867  17.212  12.632   3.875 -0.1939 -0.0471 -0.0533
31607W        W47868   2.595   3.583  11.554  0.1647  0.4331 -0.0262
31608W        W47869  19.378  17.287   4.752  0.3080  0.0028 -0.3403
31609W        W47870   8.567   2.905   1.502  0.0354  0.0468 -0.2720
31610W        W47871  12.498  10.348   3.371  0.1076  0.2603 -0.0185
31611W        W47872   9.210   4.864  14.023  0.3235 -0.0817  0.2796
31612W        W47873  15.448   7.736  14.062 -0.0281  0.1997 -0.2884
31613W        W47874  10.671  10.307   1.113  0.1135 -0.1631  0.4522
31614W        W47875   2.382  15.618  10.809 -0.0609 -0.2873 -0.4755
31615W        W47876   0.463  18.237  11.033 -0.1865  0.0886 -0.0726
31616W        W47877  12.045   3.318  11.885 -0.4712  0.0572 -0.2293
31617W        W47878   2.793  13.854  12.371  0.0950  0.1831 -0.0691
31618W        W47879  11.612   9.309   3.356 -0.0653  0.1872 -0.1446
31619W        W47880   9.813   4.408   0.177  0.0811  0.1110  0.1706
31620W        W47881   6.831   7.488  14.419 -0.2326 -0.1168  0.1069
31621W        W47882  14.650   5.406  12.160 -0.2043 -0.1288  0.3125
31622W        W47883   2.395   2.464   4.528  0.1560 -0.1538  0.3593
31623W        W47884  13.482  13.942  11.203  0.1193 -0.4341  0.1289
31624W        W47885   7.739   1.262   4.434  0.1335  0.2454 -0.0359
31625W        W47886  13.931   7.012  12.528 -0.0319  0.1473 -0.1898
31626W        W47887   9.879   9.299  10.174 -0.6619 -0.0615 -0.0646
31627W        W47888  15.927   6.833   5.192 -0.0725 -0.0100  0.1005
31628W        W47889   9.877   1.922   0.462 -0.1347  0.1949  0.2414
31629W        W47890  17.665  18.495  12.339 -0.0688  0.2747 -0.1412
31630W        W47891  17.514  18.021  10.625  0.3193 -0.1258 -0.0627
31631W        W47892   9.413  18.482  10.503 -0.1776 -0.1013 -0.1135
31632W        W47893   2.998  16.464  10.372 -0.0508  0.3501  0.2387
31633W        W47894  14.077   1.084   1.189  0.0402 -0.1599  0.0296
31634W        W47895   1.376  17.772   3.318  0.1341  0.0298 -0.2727
31635W        W47896  17.391   9.274   4.995 -0.0307 -0.2354  0.0465
31636W        W47897  17.448  11.175   1.037 -0.1599 -0.0253 -0.1889
31637W        W47898  13.228  13.878  12.622 -0.1598  0.1624  0.2966
31638W        W47899   0.958  10.316   3.805 -0.1590 -0.1936 -0.4241
31639W        W47900  10.414   3.357   5.417 -0.1803 -0.3093  0.1405
31640W        W47901   8.724  18.929  13.094 -0.1948 -0.0866 -0.2047
31641W        W47902   4.762  15.143  14.146  0.1994 -0.1400 -0.2049
31642W        W47903  12.706  16.689   4.278  0.1116  0.0531 -0.1299
31643W        W47904  13.980   0.946   2.361  0.0327  0.0231 -0.0477
31644W        W47905  15.916  12.022   4.376 -0.4648  0.3424  0.1515
31645W        W47906  15.563  12.467  13.739  0.0623  0.1366 -0.0912
31646W        W47907   6.806   1.403  13.832 -0.0613  0.2728 -0.0447
31647W        W47908  12.847  11.616  12.697 -0.2785 -0.2217  0.0311
31648W        W47909  18.639   6.428   0.507  0.1668  0.2465  0.0654
31649W        W47910  18.810  17.821  14.025 -0.0735 -0.0722  0.0235
31650W        W47911   7.032  14.012   0.429 -0.0379  0.0957 -0.2652
31651W        W47912   0.162   2.499   1.134 -0.1680 -0.0822 -0.2133
31652W        W47913   9.596  18.662  10.928 -0.0429 -0.1289  0.5523
31653W        W47914   4.036   5.013  13.602 -0.1380 -0.1581 -0.2080
31654W        W47915  13.217   5.099   2.073 -0.1351 -0.2807 -0.2186
31655W        W47916   8.473  16.659  12.030 -0.0975 -0.0965  0.0747
31656W        W47917  13.042  12.810   1.427  0.0168  0.0761 -0.2052
31657W        W47918   0.056   5.325   2.648  0.0323  0.5290  0.0861
31658W        W47919  18.233   6.641  12.700 -0.0770  0.1584 -0.0251
31659W        W47920  14.805  14.408  10.423 -0.1631  0.0246  0.1624
31660W        W47921  10.835   6.983   0.599  0.1439  0.1555 -0.1818
31661W        W47922   2.395   5.997   5.174  0.3774  0.1176 -0.3523
31662W        W47923   1.967   5.981  11.501 -0.2977 -0.1799  0.2022
31663W        W47924  15.233   4.210  12.124 -0.0928 -0.0603  0.2077
31664W        W47925   2.770  12.452  12.390 -0.0533  0.1819  0.1206
31665W        W47926   5.502  19.289   1.619  0.2172  0.1598 -0.1757
31666W        W47927  11.037   1.487   1.111  0.0371  0.2777  0.3305
31667W        W47928   4.497   1.244  11.067  0.1842 -0.3105 -0.1115
31668W        W47929  13.721   6.726  11.270 -0.0330 -0.3860 -0.1150
31669W        W47930   3.803   6.366  11.312  0.0583  0.0531  0.1530
31670W        W47931   6.240   7.968   3.333  0.2343  0.0187 -0.0306
31671W        W47932   4.883   7.420   3.866  0.0867  0.1316 -0.0424
31672W        W47933  14.709  17.759   2.696  0.2001 -0.1237  0.1044
31673W        W47934  18.813   4.859   1.923  0.0949 -0.0547  0.3048
31674W        W47935   0.406  13.804  12.170  0.1866 -0.0689  0.3256
31675W        W47936  17.452   5.370   3.494  0.1382 -0.0346  0.5168
31676W        W47937   1.797   5.619  14.591 -0.1844 -0.0017 -0.0998
31677W        W47938  17.542   6.995  12.045  0.1236 -0.0737  0.1612
31678W        W47939  12.568   8.601  13.478  0.0313 -0.0936  0.1777
31679W        W47940   7.689  13.631  13.832 -0.0518 -0.2146  0.1203
31680W        W47941   8.794  13.364  10.707 -0.1818 -0.3102  0.2592
31681W        W47942   4.284   6.148   0.637 -0.1299  0.1958 -0.0026
31682W        W47943  10.218   2.531   1.428  0.1835 -0.0850  0.1347
31683W        W47944  15.716  16.762   2.374 -0.1861 -0.0737 -0.1177
31684W        W47945   5.254  17.739  13.166 -0.1062 -0.0725 -0.5578
31685W        W47946  17.736  10.919   1.479 -0.0057  0.3710  0.0363
31686W        W47947   3.664   1.711   1.319 -0.3798 -0.2276 -0.1125
31687W        W47948   3.493   3.047   1.860  0.2157 -0.1467 -0.0787
31688W        W47949   6.062   2.643  14.439 -0.0389  0.0667  0.0258
31689W        W47950   2.722  14.905   1.904  0.2390  0.0696 -0.0977
31690W        W47951  13.271   3.808   3.394  0.0726  0.0845  0.0984
31691W        W47952  17.891  10.581  13.752 -0.1513 -0.2407  0.0338
31692W        W47953   4.787   9.980   2.099 -0.2103 -0.2017 -0.0226
31693W        W47954  18.498  14.648  13.508  0.2359 -0.1775 -0.0979
31694W        W47955   6.661   7.189   2.781 -0.2281 -0.0553 -0.1945
31695W        W47956  12.568  15.395   1.082 -0.2622  0.0144  0.0208
31696W        W47957   3.332  12.194   0.807 -0.1686 -0.0790 -0.0990
31697W        W47958  19.355  17.476   3.160 -0.2397  0.2754  0.0115
31698W        W47959   9.576   3.828   1.764  0.2075  0.3967 -0.0627
31699W        W47960  18.824  15.223  12.283  0.1143 -0.0751 -0.2568
31700W        W47961  10.956   8.315  14.196 -0.2208 -0.1571 -0.0859
31701W        W47962  12.466  13.196  13.931  0.0720  0.0848 -0.0410
31702W        W47963  18.010   3.147   3.816 -0.0097  0.0649 -0.0310
31703W        W47964  19.260   5.786  11.578  0.1562 -0.0291 -0.0422
31704W        W47965   1.950  14.423  11.234  0.0188 -0.0170  0.3240
31705W        W47966  12.205  12.022  10.199  0.1295  0.3760 -0.3823
31706W        W47967   2.251  15.484  11.811 -0.1121 -0.2995  0.2017
31707W        W47968  18.486   0.143  11.851 -0.2292  0.1661  0.3011
31708W        W47969  18.954   9.737   3.088 -0.0512  0.3618  0.0180
31709W        W47970  10.947   6.243  14.806  0.0948 -0.1078 -0.2711
31710W        W47971  10.636  10.104  10.121 -0.2169 -0.0790 -0.0874
31711W        W47972   5.666   8.008  12.506 -0.1718 -0.0443  0.2772
31712W        W47973  11.679  15.600   4.724  0.1072 -0.0057 -0.1050
31713W        W47974   9.482  18.207   0.690 -0.1263 -0.2652 -0.3066
31714W        W47975   5.286  18.916   3.958  0.0009 -0.1728 -0.0401
31715W        W47976   6.595  18.689   4.261 -0.0571  0.1598  0.1018
31716W        W47977   8.679   2.706  13.929 -0.2492 -0.1401  0.0174
31717W        W47978   6.000  12.303  10.973  0.1452 -0.1536 -0.0227
31718W        W47979   5.343   5.759  12.175  0.3372  0.2789  0.1698
31719W        W47980   8.130  12.362   2.402 -0.2162  0.1568  0.1480
31720W        W47981   5.306   4.282   2.586  0.0940  0.1074 -0.2103
31721W        W47982   8.330  13.468   4.127 -0.0384 -0.0520 -0.0372
31722W        W47983  14.630   9.424   5.361  0.3122  0.1503  0.0851
31723W        W47984  11.954  13.410   4.339  0.2257  0.1484 -0.3692
31724W        W47985   6.236  10.089   3.659 -0.0623 -0.3368  0.1049
31725W        W47986   3.787  10.413  12.104 -0.4417 -0.0154  0.3735
31726W        W47987  17.107  12.440  12.464 -0.0385  0.0372  0.0058
31727W        W47988  15.881   4.857   0.030 -0.2792 -0.1556  0.0008
31728W        W47989  12.258   1.096   1.666  0.3096  0.1510  0.1756
31729W        W47990   2.803   4.487  11.446  0.0853 -0.1150 -0.1780
31730W        W47991   4.313  11.162   4.611  0.0576 -0.1781  0.1544
31731W        W47992   1.653   1.742  13.997  0.0077  0.0560 -0.0134
31732W        W47993  10.525   5.008  13.375 -0.1077  0.1771  0.0329
31733W        W47994   0.431   3.740   0.051  0.0869 -0.1326 -0.1990
31734W        W47995   7.129  14.758  13.528 -0.2124 -0.4692  0.2145
31735W        W47996   5.602  14.989  13.080 -0.0967 -0.1031  0.1599
31736W        W47997  13.222   8.489  12.571  0.1622  0.4047 -0.2658
31737W        W47998   3.489  11.355   0.951  0.1661 -0.3092 -0.1358
31738W        W47999   2.120   1.595   5.774 -0.2221  0.0836 -0.1462
31739W        W48000   6.062  17.117  10.654  0.0855  0.1030  0.0551
31740W        W48001  17.776  11.318  12.714  0.2232  0.2851  0.1260
31741W        W48002   8.239   7.833   0.266 -0.0107  0.1019 -0.0422
31742W        W48003   0.744  11.199  13.914  0.1038  0.1804 -0.0719
31743W        W48004   6.925   7.397   5.060  0.1164 -0.0095  0.1016
31744W        W48005  18.447   8.401   0.836 -0.0737 -0.1161  0.0543
31745W        W48006   7.279  11.745  12.763  0.3459 -0.0212 -0.3078
31746W        W48007  16.588   3.004  11.507  0.0220  0.4050  0.1879
31747W        W48008  11.299  17.240   0.714  0.1910  0.0065 -0.4692
31748W        W48009   6.868  11.510   1.205 -0.2369  0.0616 -0.1030
31749W        W48010  18.646  10.978  13.238  0.4076 -0.1564  0.0450
31750W        W48011  12.448   5.146  14.061  0.2433  0.2048 -0.1454
31751W        W48012   0.698   5.897   0.362 -0.0151 -0.2150 -0.2732
31752W        W48013  14.810  15.727   3.503 -0.0623  0.3162  0.2144
31753W        W48014  14.991  13.163   3.400 -0.1015  0.4518  0.0921
31754W        W48015   9.489  14.955   3.455  0.0706 -0.0489 -0.0440
31755W        W48016  14.016  13.599   2.453  0.0417 -0.1390  0.0147
31756W        W48017  10.608   7.979   4.727  0.1428  0.0533  0.1264
31757W        W48018  17.325   8.155  12.419 -0.2550 -0.1290 -0.1557
31758W        W48019   9.902  13.660   1.924 -0.1335  0.2161  0.1605
31759W        W48020  17.502  15.071   3.905 -0.1630  0.2528  0.1541
31760W        W48021  10.121  19.292  11.338 -0.3376 -0.0803  0.1367
31761W        W48022  11.823   9.739  13.317 -0.1549 -0.0773 -0.1330
31762W        W48023  17.033  18.937  10.102 -0.3547  0.2197  0.1310
31763W        W48024   9.739  17.427  12.911 -0.0009 -0.4530 -0.1798
31764W        W48025  13.502  10.943  12.582  0.0748 -0.0390  0.2975
31765W        W48026  11.233   0.779  10.978  0.3379 -0.2370  0.0317
31766W        W48027  13.777  17.407   2.851 -0.0498 -0.1904  0.3486
31767W        W48028   3.024   4.374   2.684 -0.0164  0.0474  0.3753
31768W        W48029  13.741  11.802   3.440 -0.2170 -0.1877  0.1105
31769W        W48030   1.201   9.909   2.491 -0.2001  0.0547 -0.0583
31770W        W48031  17.481   7.083  12.615 -0.1883 -0.2128 -0.1097
31771W        W48032   1.485  17.142  12.159  0.1878 -0.1768  0.2813
31772W        W48033  17.114   6.773  13.685  0.0246 -0.1462 -0.1377
31773W        W48034   3.423  11.039  12.558  0.2055 -0.0924  0.1282
31774W        W48035   2.126  12.734   4.654 -0.1822 -0.1056  0.1293
31775W        W48036  18.838  12.522   2.147  0.0133  0.1025 -0.1067
31776W        W48037   1.084  13.519  13.551 -0.0313 -0.1450  0.4698
31777W        W48038   0.155   4.512   2.256  0.3017  0.2006  0.1858
31778W        W48039  19.109   7.000  12.872  0.2485 -0.3932 -0.2538
31779W        W48040  17.813  15.221   1.089 -0.4916 -0.2724 -0.1220
31780W        W48041   5.760   8.516  12.266  0.0867 -0.1048 -0.2996
31781W        W48042  17.134   8.154  10.872  0.0791  0.0087 -0.2179
31782W        W48043   2.416  10.181  11.178 -0.7935 -0.2502  0.2443
31783W        W48044   1.686  12.713  10.602 -0.3132 -0.0349 -0.0609
31784W        W48045  15.729   0.604  14.065  0.1319 -0.0786 -0.0563
31785W        W48046  11.973  15.606  11.738 -0.0353  0.0750 -0.2250
31786W        W48047  11.200  12.635  10.380 -0.2833 -0.1719 -0.1207
31787W        W48048  13.336   8.195   3.204 -0.2169  0.1527 -0.1109
31788W        W48049  18.797  18.120   1.994  0.2412  0.0870 -0.1765
31789W        W48050  18.110   9.547  10.292 -0.4778  0.1815 -0.2170
31790W        W48051  18.405  12.477  11.231 -0.1590 -0.0851 -0.1377
31791W        W48052   1.145   3.876   3.805  0.0960 -0.2141  0.1295
31792W        W48053  14.900   4.871   0.060 -0.1133 -0.0975  0.1847
31793W        W48054  15.692  18.012   1.617 -0.1124  0.3486  0.1763
31794W        W48055   4.067   9.604   5.899  0.0282  0.0399 -0.1888
31795W        W48056   9.707  14.396  10.079  0.0776  0.1804  0.1405
31796W        W48057  16.907  11.986  10.285  0.0183  0.1936  0.2377
31797W        W48058   8.737   7.353   4.799  0.2148 -0.1227  0.0585
31798W        W48059   7.362   0.513  13.075 -0.0790 -0.0216  0.0430
31799W        W48060  11.703   4.669   1.128  0.3738 -0.1622 -0.2619
31800W        W48061   9.087  11.652  11.960 -0.0676  0.0012  0.0637
31801W        W48062  11.778  13.130   3.555  0.0168 -0.0997  0.1837
31802W        W48063   7.130   1.941   3.226  0.0319  0.0999  0.0611
31803W        W48064   5.888  15.167  10.737 -0.0900  0.2126 -0.0582
31804W        W48065  11.940   3.054   4.368  0.2102 -0.1433  0.1562
31805W        W48066  12.736  18.581   0.534  0.0936  0.2288 -0.1191
31806W        W48067  19.314   3.457  12.543  0.2133  0.2360  0.1151
31807W        W48068   4.769   2.121   3.400  0.1529 -0.1474 -0.1786
31808W        W48069   6.230  11.593  12.251  0.1670  0.0066  0.1077
31809W        W48070   1.759  18.925  11.744 -0.0096 -0.1156  0.1714
31810W        W48071   1.310   3.810   0.906  0.2287  0.1535 -0.0436
31811W        W48072   9.825   4.337   1.908 -0.0642 -0.0371  0.2594
31812W        W48073  17.142  18.066   1.945  0.0869  0.0178 -0.0337
31813W        W48074   4.110   3.937  13.373 -0.0153  0.0511 -0.2429
31814W        W48075  10.359   7.978  13.526 -0.0134  0.1207 -0.1351
31815W        W48076  17.718  15.314  10.543 -0.0673  0.2355  0.0502
31816W        W48077  11.457  17.893   2.983 -0.1588  0.0198  0.1001
31817W        W48078  12.305  14.349   2.211 -0.0269 -0.2117 -0.0396
31818W        W48079  15.229  13.692   8.934  0.0931 -0.3022  0.2827
31819W        W48080  17.144   2.223   4.003  0.2219 -0.3618  0.1861
31820W        W48081  16.424  11.088  12.070 -0.0016  0.0184  0.1281
31821W        W48082   4.487   1.674   3.528 -0.1429 -0.0956  0.0311
31822W        W48083  17.160   7.471  12.562 -0.2037 -0.1009  0.1337
31823W        W48084   8.945  13.792   3.071 -0.0502  0.1297 -0.0240
31824W        W48085   5.012  16.619  10.874  0.2210 -0.3917  0.1136
31825W        W48086  11.616  12.682   4.483  0.0698 -0.1980 -0.0961
31826W        W48087   5.880   9.390  12.318 -0.2966  0.1056 -0.0002
31827W        W48088  17.341   8.319   3.107 -0.1687 -0.0974 -0.2975
31828W        W48089   8.281   3.012   2.001  0.0312  0.1616 -0.1763
31829W        W48090  12.997   1.092  10.939  0.1762  0.2205 -0.0459
31830W        W48091  10.708  10.529  12.991  0.1003  0.4129 -0.3216
31831W        W48092  17.158  10.217   1.414 -0.0430  0.1667  0.0256
31832W        W48093  17.824   0.924  11.269 -0.4822  0.3949 -0.1480
31833W        W48094   7.956   0.838   0.580 -0.4295 -0.0508  0.2148
31834W        W48095  14.008  11.791  11.151 -0.1471  0.1373 -0.1757
31835W        W48096   0.169   3.094   3.877 -0.2650 -0.1646  0.1390
31836W        W48097  18.226  16.965   0.290 -0.0807 -0.0945  0.0218
31837W        W48098   3.604  19.178   4.932  0.1297 -0.2632  0.0049
31838W        W48099   2.784  17.897  13.577 -0.0897 -0.2709 -0.1339
31839W        W48100   8.652   2.514  13.117  0.2180 -0.0206  0.1054
31840W        W48101   2.615   2.929  13.725 -0.3299 -0.2640 -0.2895
31841W        W48102   4.962  16.499   1.955 -0.2592  0.1540 -0.0267
31842W        W48103   5.168  11.767   2.158  0.0884 -0.1316  0.0029
31843W        W48104   1.175  18.495   4.778  0.0087  0.5352  0.2054
31844W        W48105   4.394   4.764   4.294 -0.0749  0.1240  0.2175
31845W        W48106  11.818   9.185  12.727 -0.0372  0.0238 -0.2945
31846W        W48107  13.531   9.812  13.145  0.2101 -0.1181 -0.0657
31847W        W48108   5.611  19.041   5.208  0.0888 -0.1607  0.0105
31848W        W48109  18.634   5.699  12.481  0.0804 -0.0316 -0.4962
31849W        W48110  13.339  12.345  13.047  0.0211  0.0011 -0.4116
31850W        W48111  16.825   3.649  11.895  0.3747  0.1215 -0.1910
31851W        W48112   3.607  14.504   4.092 -0.0855  0.0276  0.0104
31852W        W48113  12.175   7.639   9.305  0.1636 -0.2093  0.0381
31853W        W48114  14.165   5.012  14.447  0.1346 -0.0466 -0.1205
31854W        W48115  13.195  19.113   1.963 -0.1853  0.0658 -0.0123
31855W        W48116   1.452   5.034  13.351  0.0271  0.1649 -0.0183
31856W        W48117   2.321  11.677   2.784 -0.1773  0.1197  0.2280
31857W        W48118  18.538   5.197  13.609  0.0403  0.1058 -0.1193
31858W        W48119   6.866   1.862  11.033 -0.0886  0.0809  0.0163
31859W        W48120  16.320   0.073  13.000  0.0909  0.1438  0.0474
31860W        W48121  12.230   8.612  14.387  0.0056  0.0048  0.0587
31861W        W48122   5.639  18.123   4.583  0.1031  0.1543  0.1424
31862W        W48123  19.125   9.991  10.623  0.0628  0.2076 -0.2137
31863W        W48124   3.167   3.902  13.467  0.4559  0.0080  0.0432
31864W        W48125   5.811   9.949   3.447 -0.0158  0.0969  0.0420
31865W        W48126  13.254  10.527   2.960  0.1375  0.0692  0.2158
31866W        W48127   1.392  19.392  14.804 -0.5231  0.3349  0.1854
31867W        W48128   6.333   5.848  13.969 -0.1519 -0.0773 -0.0120
31868W        W48129  10.954   4.420  14.541  0.0258  0.0419  0.3426
31869W        W48130  10.264  12.954   2.253  0.0297  0.0285  0.2584
31870W        W48131   3.849   1.125   3.045  0.2175  0.3746 -0.1738
31871W        W48132   4.503   2.884   1.530  0.0433  0.0061 -0.1820
31872W        W48133  16.350   2.440   3.433  0.1178  0.2158 -0.3614
31873W        W48134  15.735   8.421   1.869 -0.0725 -0.2878  0.0025
31874W        W48135  11.760  10.430   2.690  0.0485  0.2546  0.1317
31875W        W48136   5.774  18.346  14.456  0.0464  0.2292 -0.1756
31876W        W48137   6.638   3.288   0.442 -0.0317  0.0173  0.0067
31877W        W48138  12.122   6.724   0.298 -0.0719 -0.0819  0.1029
31878W        W48139  12.512   6.943   3.864  0.1685  0.2500  0.0087
31879W        W48140   1.411   2.551   1.426  0.2516 -0.1661 -0.0553
31880W        W48141  19.274  17.578  11.393  0.0933  0.1548  0.0370
31881W        W48142  15.258   2.522   0.657  0.3403 -0.2306  0.0556
31882W        W48143   6.963  12.258  10.495 -0.2231  0.1726 -0.0397
31883W        W48144  11.093  12.769  14.684  0.2215 -0.1853  0.0855
31884W        W48145  15.905  16.974   1.261  0.0595 -0.0069 -0.0479
31885W        W48146  14.556  16.164   9.442 -0.1300  0.1786  0.0256
31886W        W48147   1.149   5.094  14.168 -0.0530  0.1889  0.2659
31887W        W48148   7.858  16.615   0.324  0.1836 -0.1456  0.0922
31888W        W48149  13.844   0.067  10.142  0.2268  0.0332  0.2813
31889W        W48150   9.126  14.148   4.586 -0.1603  0.0994  0.0821
31890W        W48151  11.656  18.279   2.132 -0.1198  0.2643  0.3845
31891W        W48152   4.898  17.343   2.656  0.2718  0.2306 -0.0003
31892W        W48153  17.253  15.104   4.336  0.3435  0.3225 -0.3449
31893W        W48154   2.594   1.897   5.914 -0.0110  0.0535  0.0845
31894W        W48155   1.072   7.677   4.145 -0.0665  0.2677 -0.4331
31895W        W48156  13.387  10.428  10.523 -0.1273  0.3414  0.1759
31896W        W48157  13.128   9.848  13.513  0.1812  0.0973 -0.0823
31897W        W48158  16.377  13.397   3.167  0.1324 -0.1964  0.2182
31898W        W48159  12.540   3.588   3.975 -0.7235 -0.0345 -0.0805
31899W        W48160   2.268   8.575   2.609  0.1077 -0.2050 -0.1870
31900W        W48161  12.342  18.548  14.136 -0.3200 -0.4486  0.1262
31901W        W48162  16.527   9.474  12.378  0.3576 -0.1202 -0.0643
31902W        W48163  18.690   8.799   3.535 -0.6689  0.1801  0.1227
31903W        W48164  17.247   1.169  13.271 -0.1724 -0.0052  0.3325
31904W        W48165   8.731   3.149   2.695  0.2593 -0.2371 -0.0376
31905W        W48166   1.240  17.846  12.944 -0.3350  0.2400  0.2235
31906W        W48167   7.603   7.048   0.672  0.1221 -0.3300 -0.0049
31907W        W48168  15.637   8.980  12.075  0.0643 -0.1243  0.0241
31908W        W48169   4.270  18.604  14.452 -0.1846  0.2197 -0.2412
31909W        W48170   8.920   0.317  13.773 -0.2066 -0.2963  0.1552
31910W        W48171   3.604  17.824   2.028  0.0443  0.4873  0.2500
31911W        W48172  14.661   5.918  11.968  0.2862 -0.2771  0.0274
31912W        W48173   4.185   8.471   4.894 -0.0467  0.0686 -0.1554
31913W        W48174  18.303  11.419  12.899 -0.1295 -0.1236 -0.2316
31914W        W48175   3.375   7.964  12.148 -0.1028  0.1959 -0.1458
31915W        W48176   9.256  15.749  13.583  0.0903 -0.4857  0.0182
31916W        W48177   1.572  17.105   4.753 -0.0431 -0.2108  0.2261
31917W        W48178  16.164   9.757   3.744  0.0780 -0.2089  0.3845
31918W        W48179  14.266   7.077   4.317 -0.1791 -0.0781 -0.0758
31919W        W48180  16.764  11.193  14.263  0.4460  0.0518  0.0858
31920W        W48181   1.974  12.763  12.237  0.0382  0.1131 -0.1781
31921W        W48182  12.422  18.520   3.734  0.3200  0.1418 -0.2070
31922W        W48183   8.750   3.204   4.275  0.0151  0.0858 -0.1927
31923W        W48184   6.892   2.739  14.678  0.1750  0.1494 -0.3116
31924W        W48185   1.467  10.566  13.796 -0.1773 -0.2471  0.3748
31925W        W48186   8.195   4.518   1.765  0.1414 -0.0771  0.2277
31926W        W48187   8.685   8.958  12.415  0.0009 -0.0766  0.0305
31927W        W48188   6.281  11.164   2.869  0.1841 -0.0873  0.0177
31928W        W48189  16.449  15.629   0.935  0.1555  0.0373  0.0515
31929W        W48190   5.260  16.601   5.574  0.2689 -0.1327 -0.0409
31930W        W48191   3.178   9.728  11.264 -0.1878 -0.0117  0.1685
31931W        W48192  13.477   7.110   0.576 -0.3639 -0.0711  0.0719
31932W        W48193   0.579   0.748   3.142 -0.0967 -0.0424  0.2254
31933W        W48194   9.361  12.655  11.468  0.1455 -0.1870  0.0119
31934W        W48195  10.694   9.321  14.021  0.1078 -0.1603 -0.4056
31935W        W48196  10.098   7.216  12.329 -0.2135  0.5245  0.2171
31936W        W48197   8.931  15.511  10.369 -0.1420 -0.0347 -0.0366
31937W        W48198   9.999  14.979   4.405 -0.1240  0.2654  0.2453
31938W        W48199   3.381  17.693   3.535 -0.1304  0.3335  0.0627
31939W        W48200   0.904   0.131   3.852  0.0960 -0.0212  0.1697
31940W        W48201  14.395   4.512  12.480  0.2203  0.0204 -0.0614
31941W        W48202   0.584  18.368   0.299 -0.0084  0.0297 -0.1837
31942W        W48203   2.402   1.561  14.707  0.2099  0.2703  0.1639
31943W        W48204  11.349  18.343   1.742 -0.1376 -0.0349 -0.0743
31944W        W48205  14.210   3.982  10.649 -0.2603 -0.2287  0.1244
31945W        W48206   7.697   2.192   3.820 -0.1374  0.0394 -0.0159
31946W        W48207  12.982  12.397  12.172 -0.2714 -0.4215  0.0335
31947W        W48208   0.408   7.651  11.352 -0.0833 -0.2420 -0.2098
31948W        W48209  19.137   3.406   5.579  0.1022 -0.3171 -0.2517
31949W        W48210  13.040  11.567   3.655  0.2263  0.0470 -0.0398
31950W        W48211   7.325  11.212   1.896  0.3057  0.1173  0.4079
31951W        W48212  15.018   8.629   5.281 -0.0556  0.3665 -0.4215
31952W        W48213  19.374   1.410  14.325 -0.0009  0.2554 -0.0480
31953W        W48214  17.351   4.673  10.677  0.1305  0.0820 -0.0288
31954W        W48215   0.066  19.084   3.870 -0.0981  0.0316 -0.1689
31955W        W48216  17.384   7.524  11.040 -0.0903 -0.2613 -0.0234
31956W        W48217   4.007   6.026   1.138  0.0441 -0.2308  0.0770
31957W        W48218   9.415   8.771  14.260  0.0568 -0.1282 -0.2298
31958W        W48219  10.889  19.396   3.815 -0.0348 -0.2634 -0.4522
31959W        W48220   8.606  10.932  11.248  0.0936 -0.0698  0.1305
31960W        W48221  13.860  12.434  10.242  0.1306  0.0440 -0.0872
31961W        W48222  15.249  18.993  10.901  0.0662  0.0442  0.3368
31962W        W48223  12.259   7.063   1.729 -0.0684 -0.1333 -0.2390
31963W        W48224   6.640  15.153   1.922  0.0417 -0.0322  0.0759
31964W        W48225   0.467   3.229   4.882 -0.0606  0.2481  0.0944
31965W        W48226   1.524   6.495  10.984  0.1015  0.0509 -0.2185
31966W        W48227  13.254   2.738   4.949 -0.1215 -0.3559  0.1566
31967W        W48228  11.186   1.719  13.418 -0.1111 -0.5923 -0.2035
31968W        W48229   7.919   9.612  12.012  0.2348  0.1711 -0.1121
31969W        W48230  17.498   5.600   4.745 -0.3772 -0.1493 -0.0058
31970W        W48231   2.531  13.293   3.070  0.2361 -0.1844  0.1340
31971W        W48232  11.729  16.560   0.398 -0.3492 -0.3802 -0.0777
31972W        W48233   3.561   9.635   1.483  0.0124 -0.1151 -0.1045
31973W        W48234   2.203   2.679   2.687 -0.2253  0.0539 -0.0921
31974W        W48235   7.530   7.288  11.559  0.2616  0.2467 -0.1183
31975W        W48236  15.914   4.607   0.499 -0.0865 -0.0716 -0.0880
31976W        W48237  12.257  14.027   5.218  0.0120  0.2220 -0.0101
31977W        W48238  17.454   5.989   1.197  0.1929 -0.0167 -0.0765
31978W        W48239  13.446   4.170   0.539 -0.1241  0.0796  0.0690
31979W        W48240   4.912   8.892  14.400  0.1458 -0.1490 -0.1338
31980W        W48241   0.802  17.967   5.403 -0.2955  0.1267  0.1438
31981W        W48242   6.346  12.134  12.343  0.2895  0.1895  0.1270
31982W        W48243  18.926  15.825  14.488  0.0523 -0.2203  0.0869
31983W        W48244   0.974  15.575   2.867 -0.2079 -0.0831 -0.1886
31984W        W48245   3.084  17.535  14.494 -0.2645 -0.4293  0.0229
31985W        W48246   4.682   0.650  12.286  0.0510  0.1532 -0.0420
31986W        W48247  12.095  12.511   1.899 -0.0633 -0.1990  0.2380
31987W        W48248   2.959  17.609   0.647 -0.1452  0.1356 -0.1445
31988W        W48249   7.459  12.044  10.447  0.2127 -0.3526  0.2198
31989W        W48250  14.755   5.513   4.472 -0.0840  0.1982  0.0407
31990W        W48251   8.816  19.058   1.502 -0.0665 -0.1069  0.0140
31991W        W48252  12.969   7.101  12.838 -0.0306 -0.1143 -0.0184
31992W        W48253  18.823   8.995   5.703 -0.3712  0.3837  0.0628
31993W        W48254   3.013   8.709  13.598 -0.1086 -0.0170  0.4269
31994W        W48255  11.959   1.029   0.490 -0.2067  0.0723 -0.0876
31995W        W48256  17.955   7.540   2.900  0.0077  0.2352  0.0528
31996W        W48257  12.228   8.500  12.103 -0.0175 -0.1236 -0.0415
31997W        W48258  10.679  18.631   1.119  0.2369 -0.1558  0.3986
31998W        W48259   5.014   0.057   5.774 -0.4655 -0.1266  0.1710
31999W        W48260   3.425  14.937   2.799 -0.2881 -0.3447 -0.2361
32000W        W48261   1.241   7.181   0.168  0.0546 -0.2355 -0.3413
32001W        W48262  16.150  14.891  13.751  0.1807  0.1039 -0.0276
32002W        W48263  11.064  11.204  13.979  0.2322 -0.0899  0.2951
32003W        W48264  16.871   9.469   0.846 -0.3765 -0.2298  0.2459
32004W        W48265  14.124   2.599   2.264 -0.0251  0.1108  0.1066
32005W        W48266   9.321   2.759   0.091 -0.0439  0.0701  0.2798
32006W        W48267   0.691   7.789  10.394  0.4238 -0.0956  0.0826
32007W        W48268  15.139   6.214  12.568 -0.0930  0.0377  0.0281
32008W        W48269   5.840  13.039  10.286  0.2215 -0.2397  0.1138
32009W        W48270  15.347   4.658  10.980 -0.4614  0.2747 -0.3770
32010W        W48271  14.145  14.307   1.286  0.1343 -0.0627 -0.2430
32011W        W48272  12.280  13.798   1.476 -0.0760 -0.3162  0.2182
32012W        W48273  13.725  13.175   2.354  0.0909 -0.1517 -0.0177
32013W        W48274   3.809   6.490   2.298  0.1368 -0.0211 -0.0439
32014W        W48275   6.150   3.337   0.432 -0.1906  0.0682  0.0101
32015W        W48276   6.679   7.867   5.050  0.0764 -0.0887 -0.0501
32016W        W48277   5.095   5.905  12.626 -0.2113  0.2395 -0.2451
32017W        W48278  16.304   9.601  11.890  0.0701 -0.3289  0.0019
32018W        W48279   0.426   9.087   0.515  0.2968  0.1999  0.0997
32019W        W48280   1.019   4.393  11.053  0.0772 -0.4761 -0.0854
32020W        W48281   8.699  14.033   0.753  0.2128  0.0300  0.0565
32021W        W48282   8.589  13.191   4.577  0.1100  0.0942  0.1952
32022W        W48283  12.720   5.632   0.855  0.0003  0.1113 -0.3639
32023W        W48284  16.644  15.088  12.333  0.0738  0.1875  0.0564
32024W        W48285   4.900  18.614   3.767 -0.0592  0.0697 -0.1433
32025W        W48286   2.686   0.421   4.405  0.4483 -0.1710 -0.4159
32026W        W48287   3.868   8.505   0.403 -0.3069 -0.1121 -0.1324
32027W        W48288   5.666  18.694   0.559 -0.0662  0.3525 -0.2634
32028W        W48289   2.477   0.311   5.397 -0.0401  0.1392 -0.1139
32029W        W48290  10.685  18.996  10.519 -0.0112 -0.0924  0.3753
32030W        W48291  16.544   5.296  12.945 -0.2375  0.0056 -0.2612
32031W        W48292  14.357   3.623   4.181 -0.0767  0.4178 -0.1499
32032W        W48293   8.524  17.483   0.632  0.0550  0.0706  0.0045
32033W        W48294  12.200  10.102   0.716  0.1238  0.1660  0.0860
32034W        W48295   0.744   7.065   0.339 -0.2241 -0.1495  0.0740
32035W        W48296  10.423  18.083   4.726  0.0595 -0.4833 -0.2563
32036W        W48297   5.318   3.890   5.065 -0.3200  0.1766  0.5937
32037W        W48298   4.225  14.274   1.616  0.0640  0.2534  0.1265
32038W        W48299  15.789  11.062   3.541  0.0041  0.2557  0.2780
32039W        W48300   6.894   1.495  13.199 -0.1053 -0.1464 -0.1984
32040W        W48301   9.495   1.613  11.552  0.0099 -0.2778 -0.0019
32041W        W48302  11.192   4.232   3.420 -0.2624 -0.1930  0.1845
32042W        W48303   5.802   1.954   0.335 -0.0442 -0.0427 -0.1350
32043W        W48304  14.123  14.178   4.947  0.0595 -0.0701 -0.1619
32044W        W48305  15.891  10.682   5.293 -0.1722  0.0191 -0.0593
32045W        W48306   8.259   3.437   4.594 -0.4441  0.0666 -0.0461
32046W        W48307   2.760   4.101   0.589 -0.2252 -0.4095 -0.0730
32047W        W48308  11.957   8.850   4.646  0.2432 -0.2545  0.1477
32048W        W48309  11.746   6.699   4.464  0.1515  0.1566 -0.4602
32049W        W48310   5.649   0.772   3.068 -0.0148  0.3471  0.0425
32050W        W48311  10.561  14.029  10.447 -0.0425  0.1388  0.0184
32051W        W48312  17.577  15.448  12.142  0.0252 -0.1677  0.3055
32052W        W48313   4.609   9.764   3.142  0.2162 -0.1316 -0.1157
32053W        W48314   5.786   2.262   3.120 -0.0385 -0.0432 -0.1826
32054W        W48315  11.691  16.378  11.072 -0.1730  0.1988  0.1068
32055W        W48316   2.439  12.101   1.009 -0.2418 -0.0743  0.0300
32056W        W48317  16.283  10.476  12.555  0.0535  0.0983 -0.2087
32057W        W48318   4.298   8.880   5.205  0.3358 -0.2405  0.2175
32058W        W48319  13.525  16.306  12.911 -0.2576  0.0802 -0.1586
32059W        W48320   2.854   9.363  12.355 -0.1967 -0.0714 -0.1436
32060W        W48321  10.322   2.213  11.416  0.0976  0.0076  0.1709
32061W        W48322  15.715  12.746   4.766 -0.2448 -0.1559 -0.1822
32062W        W48323   2.799  15.295   2.262 -0.3117 -0.2851 -0.0704
32063W        W48324   1.386   1.264  12.228 -0.1672 -0.2436  0.0913
32064W        W48325   0.335  12.606   4.846 -0.1119  0.0434 -0.3689
32065W        W48326   5.171  16.713  11.335 -0.0402  0.4882 -0.1365
32066W        W48327  10.855  17.811  14.461  0.1168 -0.2560 -0.1908
32067W        W48328   8.434   1.202   5.042 -0.1549 -0.0455  0.1372
32068W        W48329   2.776   3.567  13.573 -0.0884 -0.2168  0.0234
32069W        W48330  13.444  19.335   3.031  0.0666  0.0737  0.1597
32070W        W48331   9.967   0.061   3.381  0.2741 -0.0985  0.1063
32071W        W48332   3.269  15.987   1.691  0.1021 -0.0496 -0.0260
32072W        W48333   9.872  13.349  13.810  0.3924 -0.1325  0.1093
32073W        W48334  13.818   0.443   2.322  0.0604  0.4306  0.1897
32074W        W48335   6.798  10.538  14.504 -0.0511  0.0385  0.0730
32075W        W48336  17.197  14.834   0.936  0.1034  0.2963 -0.1231
32076W        W48337   7.497  10.768  14.624 -0.0775 -0.0782 -0.0165
32077W        W48338   8.388  16.769   1.068 -0.2858  0.3736  0.2062
32078W        W48339   5.046   2.908  11.618 -0.0939 -0.2822  0.2586
32079W        W48340  17.361   1.608   3.474  0.2095  0.3424 -0.2548
32080W        W48341   1.385  15.239   0.081  0.0478 -0.1513  0.0353
32081W        W48342  10.379   2.035   0.098 -0.0800 -0.2779  0.0432
32082W        W48343  18.179  11.282  13.418 -0.3027  0.4502 -0.0114
32083W        W48344  18.079  13.720  13.418  0.0680  0.1009 -0.2822
32084W        W48345   6.994  11.115  14.559  0.3140  0.0360 -0.1105
32085W        W48346  15.791  16.635  12.357 -0.0725  0.0428 -0.0578
32086W        W48347   0.715   6.101  11.738  0.4618 -0.1292 -0.0696
32087W        W48348  15.961  16.512   1.974  0.1689  0.0976 -0.0109
32088W        W48349   5.640   0.733   4.548  0.2701 -0.1375 -0.0493
32089W        W48350  17.188  11.372   0.652 -0.2428  0.1804 -0.0897
32090W        W48351   4.055   0.891  14.483  0.3632 -0.0329 -0.0107
32091W        W48352  13.072   3.248   0.804 -0.4151  0.2184 -0.1959
32092W        W48353  15.467  13.050  12.450  0.3030 -0.2748  0.1103
32093W        W48354  11.972   1.644  14.541 -0.0537 -0.1220 -0.0954
32094W        W48355   2.744   4.165   5.040  0.0960  0.0766 -0.3181
32095W        W48356  14.551   9.999  11.557  0.0606 -0.2361 -0.0167
32096W        W48357  14.696   7.288  12.918 -0.0839 -0.1243 -0.3194
32097W        W48358   2.896   6.764   3.046 -0.0748 -0.0215 -0.1370
32098W        W48359  17.442   8.372  11.274 -0.3793  0.0748 -0.0936
32099W        W48360   9.783  17.108   2.881 -0.1822  0.1610 -0.0750
32100W        W48361  12.976   8.247   1.962  0.0110  0.0975  0.2763
32101W        W48362  10.709  12.334   1.084 -0.0963  0.3927 -0.0945
32102W        W48363  15.118  12.706   1.579 -0.0672  0.0302  0.1102
32103W        W48364  17.292  11.817   2.578  0.0438 -0.0346  0.0927
32104W        W48365  17.717   1.708   4.370  0.0440 -0.1405  0.1077
32105W        W48366   6.035   5.381  12.177  0.0259 -0.1748 -0.2295
32106W        W48367  16.367   4.488  14.185  0.2863  0.0986  0.2472
32107W        W48368  11.752   7.159   1.153  0.4882 -0.4795 -0.0415
32108W        W48369   1.119   6.817  10.281 -0.2086  0.1960  0.1609
32109W        W48370  12.334   5.754   2.324  0.2011  0.1054  0.0098
32110W        W48371  17.940  11.654   5.644  0.3785  0.2863 -0.2318
32111W        W48372  17.742  15.824  12.625 -0.0484 -0.2619  0.3243
32112W        W48373  12.754   1.883   9.966  0.0692  0.1403 -0.0802
32113W        W48374   2.824   7.341   5.412 -0.2085 -0.1815 -0.0001
32114W        W48375  14.906  18.936   1.175  0.3624  0.1650  0.0301
32115W        W48376  10.565   8.212  11.378  0.0799 -0.0478 -0.0310
32116W        W48377   9.703  12.824   0.272 -0.1294 -0.2307  0.1736
32117W        W48378  19.250   6.777   1.446  0.1377  0.0708 -0.1682
32118W        W48379  12.696   2.789   2.389  0.3311  0.2740 -0.2067
32119W        W48380   9.369   8.389  10.431  0.0606  0.0470  0.0595
32120W        W48381   0.819   0.156  12.458 -0.1580  0.0106 -0.0352
32121W        W48382   7.099  12.092  12.037 -0.0928 -0.1922  0.5146
32122W        W48383   8.034  16.694   5.066 -0.2155 -0.1685  0.3327
32123W        W48384   4.889  15.083   4.468  0.3211 -0.1920  0.3444
32124W        W48385  15.054  11.429  14.253  0.0784  0.0811  0.3362
32125W        W48386  14.325  19.331  14.040 -0.2191 -0.0539 -0.0538
32126W        W48387  15.002  11.823  14.554 -0.1220  0.3563  0.1394
32127W        W48388   4.864   2.003   5.895 -0.0617 -0.0154  0.1952
32128W        W48389   8.961  14.624  11.597 -0.1219 -0.2070  0.0247
32129W        W48390   8.158  17.372   4.360  0.0821 -0.0201  0.0293
32130W        W48391   3.544  17.509  14.113 -0.2107 -0.2047 -0.1361
32131W        W48392  15.138  14.485  14.499  0.2427 -0.1633  0.1591
32132W        W48393   1.455  17.064   0.835 -0.2942 -0.0876  0.1467
32133W        W48394   4.863   1.998  12.271 -0.2387  0.0548 -0.2347
32134W        W48395   9.927  15.984  12.301  0.1995  0.0368 -0.0242
32135W        W48396   5.788  16.580  10.148  0.0098 -0.0852 -0.1704
32136W        W48397   4.678  17.603  11.350 -0.3535 -0.0497 -0.0045
32137W        W48398   1.456  10.714  10.096 -0.2032 -0.0138  0.3267
32138W        W48399  14.971   2.061  13.865 -0.0429  0.0234  0.0268
32139W        W48400  14.276  16.181  12.294 -0.2785 -0.1771  0.1370
32140W        W48401  13.738   3.828   1.067  0.4094  0.2136  0.0521
32141W        W48402  10.627   9.836   1.904 -0.0686  0.0443 -0.0521
32142W        W48403  14.989   7.340   0.647  0.3507  0.1172 -0.0745
32143W        W48404  12.635   8.335   3.237 -0.5406  0.0843  0.1224
32144W        W48405  17.336   9.930   2.923  0.0466 -0.1569  0.4007
32145W        W48406  12.472  14.939  10.998 -0.0414  0.0721 -0.0848
32146W        W48407  11.129  14.548  10.708  0.1054  0.0915 -0.1930
32147W        W48408  10.627  17.812   2.409 -0.2607 -0.0506 -0.0716
32148W        W48409  13.155   0.596   9.710  0.3957  0.3206 -0.0471
32149W        W48410  10.395  19.375   3.096  0.2730  0.3012 -0.1402
32150W        W48411   4.959  18.216   2.118 -0.1595  0.0939  0.2762
32151W        W48412  13.569   9.809   2.256  0.2906  0.3574  0.0463
32152W        W48413  18.805   9.512   0.746 -0.0482  0.0806 -0.2769
32153W        W48414  16.079   3.771  10.907  0.2242 -0.1653  0.1119
32154W        W48415  19.422   3.733   4.708  0.1861 -0.1013 -0.2319
32155W        W48416  18.367  14.522  12.020 -0.2164 -0.0726  0.6610
32156W        W48417  11.060   9.886  10.224 -0.0920  0.2609  0.1716
32157W        W48418  18.113  16.173  13.732  0.0051  0.0574  0.1933
32158W        W48419  18.944  14.577  10.550 -0.0089 -0.1707 -0.0936
32159W        W48420   4.887   7.610   2.563 -0.0561  0.1136 -0.2577
32160W        W48421   1.275  12.562  12.925 -0.1232 -0.1040  0.1517
32161W        W48422  12.642   7.623  10.921 -0.0093 -0.0515 -0.1298
32162W        W48423  16.182  13.421  13.372  0.1318 -0.2574  0.1539
32163W        W48424  14.269   7.196   2.922  0.1365  0.0689  0.0495
32164W        W48425  17.446   3.381   5.303  0.2112  0.2255  0.3181
32165W        W48426   2.787   0.236  13.297  0.0873 -0.0479 -0.0031
32166W        W48427  15.221   5.004   1.766 -0.3518 -0.1031  0.2438
32167W        W48428   0.736   3.220  11.529  0.1404 -0.3979 -0.1047
32168W        W48429   9.656   9.059   2.862  0.0599 -0.1085 -0.0622
32169W        W48430   0.139  14.287  13.514 -0.1236  0.0888 -0.1918
32170W        W48431   4.976   9.038  12.364 -0.2429 -0.4407  0.1904
32171W        W48432   5.263  10.728   1.847 -0.1019  0.3555  0.2502
32172W        W48433  13.556   8.084  10.889  0.0051  0.1046  0.0809
32173W        W48434  10.304   2.755   0.305  0.2886  0.2415 -0.0067
32174W        W48435   2.851   5.510   2.364 -0.1082  0.0154  0.1435
32175W        W48436  15.324   7.759   4.077  0.1694 -0.2139 -0.0357
32176W        W48437  19.234  16.905  10.753  0.0815  0.0869 -0.2682
32177W        W48438   9.984   6.168   0.741 -0.0940 -0.0412 -0.0407
32178W        W48439  13.926  17.814   9.968  0.0810  0.1339  0.3165
32179W        W48440   9.487  11.584  14.750 -0.0902 -0.2919  0.0520
32180W        W48441   2.388   8.652  11.339 -0.1191 -0.2067 -0.0359
32181W        W48442   6.121  18.691   3.685 -0.2157 -0.0363  0.2539
32182W        W48443   8.539   0.051   1.362 -0.0500  0.1111 -0.1836
32183W        W48444   9.613   7.386   1.488  0.0032 -0.1319 -0.1666
32184W        W48445   3.190  17.312   2.664 -0.2552  0.0857  0.1016
32185W        W48446  18.617   1.232   5.680 -0.0714  0.0711 -0.0143
32186W        W48447  17.334  11.185  12.540  0.1549  0.1743  0.2357
32187W        W48448   8.224   5.722   2.067 -0.0289  0.0339 -0.3355
32188W        W48449   1.978   6.336  14.065 -0.3951 -0.0942  0.0485
32189W        W48450   5.715   5.954   1.759  0.2139 -0.2518  0.0599
32190W        W48451  10.736   4.041   2.237 -0.2839 -0.0172 -0.0575
32191W        W48452   9.046  10.710  10.463  0.3127  0.1532  0.0582
32192W        W48453   6.076   4.931  10.588  0.3236  0.1051 -0.2572
32193W        W48454  12.384   9.382   1.160 -0.3671 -0.0087 -0.1482
32194W        W48455   0.623  19.146   5.317  0.1185 -0.4656  0.3536
32195W        W48456  15.660   7.879   3.398 -0.3625  0.3016  0.2600
32196W        W48457   7.105  16.111  12.321  0.1584  0.1622  0.0142
32197W        W48458  13.022   0.048  13.713  0.2394  0.0453  0.0730
32198W        W48459   2.816  15.060  12.644 -0.0472 -0.0827  0.0075
32199W        W48460   7.012   9.583  12.248 -0.1677 -0.0532  0.0741
32200W        W48461   5.618  17.370  13.264 -0.0588 -0.0639 -0.0840
32201W        W48462   7.881   5.167  14.440 -0.2390  0.1124 -0.1015
32202W        W48463  10.991  18.560  10.774 -0.0564  0.0528 -0.2973
32203W        W48464  17.765  11.946   3.422  0.2499 -0.1261  0.2604
32204W        W48465   7.275  13.513   1.801  0.0123  0.3083 -0.1913
32205W        W48466   6.202  14.585   0.011 -0.2507  0.0279  0.1952
32206W        W48467   0.041   1.051  14.755 -0.2283  0.1129 -0.0494
32207W        W48468  12.365  17.906  12.128  0.0569 -0.3483 -0.0039
32208W        W48469   0.959  12.375   2.744  0.0614  0.1056  0.0254
32209W        W48470  10.428  18.048  10.784 -0.0117 -0.0274  0.0392
32210W        W48471  16.226  12.303   4.633  0.4064 -0.0747  0.3649
32211W        W48472   6.381  16.793  14.885 -0.0422  0.0125  0.1038
32212W        W48473   0.066  18.378   3.913  0.1917  0.2116 -0.0658
32213W        W48474   7.324   2.496   2.367  0.1128 -0.0899 -0.2554
32214W        W48475   1.398   0.334  12.322  0.3065  0.0358 -0.1616
32215W        W48476   4.917  10.343   4.004  0.1530  0.4533  0.0585
32216W        W48477  18.052   0.550  11.010 -0.1575 -0.0783 -0.3287
32217W        W48478   9.651  16.323   3.331  0.1174  0.1439  0.2232
32218W        W48479   4.026   5.955   0.222  0.1894  0.1628 -0.1329
32219W        W48480  12.294  18.842   4.106  0.0722  0.3155 -0.0672
32220W        W48481   1.358   0.664   1.075 -0.0786  0.0345  0.2295
32221W        W48482  13.921  10.913   3.294  0.0312  0.1304 -0.4798
32222W        W48483  18.852   0.707  12.417 -0.0011 -0.0330 -0.0414
32223W        W48484   6.567   8.069   3.675  0.1966  0.3224  0.3267
32224W        W48485   0.011  14.820   3.054  0.0925 -0.0745  0.0539
32225W        W48486  15.884  12.022   1.716 -0.0372 -0.0125  0.3249
32226W        W48487  10.562   4.670   1.450 -0.1603  0.1251  0.3351
32227W        W48488  10.565   7.134   4.494 -0.3096  0.4135 -0.1703
32228W        W48489   7.253   5.047   2.626 -0.0827  0.1250  0.0228
32229W        W48490   6.096   4.833   1.733  0.2663 -0.4300  0.2024
32230W        W48491   5.594   8.349  10.806 -0.1082 -0.0560  0.0518
32231W        W48492   9.827   7.159   2.908  0.1604  0.0978 -0.0982
32232W        W48493  16.979  15.787   2.916  0.1923 -0.0748 -0.1476
32233W        W48494  14.974  15.119   9.716  0.4449 -0.1826 -0.1572
32234W        W48495  19.386   5.179   3.161  0.2456  0.2652  0.2198
32235W        W48496   2.007   2.521  13.055  0.2506 -0.1039 -0.1134
32236W        W48497   2.651   8.343  13.611 -0.1075 -0.0141  0.0900
32237W        W48498  11.915  12.087   2.776 -0.1917 -0.2350  0.2193
32238W        W48499  10.521  12.312   0.607  0.0873 -0.2108 -0.0470
32239W        W48500   9.201  11.548  10.130  0.0557  0.3524 -0.2551
32240W        W48501   7.630  14.580  11.204  0.2568  0.0233 -0.0350
32241W        W48502  12.379   4.893  12.342 -0.0748 -0.2449  0.0179
32242W        W48503  10.935   0.312   0.125  0.0707  0.0414 -0.0001
32243W        W48504   1.821  18.166   4.016 -0.1947 -0.0477  0.0416
32244W        W48505  15.687  16.933  13.019  0.1793 -0.0056 -0.2128
32245W        W48506   3.320   8.221  12.971 -0.1468  0.1443 -0.3713
32246W        W48507  16.869  18.821   0.883 -0.1224 -0.4873 -0.0000
32247W        W48508   9.848   3.725  11.687  0.0127 -0.4107 -0.0764
32248W        W48509   6.256   8.237  14.053 -0.0741 -0.2283  0.1044
32249W        W48510  12.605  18.497   4.507  0.0525  0.1432 -0.1117
32250W        W48511  11.064   7.314   0.839 -0.0240  0.1966  0.0475
32251W        W48512   6.018   7.076   1.244 -0.2070  0.3956 -0.1156
32252W        W48513   3.224   5.844   1.702 -0.2042  0.0836 -0.0242
32253W        W48514  18.032  17.835   0.328 -0.0112 -0.0559 -0.1723
32254W        W48515  17.448   5.911   4.188 -0.0022  0.0018 -0.0087
32255W        W48516   4.858  13.189  10.426  0.2354  0.1892  0.1088
32256W        W48517  17.055   9.726  12.371  0.4272 -0.1000  0.0837
32257W        W48518   0.595  14.037   1.216  0.0920  0.2913  0.0471
32258W        W48519  14.695   8.002  12.759 -0.1126  0.2093 -0.0159
32259W        W48520   8.149   3.905  11.599 -0.1428  0.1637 -0.2220
32260W        W48521   4.283  12.727   2.653  0.0145 -0.0679  0.5118
32261W        W48522  17.057  13.793  11.225  0.3256  0.0665  0.0379
32262W        W48523  13.261  13.890   9.856 -0.1089  0.0792 -0.1631
32263W        W48524  14.048  17.867  13.797 -0.0072  0.1669 -0.0801
32264W        W48525   1.280  18.667   0.664 -0.1963  0.0502 -0.1407
32265W        W48526   7.428  11.289  13.618  0.3811 -0.0132 -0.1675
32266W        W48527  17.273   5.514  13.593  0.0201 -0.0952  0.2756
32267W        W48528   0.603   1.629   3.446 -0.0317 -0.0288 -0.0922
32268W        W48529   7.623  14.127  13.123  0.1404 -0.1025 -0.1191
32269W        W48530   8.092   5.756   4.923  0.1202  0.1013  0.0379
32270W        W48531   2.552  14.672  11.303  0.3821 -0.1807 -0.0329
32271W        W48532  17.169  13.730   4.391 -0.0402  0.2194 -0.0829
32272W        W48533  16.855   8.350   1.746  0.2456  0.0089 -0.0781
32273W        W48534  16.525  18.327   4.381  0.1027  0.0985 -0.0533
32274W        W48535  11.339  15.561  13.300  0.1417  0.3190  0.0264
32275W        W48536   5.471   9.266   2.957 -0.2844 -0.2748 -0.2563
32276W        W48537   8.686   9.346   3.958 -0.2043 -0.1396  0.0414
32277W        W48538  14.246   2.308   0.189 -0.1207 -0.0691 -0.1886
32278W        W48539   9.967  15.897   5.109 -0.1485 -0.0262  0.0214
32279W        W48540   4.859  12.318  12.098 -0.0280  0.0800  0.1307
32280W        W48541  11.866   7.306   1.572  0.0472  0.1380 -0.1264
32281W        W48542   3.774   3.963   3.068 -0.3979  0.3590  0.1564
32282W        W48543   1.877   3.680   5.569  0.0870  0.0882  0.4242
32283W        W48544   7.135   9.214  10.678 -0.1450  0.0176  0.1136
32284W        W48545  16.164  18.354   5.294  0.2790  0.1750  0.1899
32285W        W48546   5.902   3.159   1.337  0.0804 -0.2503 -0.0053
32286W        W48547  19.207   0.959  12.740  0.0608  0.2057  0.0311
32287W        W48548  14.850   5.447   9.966 -0.2400  0.1191  0.0415
32288W        W48549  10.333  15.207  10.978 -0.0854 -0.0328 -0.2352
32289W        W48550   5.614  11.085  13.260  0.1390  0.0226 -0.0511
32290W        W48551   5.311  15.914   3.205 -0.0823  0.2576  0.3048
32291W        W48552  16.212   7.625   0.834 -0.1444 -0.3092 -0.0318
32292W        W48553   9.848   3.355   9.245  0.0717 -0.1490 -0.1309
32293W        W48554  18.377   6.297  10.443  0.2409 -0.3298 -0.0446
32294W        W48555   5.773  15.944   4.433  0.3092 -0.0833 -0.2084
32295W        W48556  15.483   9.662  12.597  0.1953  0.4509 -0.1256
32296W        W48557  12.519  17.594  10.186 -0.1701  0.0703  0.0590
32297W        W48558   7.955   2.798   9.687  0.3426 -0.0505  0.2201
32298W        W48559  19.448   4.762   3.531  0.1133 -0.2223  0.1344
32299W        W48560   2.032  11.069   3.895  0.0464  0.1844  0.2333
32300W        W48561   4.660   1.746   0.103  0.2723  0.1137 -0.4057
32301W        W48562   4.796  14.627   1.454 -0.0205 -0.0096 -0.1435
32302W        W48563   9.821  13.554   0.991  0.0420  0.0904 -0.2166
32303W        W48564   0.713   1.592   2.064 -0.0049  0.0340  0.0090
32304W        W48565   9.624   6.479  14.690 -0.0600  0.2190  0.1261
32305W        W48566  12.634   9.824   1.710 -0.3638 -0.0129  0.1008
32306W        W48567   0.027  15.014   3.625 -0.0371  0.1179  0.1122
32307W        W48568  19.235   6.131  12.023 -0.0147  0.3917 -0.1767
32308W        W48569   4.389  13.768   4.990 -0.2650 -0.2433  0.2513
32309W        W48570  12.801  14.548   0.790  0.1720  0.1735 -0.4322
32310W        W48571   9.138   7.170   3.382  0.3652  0.0581  0.0761
32311W        W48572  15.952   7.168  14.491 -0.3566 -0.0346  0.0151
32312W        W48573  15.107  18.467   3.878  0.2051  0.1709 -0.0271
32313W        W48574  16.852  11.201  12.272 -0.2846 -0.0820 -0.0482
32314W        W48575   3.388   7.524  10.968 -0.2174  0.3251  0.0431
32315W        W48576   3.685   8.382   4.162  0.2349  0.0568 -0.3821
32316W        W48577   9.580   1.697   1.917 -0.0919 -0.1921 -0.0393
32317W        W48578   0.093   4.339  12.757  0.0903  0.2711  0.1198
32318W        W48579   1.415   5.720   4.884  0.1808 -0.3011  0.1839
32319W        W48580   7.738   3.068   2.252  0.4469 -0.1448 -0.0453
32320W        W48581  10.059   3.384  12.038  0.4435  0.0001  0.0159
32321W        W48582   2.078  12.313  11.870  0.3092  0.1073 -0.1071
32322W        W48583  16.412   4.869  12.769 -0.1786 -0.1772 -0.4660
32323W        W48584  16.386   8.725  10.949 -0.4426  0.2505  0.1418
32324W        W48585   7.898   7.595  12.287 -0.0742  0.2124  0.1270
32325W        W48586   7.880  17.815   4.304 -0.0268  0.0029  0.1100
32326W        W48587  16.714  14.900   1.260  0.1045  0.2776 -0.0859
32327W        W48588   9.362  18.270  11.076  0.1845  0.1600 -0.1432
32328W        W48589   6.663  12.927  10.136 -0.0495 -0.0890 -0.0503
32329W        W48590  16.085  16.257  12.177 -0.0130  0.3687 -0.1719
32330W        W48591  14.456   6.158  12.416 -0.2878 -0.0808 -0.3566
32331W        W48592  18.742   4.310   0.899  0.2399 -0.1659  0.0711
32332W        W48593   6.602   3.871  14.514  0.0129 -0.0146  0.0566
32333W        W48594   1.325   2.269   2.407  0.2419  0.1522 -0.1998
32334W        W48595   9.985   8.323   2.949  0.3128  0.1990 -0.2860
32335W        W48596  19.355   7.368  14.216  0.0076 -0.2492 -0.1123
32336W        W48597  17.861   6.474  14.159 -0.2462 -0.0416 -0.2213
32337W        W48598  17.776   2.833  12.204 -0.0730 -0.0174  0.2949
32338W        W48599  11.264  10.548   4.563 -0.0508  0.1074  0.3984
32339W        W48600   5.002   3.977   2.210 -0.2809  0.3927  0.1768
32340W        W48601   5.309  14.557   5.843  0.3270 -0.0252 -0.1966
32341W        W48602   6.676  11.314  10.313 -0.1056 -0.2598  0.0728
32342W        W48603  16.081   6.050   2.553 -0.0782  0.3298  0.2267
32343W        W48604  17.689   6.850   0.919 -0.0596  0.1005 -0.0351
32344W        W48605  16.930   5.913  12.534  0.0910 -0.2679 -0.2233
32345W        W48606   7.171  17.879   2.001  0.0317  0.1281  0.0453
32346W        W48607  17.767   0.543   0.404  0.1070 -0.1399 -0.0615
32347W        W48608  19.012   1.039   6.052  0.1626  0.2522  0.3033
32348W        W48609  17.560   7.723   1.519 -0.2582  0.1858 -0.1796
32349W        W48610   3.964  17.689   5.514 -0.2073  0.0151  0.3404
32350W        W48611  17.477   0.543  13.688 -0.2398 -0.3218 -0.2654
32351W        W48612   8.120  11.429   0.523 -0.1045  0.0692  0.2905
32352W        W48613   1.469   3.847  10.442 -0.0011  0.1087  0.0296
32353W        W48614   7.632   5.332   2.207  0.2369  0.0012 -0.1909
32354W        W48615  14.148   6.132   3.788 -0.1789  0.1724 -0.0789
32355W        W48616  13.789  17.775  11.391  0.0563  0.0230  0.2043
32356W        W48617   0.325  14.130  12.895  0.1424 -0.1369 -0.0213
32357W        W48618  13.784  10.790  12.207 -0.0730 -0.1391 -0.2866
32358W        W48619  15.944  12.773  10.748  0.0979  0.2542  0.0398
32359W        W48620  17.972  12.774   3.728 -0.0687  0.0076 -0.0880
32360W        W48621   1.383   7.543   3.707  0.1289  0.1654  0.0598
32361W        W48622  15.681   5.334  13.855  0.1710 -0.1209 -0.0348
32362W        W48623  15.518   0.722   0.634  0.3010  0.0667 -0.0914
32363W        W48624  11.349   3.330   3.642 -0.1024 -0.2079 -0.1032
32364W        W48625   8.512   8.494   1.337 -0.1601 -0.0706  0.0384
32365W        W48626  16.832   2.606   3.558 -0.2350 -0.1873 -0.1230
32366W        W48627   9.701   1.367   3.541  0.0043 -0.2174  0.0963
32367ION     NA48628   9.869   7.570  11.242 -0.1748 -0.1906  0.2793
32368ION     NA48629   2.422   1.472   1.969  0.3061  0.2575 -0.3343
32369ION     NA48630  18.537  10.391   9.363 -0.2581 -0.0054 -0.0481
32370ION     NA48631  13.546  17.523   0.806  0.0468 -0.1508 -0.1182
32371ION     NA48632  16.397   9.913   9.213 -0.1974  0.3133 -0.0989
32372ION     NA48633   2.865  13.820   5.472  0.3576  0.0866  0.0364
32373ION     NA48634  18.485  15.358  14.647 -0.1756 -0.1258 -0.0710
32374ION     NA48635   8.631  10.434   9.561  0.2250 -0.2602 -0.1309
32375ION     NA48636  15.501  17.051   3.540  0.1020 -0.2133 -0.0688
32376ION     NA48637   8.380  14.873   5.347 -0.0920 -0.5064 -0.0866
32377ION     NA48638  10.503   9.891  14.056 -0.0703  0.0400  0.0233
32378ION     NA48639   3.785   8.313   9.740 -0.0065  0.1955  0.1135
32379ION     NA48640   5.212   6.856   0.953 -0.2935  0.1110  0.0533
32380ION     NA48641   2.222   6.791  10.291  0.4140  0.1066 -0.5420
32381ION     NA48642  18.028   3.577   0.923  0.1176  0.1789 -0.0584
32382ION     NA48643  14.979   7.544  12.512  0.3029 -0.3563  0.3920
32383ION     NA48644  18.206   5.312   5.731 -0.1370  0.0694  0.1064
32384ION     NA48645   2.134  14.058   9.597  0.2957 -0.2399 -0.1987
32385ION     NA48646   6.537   1.301   5.091  0.3012  0.3174 -0.3044
32386ION     NA48647  14.162   9.015   9.988 -0.0468  0.0972  0.4099
32387ION     NA48648  17.819  19.376   9.872  0.0180  0.2638 -0.2207
32388ION     NA48649   4.093  16.106   5.881  0.3425  0.1168  0.2944
32389ION     NA48650   5.237  18.030   1.699  0.0652  0.0639 -0.1865
32390ION     NA48651  10.473   6.690   9.972 -0.0600 -0.2080 -0.1578
32391ION     NA48652  16.895  17.297   0.668 -0.1082  0.1258  0.1289
32392ION     NA48653   1.676  11.284   9.392 -0.0149  0.0860  0.1168
32393ION     NA48654  17.778   2.661   5.743 -0.1084 -0.3434  0.3811
32394ION     NA48655  17.510   5.851  10.287 -0.3087 -0.0542  0.3153
32395ION     NA48656   3.146   0.536  10.942  0.2161 -0.2148  0.0188
32396ION     NA48657  15.069  11.778   3.473 -0.2674  0.1701  0.0755
32397ION     NA48658  15.508   9.183  12.995 -0.2592 -0.5320  0.2632
32398ION     NA48659  18.339  10.776   5.548 -0.1959  0.1319 -0.0185
32399ION     NA48660  18.427  16.282   9.631  0.3210  0.0114 -0.3128
32400ION     NA48661   9.197  17.146  13.520  0.3229 -0.0933 -0.0106
32401ION     NA48662   0.841   1.081   5.476 -0.2071 -0.2657 -0.2178
32402ION     NA48663  16.627   7.968   9.455 -0.2120  0.1008 -0.0093
32403ION     NA48664   8.081  14.678   9.585 -0.1904  0.0400 -0.1480
32404ION     NA48665   5.301   7.315  10.346 -0.0270  0.0678 -0.2051
32405ION     NA48666   0.956  15.355   0.932  0.0248  0.0627 -0.2337
32406ION     NA48667   2.944  10.716  13.809  0.0188  0.0023  0.2177
32407ION     NA48668  14.172   1.271   9.452  0.1592  0.0706 -0.0880
32408ION     NA48669   6.136   3.035   2.322 -0.2983 -0.2860 -0.2544
32409ION     NA48670  14.984   5.730   5.270 -0.2269  0.1773 -0.0643
32410ION     NA48671   9.242  15.085   9.558 -0.2606 -0.0301 -0.0408
32411ION     NA48672   6.075   1.961   3.966  0.1054 -0.1787 -0.1246
32412ION     NA48673   1.086  11.840   9.217  0.2415  0.1245  0.2501
32413ION     NA48674   0.259  12.121   9.199 -0.1628  0.1764 -0.1323
32414ION     NA48675   2.856   5.633   9.964 -0.0622 -0.2261 -0.4742
32415ION     NA48676  13.455   8.842  12.317 -0.2891 -0.1631  0.1870
32416ION     NA48677  14.126  16.270   1.003  0.1889 -0.0957  0.1771
32417ION     NA48678  18.117   5.085  10.223  0.1788  0.1762 -0.0327
32418ION     NA48679   3.997  14.445   5.541 -0.0211 -0.4318 -0.3040
32419ION     NA48680   7.947   8.114  12.169 -0.3284  0.2338 -0.0994
32420ION     NA48681  14.697   2.090   9.430  0.0477 -0.0440  0.1766
32421ION     NA48682  13.444  11.410   4.798  0.4753  0.2230 -0.3259
32422ION     NA48683   5.599  14.364  10.253  0.1926 -0.1648 -0.0538
32423ION     NA48684  14.556   4.320   3.721  0.0707 -0.1211 -0.2283
32424ION     NA48685  19.124   7.327   5.728 -0.3545  0.3520 -0.1052
32425ION     NA48686  16.214  15.122  11.926 -0.2160  0.0291  0.0841
32426ION     NA48687   5.967   5.603   9.907  0.1760  0.2017 -0.1480
32427ION     NA48688   0.545   2.369  10.191  0.1027 -0.0574  0.1899
32428ION     NA48689   7.617  16.283   9.532  0.1839  0.0286 -0.2587
32429ION     NA48690  12.701   5.956   5.476 -0.1525  0.0178 -0.0171
32430ION     NA48691  12.341  13.950  11.541 -0.1480 -0.1250 -0.0433
32431ION     NA48692   5.492   2.763  13.258 -0.0020  0.1055 -0.4152
32432ION     NA48693   7.283  10.336   9.612 -0.1627  0.0248 -0.3228
32433ION     NA48694   0.334   1.136  10.207 -0.2772 -0.0309  0.0356
32434ION     NA48695   2.023  13.059   9.376 -0.3612 -0.0978 -0.0094
32435ION     NA48696  19.067  13.559   9.687 -0.0179 -0.3700  0.1448
32436ION     NA48697  11.551  12.359   9.572 -0.3444 -0.0389 -0.2818
32437ION     NA48698   6.602  11.030   9.749 -0.2397  0.2356  0.1650
32438ION     NA48699   4.586   9.654   9.901  0.4355  0.0071 -0.3956
32439ION     NA48700   6.905  11.857   4.933 -0.0294 -0.0088 -0.0270
32440ION     NA48701  15.709   6.139   9.719 -0.1659  0.0319  0.1886
32441ION     NA48702  15.402   6.494   5.301  0.1085  0.1191 -0.2146
32442ION     NA48703  16.264   6.974   4.848 -0.2638  0.1965 -0.1479
32443ION     NA48704   9.066  14.046   0.430  0.0495 -0.1834  0.4446
32444ION     NA48705  13.479  13.974   8.823 -0.0644  0.0139 -0.2071
32445ION     NA48706   2.172   9.849  12.657 -0.2891 -0.0721 -0.0799
32446ION     NA48707  12.470  18.965   1.157  0.1650 -0.0017  0.0730
32447ION     NA48708   7.657   8.420   4.362  0.2835 -0.1359  0.0466
32448ION     NA48709  19.049   6.371  12.376 -0.0751  0.1129  0.3641
32449ION     NA48710  18.360  15.562   9.446 -0.3238  0.0705 -0.3720
32450ION     NA48711  12.821  17.448   2.818  0.1822  0.0071 -0.1143
32451ION     NA48712   0.493   0.654   1.541  0.1608 -0.1597 -0.1492
32452ION     NA48713   7.609   6.428   5.683  0.0673  0.2722  0.0747
32453ION     NA48714   0.640  19.195   9.945 -0.4162  0.0748  0.2834
32454ION     NA48715  19.207   8.327  11.017 -0.0405  0.1055  0.1650
32455ION     NA48716  10.875  16.142  12.446 -0.2841 -0.1786  0.3632
32456ION     NA48717   4.684  13.291   5.668  0.4501  0.0409 -0.1338
32457ION     NA48718   4.504  12.836   3.249  0.1957  0.0497 -0.0370
32458ION     NA48719  13.853   4.610  10.603 -0.2437 -0.1663  0.0073
32459ION     NA48720   0.131  10.563   9.367 -0.3121 -0.0571 -0.1580
32460ION     NA48721  14.246   8.276   0.076 -0.0216 -0.5231 -0.0500
32461ION     NA48722  16.873  16.929   4.564  0.2611  0.0000  0.1524
32462ION     NA48723   4.845   0.191  12.181 -0.0737 -0.2820 -0.0691
32463ION     NA48724   0.999   2.748  14.285 -0.2429  0.0493 -0.2265
32464ION     NA48725  18.870   4.597  10.563 -0.0226  0.1287  0.1103
32465ION     NA48726   3.543   1.673  13.170 -0.1484  0.0510 -0.0763
32466ION     NA48727   5.436   3.603   9.867 -0.1053  0.1240  0.3272
32467ION     NA48728  18.314  11.097  14.798  0.0240 -0.0623  0.1061
32468ION     NA48729  14.316  11.403  10.194 -0.1313 -0.0213  0.0790
32469ION     NA48730   4.134   8.957  11.109 -0.0423 -0.1812 -0.0592
32470ION     NA48731   6.463   2.919  14.446 -0.2426  0.0683 -0.0247
32471ION     NA48732   2.422   4.479   5.150  0.1517 -0.0241  0.0901
32472ION     NA48733   3.142  13.137   9.490 -0.4581  0.0510  0.0258
32473ION     NA48734   4.303   1.342   2.793  0.1383 -0.0006  0.1098
32474ION     NA48735  11.964   2.537   9.265 -0.1753 -0.2104  0.1139
32475ION     NA48736   5.971   1.047   9.465  0.1656 -0.2145 -0.0070
32476ION     NA48737   3.944  15.735   9.790  0.0734 -0.0546 -0.0965
32477ION     NA48738  17.100  10.460   9.696  0.0200 -0.0954  0.5510
32478ION     NA48739  15.872  14.207   9.065  0.2078  0.0588  0.1852
32479ION     NA48740   9.916  17.155  10.641 -0.3955  0.0833 -0.1007
32480ION     NA48741   3.769  13.758   3.822 -0.1203  0.0859 -0.1006
32481ION     NA48742   8.088  19.012   9.413 -0.0758 -0.1560 -0.2157
32482ION     NA48743   7.634  13.871   9.874  0.2901  0.0557 -0.3631
32483ION     NA48744  17.885   1.513   9.998 -0.0067  0.0177  0.1084
32484ION     NA48745  11.609   3.075   9.397  0.1797 -0.0225 -0.1210
32485ION     NA48746  11.176   9.463  12.709 -0.1593 -0.0722 -0.1446
32486ION     NA48747   9.976  15.841   0.505 -0.0814  0.0892 -0.2076
32487ION     NA48748  16.874  15.225   9.309  0.5019 -0.2441  0.1936
32488ION     NA48749   0.120   1.610  10.033  0.4458  0.1326  0.2563
32489ION     NA48750   4.953  16.297   3.426  0.1905 -0.0431 -0.0547
32490ION     NA48751   9.836  10.051  10.960  0.2453 -0.1425  0.2163
32491ION     NA48752  18.738   1.313  10.070 -0.0961  0.0993 -0.1764
32492ION     NA48753   3.470  10.868   9.511  0.0815  0.2167 -0.0102
32493ION     NA48754   3.214   6.720  12.794 -0.0679 -0.0853 -0.0274
32494ION     NA48755   3.815  14.740   9.808  0.4676 -0.2327  0.0253
32495ION     NA48756  19.432   0.161  10.424  0.2245 -0.0584  0.1899
32496ION     NA48757   6.541  12.030   9.434  0.2580 -0.0443  0.3718
32497ION     NA48758   7.768  12.102  14.255  0.4107 -0.0296  0.0992
32498ION     NA48759   4.049  11.906   9.245 -0.2457  0.1280 -0.1452
32499ION     NA48760  15.452  18.990   9.644 -0.0918 -0.0241  0.1094
32500ION     NA48761   4.375   1.050   9.945  0.0912  0.4376 -0.0543
32501ION     NA48762  12.199  12.354   5.064 -0.1567 -0.0113  0.1649
32502ION     NA48763  13.726   1.321   2.646  0.0260 -0.3466  0.0234
32503ION     NA48764   9.128  16.800   4.749 -0.2034 -0.1237 -0.1314
32504ION     NA48765  10.512   7.982   5.234  0.0704 -0.0438  0.6576
32505ION     NA48766  18.529   3.310  10.281 -0.0257 -0.1053 -0.1182
32506ION     NA48767  12.437  14.774   9.466 -0.2193  0.1082  0.0229
32507ION     NA48768   2.473  12.417   4.811 -0.3343 -0.4458 -0.1776
32508ION     NA48769  10.330  18.252   0.409  0.0052 -0.0251  0.3598
32509ION     NA48770   9.207  18.915   4.862 -0.1449  0.1828  0.1706
32510ION     NA48771   1.786  10.293   9.420  0.4462 -0.0988 -0.3292
32511ION     NA48772  15.254   4.421  10.199 -0.0457 -0.1817 -0.2904
32512ION     NA48773  17.018  12.310   9.254  0.0326  0.0073  0.3446
32513ION     NA48774  13.183  13.461   9.576 -0.3336  0.2263  0.1031
32514ION     NA48775   4.329  15.401   9.722 -0.1406 -0.0071  0.2524
32515ION     NA48776   7.422   8.916   5.235 -0.0876  0.2077 -0.1566
32516ION     NA48777   7.799  14.726   0.333 -0.1199 -0.4261 -0.1676
32517ION     NA48778  14.017   4.844  13.925 -0.1489  0.1634 -0.1343
32518ION     NA48779   0.581  15.641   9.891 -0.4263 -0.0092  0.2693
32519ION     NA48780   1.031   6.752   2.998 -0.1266 -0.0906 -0.0566
32520ION     NA48781   6.642  16.503   9.668 -0.0292  0.0483  0.1111
32521ION     NA48782   7.845  14.224   9.491  0.0188  0.0889 -0.2195
32522ION     NA48783  10.714  11.546   5.076  0.2247 -0.2049  0.0138
32523ION     NA48784   1.007   0.077  10.211 -0.1122  0.0482  0.3322
32524ION     NA48785  12.028   8.496   9.902 -0.1395 -0.2227 -0.4081
32525ION     NA48786   3.042  18.944  13.217  0.1182 -0.0934 -0.2145
32526ION     NA48787   2.507  16.302  10.221  0.0259  0.0837 -0.0291
32527ION     NA48788  14.041  13.373   4.923 -0.0702 -0.4352 -0.0792
32528ION     NA48789   6.737  10.024  14.289 -0.1176 -0.0708 -0.1939
32529ION     NA48790  11.090   8.362   1.048  0.1329 -0.0673 -0.2449
32530ION     NA48791  11.997  14.214   9.504  0.0464  0.3150  0.0934
32531ION     NA48792  13.083  11.033   4.942  0.2657 -0.1344 -0.1856
32532ION     NA48793   9.143  15.607   3.202  0.2424  0.0183  0.0937
32533ION     NA48794   8.042  11.487   9.257  0.0848  0.2868  0.0025
32534ION     NA48795   7.959  10.556  13.307  0.0746 -0.1810 -0.2197
32535ION     NA48796  16.633  17.969   9.261  0.1344 -0.1779  0.3055
32536ION     NA48797  14.096  17.166   9.048 -0.1877  0.3894 -0.0566
32537ION     NA48798  15.981  14.868   2.248  0.1587 -0.1179 -0.3768
32538ION     NA48799   0.901   2.866  10.633 -0.1815 -0.0380  0.2304
32539ION     NA48800  16.703   8.867   5.359 -0.1913 -0.1332  0.1491
32540ION     NA48801   9.847   6.293  10.276  0.1766  0.2053 -0.0313
32541ION     NA48802   0.843  17.715   1.362 -0.2252  0.0423 -0.1337
32542ION     NA48803  10.843  17.871   9.191  0.1905 -0.3342 -0.1717
32543ION     NA48804   1.318   1.618   5.162  0.2414  0.2817 -0.2138
32544ION     NA48805  14.777   2.071   5.172  0.3224 -0.2410 -0.1214
32545ION     NA48806   6.203  17.182   9.558 -0.2079 -0.3264 -0.2666
32546ION     NA48807  16.565  14.301  14.419  0.0368  0.1324 -0.1719
32547ION     NA48808   0.651  16.295   2.440 -0.0951 -0.0099 -0.3606
32548ION     NA48809  11.262   7.228   9.601 -0.2116  0.0805 -0.1655
32549ION     NA48810   4.882   4.422   9.989  0.1692  0.1292 -0.1944
32550ION     NA48811  11.417  13.626   9.819 -0.0313  0.2171  0.0868
32551ION     NA48812   7.449   3.283   3.830 -0.2832 -0.0119 -0.4866
32552ION     NA48813  14.814  12.504   4.447  0.2048  0.1202 -0.4862
32553ION     NA48814  14.574   3.976   5.220  0.0320 -0.2494 -0.2167
32554ION     NA48815   0.747   6.447   4.084 -0.2411 -0.3133  0.0711
32555ION     NA48816  11.031   3.729   9.644  0.1198 -0.1698 -0.0843
32556ION     NA48817   2.428  12.131   9.328  0.1336  0.2707  0.0522
32557ION     NA48818  12.657  10.825  13.298  0.2255 -0.2179 -0.0434
32558ION     NA48819   7.996   4.598   4.898  0.2620  0.0975 -0.2802
32559ION     NA48820   5.088  12.093   9.301  0.0676  0.3022  0.1521
32560ION     NA48821   3.380   1.736   9.858  0.0208 -0.0621 -0.0656
32561ION     NA48822   7.942   8.998   3.474 -0.2129 -0.3345 -0.1263
32562ION     NA48823   9.716  14.375   9.604 -0.2291 -0.1759  0.1882
32563ION     NA48824   5.873   4.351  13.383 -0.3612  0.0696 -0.1898
32564ION     NA48825  15.189  14.519  10.729 -0.0355  0.2350 -0.0817
32565ION     NA48826   6.923  10.566  10.712  0.1352  0.1566 -0.1026
32566ION     NA48827  16.128  14.537   4.832  0.2187 -0.0147 -0.1794
32567ION     NA48828   7.202  19.312   9.953 -0.2597  0.0550  0.2318
32568ION     NA48829   9.872   8.440   9.603 -0.3489  0.1109 -0.0883
32569ION     NA48830   7.441   5.886  14.651  0.0888  0.0250 -0.1641
32570ION     NA48831   6.516   2.532   5.706  0.0430 -0.0371  0.0980
32571ION     NA48832   6.857  18.435   9.772  0.0666  0.0267 -0.0939
32572ION     NA48833   9.450   9.730   9.533  0.0334  0.0077  0.3656
32573ION     NA48834  11.599   4.396   3.063  0.1666 -0.2518 -0.2811
32574ION     NA48835   4.574   7.795   9.938 -0.2465 -0.0263  0.5900
32575ION     NA48836  19.005  16.893   9.923  0.2943 -0.1331  0.0652
32576ION     NA48837  18.657   6.111  10.091 -0.1411 -0.3194 -0.0512
32577ION     NA48838  18.403   9.201   5.532  0.1989 -0.1570  0.0807
32578ION     NA48839  15.014   5.495   9.454  0.2042  0.0759 -0.1958
32579ION     NA48840   5.168   0.483   9.795 -0.1531 -0.2789  0.4446
32580ION     NA48841  10.824  11.119  11.796  0.3774  0.2329  0.1674
32581ION     NA48842  12.569   5.632   9.842  0.1888  0.0431  0.0210
32582ION     NA48843   1.697   6.238  10.258  0.1220  0.2519  0.2200
32583ION     NA48844   3.366   4.726   3.372 -0.2883 -0.1946  0.2040
32584ION     NA48845   8.414  18.088   9.698  0.1977  0.0301  0.0896
32585ION     NA48846   4.817  10.596   0.473 -0.1321 -0.2035 -0.4679
32586ION     NA48847  17.010  10.155   3.508  0.0397 -0.0821  0.2983
32587ION     NA48848  10.293   3.374   9.449  0.1802  0.0237  0.3289
32588ION     NA48849  16.281   1.217   9.631 -0.0272 -0.0597 -0.0997
32589ION     NA48850  13.345  17.481  13.454 -0.0481 -0.0233 -0.1698
32590ION     NA48851   0.403   4.794   5.625  0.0746  0.1839 -0.3733
32591ION     NA48852   7.575   2.035   1.210 -0.1807 -0.0444  0.4237
32592ION     NA48853  19.432  10.644   3.904 -0.1923  0.1000 -0.0311
32593ION     NA48854   1.022  16.881  10.054 -0.3048  0.2213 -0.2896
32594ION     NA48855   5.290   7.397   1.633 -0.1151 -0.1411  0.1490
32595ION     NA48856   4.417  16.948  10.026  0.0268 -0.0925 -0.1359
32596ION     NA48857  12.349  16.757   9.335  0.0815 -0.3307  0.2274
32597ION     NA48858  12.828   0.470   9.116  0.1708 -0.0617 -0.0267
32598ION     NA48859   0.006  15.253   0.023  0.1199 -0.2568 -0.0950
32599ION     NA48860   4.566   0.826   5.216  0.2316  0.2279 -0.4321
32600ION     NA48861  18.515   7.956   0.424  0.1017 -0.0126  0.0944
32601ION     NA48862   2.709  13.527  13.170  0.2651 -0.1078 -0.1730
32602ION     NA48863  11.974   9.805   5.075  0.2646 -0.0334 -0.4930
32603ION     NA48864  17.826  12.898   9.326  0.0802 -0.4305 -0.2422
32604ION     NA48865   6.062   6.762   5.073 -0.0972  0.0625  0.2361
32605ION     NA48866  13.465  10.234   9.584 -0.1415 -0.1515 -0.2181
32606ION     NA48867   7.900   6.800   9.830 -0.1271 -0.0951  0.5044
32607ION     NA48868  13.728   8.550   9.278 -0.1654 -0.1950  0.0742
32608ION     NA48869  13.305  17.223   9.431 -0.1536 -0.0032 -0.1804
32609ION     NA48870  18.682  17.539  14.678  0.0320  0.0709  0.2374
32610ION     NA48871  16.714   8.152   2.876 -0.1192 -0.2399 -0.2415
32611ION     NA48872  10.212  14.221   1.499  0.1273 -0.0389  0.1025
32612ION     NA48873   4.531   9.660   4.576 -0.2233  0.1033 -0.0065
32613ION     NA48874  12.958  14.953  10.168  0.1117 -0.1816  0.1473
32614ION     NA48875  13.143   6.842   9.292  0.5268  0.0014  0.0539
32615ION     NA48876   9.406   9.780   2.451  0.0451  0.4679 -0.0863
32616ION     NA48877  18.617   2.028  11.504 -0.2275 -0.1576  0.3162
32617ION     NA48878  16.237  15.546  14.479  0.0545 -0.0219 -0.0604
32618ION     NA48879   7.473   5.410   5.520 -0.1532 -0.3920 -0.1654
32619ION     NA48880  16.968   6.890   0.700 -0.1894  0.0605 -0.1630
32620ION     NA48881  12.579  15.883   9.225  0.1798  0.2151  0.2768
32621ION     NA48882   7.917   4.312   1.423  0.2791 -0.0551 -0.2098
32622ION     NA48883   8.102  15.262  12.326  0.0639 -0.1561  0.1741
32623ION     NA48884  16.682   5.865  11.537  0.0976 -0.0992 -0.1809
32624ION     NA48885   6.931  15.485  14.705  0.0932  0.0675  0.1541
32625ION     NA48886  16.966   0.385   9.846  0.1214  0.0654  0.0782
32626ION     NA48887  13.697  17.648   4.261 -0.0173  0.1366  0.0421
32627ION     NA48888   2.993   6.518  14.316 -0.2027 -0.2053 -0.0890
32628ION     NA48889  15.438   3.559  11.497  0.1051  0.1966  0.0725
32629ION     NA48890  15.003  11.607   9.334 -0.0882 -0.0188 -0.4311
32630ION     NA48891  18.476   9.862   5.672  0.0696 -0.1170  0.0062
32631ION     NA48892   9.030  18.560   9.306  0.0653 -0.3383 -0.1380
32632ION     NA48893   8.724   7.658   2.515 -0.0956 -0.2382  0.2237
32633ION     NA48894  17.224   9.593   9.749  0.0243  0.3541 -0.3127
32634ION     NA48895  14.103  18.891  11.350  0.1605  0.0773  0.1145
32635ION     NA48896   2.468   6.668   5.836 -0.1507 -0.1054 -0.1042
32636ION     NA48897   3.295   9.921   9.779  0.0721 -0.0430 -0.1255
32637ION     NA48898  18.615   0.334  10.147  0.2646 -0.0987  0.1324
32638ION     NA48899   7.576   6.069  10.509 -0.2848 -0.3680 -0.3329
32639ION     NA48900   7.088   7.372  10.705  0.3213  0.0845  0.1832
32640ION     NA48901  13.156   9.200   9.635  0.1277  0.3481  0.0382
32641ION     NA48902  13.906   6.986   9.382 -0.0523 -0.2976 -0.0548
32642ION     NA48903   5.235   3.754  14.437  0.1130  0.3942 -0.0940
32643ION     NA48904  17.850  12.425   9.418  0.0996  0.1611  0.4052
32644ION     NA48905   8.638   1.342   9.286  0.2478 -0.0376  0.0850
32645ION     NA48906   6.154  15.954   0.641  0.3485 -0.0957  0.0823
32646ION     NA48907   2.198  17.154   9.952 -0.2457  0.0482 -0.0257
32647ION     NA48908   6.344  11.043   1.896  0.0376 -0.3325  0.0954
32648ION     NA48909   5.220  17.718   2.740  0.1647  0.2335 -0.0901
32649ION     NA48910  15.426   2.684   9.657 -0.1300  0.0039  0.1158
32650ION     NA48911   9.900  18.202   9.232  0.1748  0.1306 -0.1029
32651ION     NA48912   6.367   5.162  14.231  0.0218 -0.0592  0.4018
32652ION     NA48913   8.335  16.832   1.539  0.1672  0.1256 -0.0511
32653ION     NA48914  19.400   2.434  10.473 -0.3547 -0.1405 -0.0637
32654ION     NA48915   8.357   3.298   9.441 -0.0409  0.3034 -0.0953
32655ION     NA48916   6.063   2.408   9.419  0.1208 -0.0667  0.3202
32656ION     NA48917  17.338   4.211   9.855 -0.0707 -0.0086 -0.0374
32657ION     NA48918  17.589   5.983   2.235 -0.3270  0.0759 -0.0022
32658ION     NA48919   0.362   6.109  10.438 -0.1504 -0.0667  0.3277
32659ION     NA48920  17.253  12.931   4.751  0.0518  0.3711  0.2466
32660ION     NA48921   6.584   8.760   2.485  0.1431 -0.0054 -0.1863
32661ION     NA48922   4.325   7.413  10.062 -0.3237 -0.2268 -0.1587
32662ION     NA48923   9.006  12.672   9.134  0.1019  0.5002  0.1143
32663ION     NA48924   0.071   3.493  13.553  0.2098  0.2609 -0.1112
32664ION     NA48925   9.355   5.248   1.626 -0.0870  0.0881 -0.2475
32665ION     NA48926  10.526   4.276   9.465  0.1111  0.1247  0.0531
32666ION     NA48927  11.876   3.604   4.582  0.3372 -0.0045  0.0152
32667ION     NA48928  13.203  14.890   9.237  0.0015  0.1245 -0.2003
32668ION     NA48929  13.986  18.183   1.426  0.1117 -0.0526 -0.1368
32669ION     NA48930  14.196  11.168   4.019 -0.2096  0.3540  0.2704
32670ION     NA48931   7.753  16.919   9.876 -0.1613 -0.2575 -0.0952
32671ION     NA48932  16.605   0.227   5.233  0.1641 -0.0422 -0.1726
32672ION     NA48933   8.506   9.936  14.458 -0.2038 -0.2041  0.3171
32673ION     NA48934   4.550   5.146  10.289 -0.0117 -0.0565 -0.0998
32674ION     NA48935  14.332  12.448   9.187  0.1857 -0.0563 -0.0065
32675ION     NA48936   7.250   5.248  13.160  0.1500 -0.0037 -0.2044
32676ION     NA48937  12.303   6.485  13.530  0.1075  0.3535  0.3779
32677ION     NA48938   9.697   7.323   9.938  0.0570 -0.0430 -0.0342
32678ION     NA48939  11.180  11.271   5.070 -0.2360 -0.0159  0.0847
32679ION     NA48940   2.838  17.762   9.909 -0.1893 -0.2339 -0.2450
32680ION     NA48941   0.417  17.254  10.063  0.3193  0.1299 -0.1834
32681ION     NA48942   6.187  13.664   0.849 -0.2518  0.1309 -0.0940
32682ION     NA48943   5.896   0.307   4.975 -0.0431 -0.0404 -0.0681
32683ION     NA48944  18.494   8.289  10.383  0.1955  0.0362  0.1304
32684ION     NA48945   8.569   7.655  14.739 -0.0564  0.2658  0.1165
32685ION     NA48946  16.157   2.512   9.565 -0.2337  0.4074  0.3041
32686ION     NA48947  15.777   6.601   9.567 -0.1020 -0.6187 -0.0993
32687ION     NA48948   4.817   4.458   2.134 -0.1664 -0.3590  0.1690
32688ION     NA48949   3.890  11.166  11.304 -0.1170 -0.2102 -0.1586
32689ION     NA48950   9.734  19.112   9.221  0.1543 -0.0885  0.0834
32690ION     NA48951  14.013  18.691  12.315  0.2894 -0.0052 -0.1505
32691ION     NA48952   3.083   8.669   9.703  0.0895 -0.3302 -0.1487
32692ION     NA48953  12.122   5.624   1.206 -0.0521 -0.0321 -0.4084
32693ION     NA48954   7.453  10.766   9.442  0.3411 -0.0275  0.2018
32694ION     NA48955  10.129  10.288   9.231 -0.0834  0.4431  0.1333
32695ION     NA48956   1.806   6.953  10.871  0.2551 -0.5855 -0.1181
32696ION     NA48957   7.617   7.808   9.888 -0.3077  0.0287  0.1656
32697ION     NA48958  14.040   1.585   9.812 -0.0212 -0.0366 -0.3774
32698ION     NA48959  13.164  18.095   9.167 -0.0461 -0.0517 -0.0617
32699ION     NA48960  13.883  18.931   4.965 -0.2130 -0.4137 -0.3925
32700ION     NA48961  11.663  10.825   9.396 -0.0415 -0.3766 -0.0938
32701ION     NA48962   4.052   6.533  10.406 -0.5851  0.1736 -0.2813
32702ION     NA48963   2.384  17.725  10.357  0.4048  0.0660 -0.0460
32703ION     NA48964  16.960  15.544   4.837  0.3031  0.2759 -0.0563
32704ION     NA48965  10.759   1.098  10.124 -0.1422 -0.0210  0.3534
32705ION     NA48966  14.718   1.057  10.883 -0.1669 -0.0222 -0.3976
32706ION     NA48967  13.749   7.487   3.727  0.1131 -0.4011 -0.1587
32707ION     NA48968   4.402   6.276   5.821 -0.4274 -0.3241 -0.0418
32708ION     NA48969   7.650   9.537  11.370  0.0619 -0.1712 -0.2366
32709ION     NA48970  15.779  12.419   8.933  0.1168 -0.0895  0.1030
32710ION     NA48971  12.858   4.122   9.858  0.2589 -0.1867 -0.2175
32711ION     NA48972  15.293  12.325   9.153  0.0535  0.1564 -0.1091
32712ION     NA48973   3.276   2.512  10.016 -0.1836 -0.0263  0.4250
32713ION     NA48974   6.358   8.642   9.636  0.1864  0.1762  0.2137
32714ION     NA48975   8.319  12.302  13.624 -0.1047  0.2294 -0.1049
32715ION     NA48976   3.246  17.340   3.860  0.0766  0.1240 -0.0311
32716ION     NA48977  16.980   7.952  13.293 -0.1218  0.0786  0.1237
32717ION     NA48978  10.161  13.499   9.560  0.1638 -0.1869  0.0508
32718ION     NA48979   1.925   1.628  10.119 -0.0031 -0.0373  0.4869
32719ION     NA48980  10.064   6.131   2.677 -0.0461  0.0709  0.4056
32720ION     NA48981   1.371   7.269  10.451  0.2283  0.0865  0.3200
32721ION     NA48982   6.002  18.456   9.567 -0.0528  0.2239  0.1619
32722ION     NA48983  12.073  18.421   9.445 -0.2021 -0.0339  0.2302
32723ION     NA48984  17.285  13.033   9.196  0.1720  0.0574  0.0368
32724ION     NA48985  17.481   3.418   9.980 -0.5273  0.4762 -0.1431
32725ION     NA48986  17.626   5.729   5.250 -0.3383 -0.1210  0.0943
32726ION     NA48987  10.626  14.822   9.792 -0.4953  0.0295 -0.1130
32727ION     NA48988   4.366  11.475   2.549  0.1579 -0.3123 -0.0546
32728ION     NA48989  17.710   9.758  10.629  0.1209  0.4517  0.1478
32729ION     NA48990   9.785   6.171   5.181  0.1128  0.1702  0.1264
32730ION     NA48991  15.633   7.427   9.462  0.3770 -0.2242 -0.3090
32731ION     NA48992   3.176  19.301  10.066  0.0613 -0.1038 -0.0843
32732ION     NA48993  18.266  16.641   5.052 -0.4109  0.1502 -0.1865
32733ION     NA48994   1.565   8.747   9.665  0.0019 -0.0992  0.0594
32734ION     NA48995  16.590  18.807   4.850 -0.1294 -0.0436  0.1303
32735ION     NA48996  18.086   0.084   3.948 -0.1342  0.0490  0.0079
32736ION     NA48997  14.273   0.714   4.907  0.0421  0.1872 -0.1772
32737ION     NA48998  12.667  15.563   9.618  0.0095  0.0259  0.0311
32738ION     NA48999  17.766  17.138  12.716 -0.1886 -0.4208  0.2812
32739ION     NA49000   6.135   3.160   9.911 -0.0427 -0.3912 -0.1855
32740ION     NA49001   5.989  13.852   9.457  0.1841 -0.1274  0.0927
32741ION     NA49002  15.297  18.448   9.201 -0.0894  0.0053  0.0541
32742ION     NA49003   7.292  11.695   9.139  0.0353 -0.0587 -0.1747
32743ION     NA49004  13.130  12.348   9.089  0.1901 -0.1947 -0.1945
32744ION     NA49005   0.132   6.008   0.324 -0.2092 -0.1885 -0.2837
32745ION     NA49006  15.508   8.162  12.317 -0.3281  0.0228  0.1172
32746ION     NA49007  14.808  17.615   9.268 -0.3080 -0.2783 -0.1402
32747ION     NA49008  13.773  16.436   8.966 -0.1873 -0.1579 -0.1480
32748ION     NA49009   2.605  18.183   5.399  0.2786  0.1582  0.5074
32749ION     NA49010  13.892  17.879  11.908  0.0769  0.2631 -0.0654
32750ION     NA49011   2.884  10.620  10.005  0.5578 -0.1829 -0.0194
32751ION     NA49012   3.187  12.259   9.347 -0.3961 -0.0826 -0.0311
32752ION     NA49013   2.548   2.046   9.962  0.5226 -0.0165 -0.1487
32753ION     NA49014   0.864   4.083  10.606 -0.0769  0.0786  0.1135
32754ION     NA49015   1.351   9.448   9.804  0.1232  0.1014  0.0482
32755ION     NA49016   3.013  10.600   3.974 -0.1173 -0.0870 -0.2714
32756ION     NA49017   7.719  17.601  12.066  0.0604 -0.0584 -0.5168
32757ION     NA49018   9.285  13.709   5.033  0.2102 -0.4650  0.1451
32758ION     NA49019  10.883  13.810   4.421  0.1071 -0.1672  0.0002
32759ION     NA49020   9.853  11.103   9.384  0.0707  0.1761 -0.1704
32760ION     NA49021  12.933   4.066   3.191  0.0188 -0.2082  0.2027
32761ION     NA49022   4.097   0.392   9.840 -0.1441 -0.1675  0.0038
32762ION     NA49023  13.883   2.458   9.594 -0.1285  0.3141  0.1849
32763ION     NA49024   2.115  11.512  14.543  0.0529 -0.1033 -0.1779
32764ION     NA49025   5.944   1.880   9.293 -0.1225 -0.0894 -0.3146
32765ION     NA49026   5.883  18.538   2.321 -0.0902 -0.0584 -0.0770
32766ION     NA49027   7.615   1.828   9.780  0.0212  0.0898  0.0369
32767ION     NA49028  18.897  12.204   9.725 -0.3345 -0.1819 -0.0607
32768ION     NA49029  10.479  11.096   4.645  0.0274  0.2601 -0.0833
32769ION     NA49030  14.635  16.225   8.887 -0.1698  0.1782 -0.1945
32770ION     NA49031  14.069  15.194   9.033  0.0635 -0.0654 -0.1232
32771ION     NA49032   9.073  17.601   9.577  0.0600 -0.1595 -0.1776
32772ION     NA49033   2.309   3.390  10.303  0.0309  0.1950 -0.3739
32773ION     NA49034   6.725   3.995   3.770  0.2444  0.0207 -0.0249
32774ION     NA49035  11.036   1.019   9.295 -0.0238 -0.0705 -0.2851
32775ION     NA49036   0.390   6.196  14.308  0.0762  0.2115 -0.0646
32776ION     NA49037  17.148   6.813   4.209 -0.4876  0.0477  0.0715
32777ION     NA49038  18.011   7.228  12.267  0.0757  0.0396 -0.0358
32778ION     NA49039   3.200  11.524   9.288  0.2269 -0.1810  0.2742
32779ION     NA49040   4.687  14.200   9.619  0.2132  0.3115 -0.2540
32780ION     NA49041   9.063   8.566  10.014  0.2185  0.0848  0.3968
32781ION     NA49042  16.725  11.328   9.487 -0.4329  0.1562  0.0571
32782ION     NA49043   7.848  14.415  10.743  0.0377  0.2069  0.0234
32783ION     NA49044   4.811   5.867  10.024 -0.1268  0.1545 -0.0981
32784ION     NA49045   1.202  14.157  12.434  0.3551  0.0323 -0.0345
32785ION     NA49046  16.695   4.847   1.309 -0.1096 -0.0298  0.1787
32786ION     NA49047   1.762  18.310  14.653 -0.3362 -0.0011  0.1056
32787ION     NA49048   8.970  11.394   9.176  0.0653 -0.0381 -0.2553
32788ION     NA49049   0.362   9.353   3.371 -0.1996  0.0072  0.1843
32789ION     NA49050   9.890   4.849   9.726  0.2433  0.4139  0.0586
32790ION     NA49051   6.782   4.539  12.997 -0.0909 -0.0801  0.0562
32791ION     NA49052  14.555   3.036   9.673  0.2342  0.0835  0.2190
32792ION     NA49053  16.140   3.247   4.751 -0.0937 -0.0969  0.0291
32793ION     NA49054  17.082   5.021   9.987 -0.1610  0.0829 -0.2065
32794ION     NA49055   7.311   9.388   0.621 -0.0517 -0.2096 -0.1080
32795ION     NA49056  16.821   4.003   9.719 -0.3583  0.3060  0.2610
32796ION     NA49057   9.285   3.384   9.687 -0.3999 -0.1689  0.1677
32797ION     NA49058  15.602  13.254   9.066  0.1233 -0.3172  0.3516
32798ION     NA49059   7.303  12.736   9.151  0.0616 -0.1435  0.0888
32799ION     NA49060   6.614   6.245  10.461 -0.0257  0.0213  0.1282
32800ION     NA49061  18.255  17.122   9.659  0.0957  0.0036 -0.2243
32801ION     NA49062  16.123   8.289   9.509  0.3368  0.0806  0.0262
32802ION     NA49063  10.760  11.819   9.454 -0.0802  0.0586 -0.0478
32803ION     NA49064  10.983   5.696  14.075  0.2564  0.1188  0.2186
32804ION     NA49065  17.005   1.276   9.790 -0.1804 -0.1499 -0.4019
32805ION     NA49066  15.046   2.064   0.409 -0.4565  0.4722 -0.1026
32806ION     NA49067   9.471  17.259  11.320  0.0237  0.0146 -0.1317
32807ION     NA49068   0.231  18.044   9.895 -0.0298  0.1080  0.1378
32808ION     NA49069  13.523  18.310   4.334  0.4042 -0.3290  0.2354
32809ION     NA49070  14.036   0.470   9.307 -0.0189  0.1049  0.3847
32810ION     NA49071  16.271   5.365   9.826  0.1294  0.0799  0.0797
32811ION     NA49072   3.999  12.751   9.723  0.0272  0.0006  0.0556
32812ION     NA49073   1.171   2.647   5.984  0.1057 -0.1042 -0.2422
32813ION     NA49074   2.223   9.376  14.593  0.0581 -0.1394  0.0575
32814ION     NA49075   9.363  19.415  11.040  0.1858  0.1039 -0.0017
32815ION     NA49076  18.412   4.419   3.696 -0.0117  0.1510  0.0518
32816ION     NA49077  11.089  17.217  14.723  0.0660  0.0848  0.0209
32817ION     NA49078   7.759   5.862  13.331  0.1246 -0.1837 -0.1759
32818ION     NA49079   6.874   0.248   5.192  0.2528 -0.0058 -0.0717
32819ION     NA49080  11.983   0.434   9.105  0.1759  0.0860  0.0340
32820ION     NA49081   0.968  14.864   9.629  0.2006  0.0602  0.1369
32821ION     NA49082   5.862  14.241   0.153 -0.3967  0.1435 -0.1660
32822ION     NA49083  11.882   0.512  13.626 -0.1010  0.0959  0.0953
32823ION     NA49084   3.775  13.675   9.805 -0.0097  0.1911  0.0968
32824ION     NA49085  17.728   3.680   5.619 -0.1811 -0.3715 -0.3642
32825ION     NA49086   0.035  13.389   5.360 -0.2044  0.1039  0.0361
32826ION     NA49087   3.793   5.497  10.223  0.1870  0.2065  0.0184
32827ION     NA49088   9.066  16.816  10.622 -0.0255 -0.0957  0.0428
32828ION     NA49089   8.470   2.272  12.365 -0.2710  0.0728  0.2809
32829ION     NA49090  17.572   8.556   5.386 -0.2693 -0.1238 -0.0500
32830ION     NA49091   3.028   1.663   5.505 -0.1821  0.0851 -0.2658
32831ION     NA49092  14.693   7.950   1.871 -0.2854 -0.2214 -0.0715
32832ION     NA49093   3.319   4.146  10.413 -0.0474 -0.0723 -0.3497
32833ION     NA49094  11.335   4.563   9.734 -0.1435 -0.0318 -0.1032
32834ION     NA49095   4.569   8.757   9.968  0.1432  0.0809 -0.4742
32835ION     NA49096  15.947  18.066  13.083  0.4361  0.0702  0.1004
32836ION     NA49097  11.553   6.490   3.945  0.0996  0.2237 -0.0931
32837ION     NA49098  14.586   8.849   1.365 -0.1983 -0.3282  0.2181
32838ION     NA49099   1.830   4.352  10.509  0.1560  0.1591  0.1951
32839ION     NA49100  15.985  11.443   9.387 -0.4069 -0.0197 -0.0534
32840ION     NA49101  13.541  12.874  13.737  0.2651 -0.0489  0.0072
32841ION     NA49102  19.214   9.107   1.839  0.1750  0.1176 -0.5575
32842ION     NA49103   9.446  16.486   9.400  0.1776 -0.1134 -0.0011
32843ION     NA49104   6.191  15.335   9.514 -0.3444  0.0670 -0.0204
32844ION     NA49105  14.186  16.630   4.724  0.0271 -0.1032 -0.1964
32845ION     NA49106  16.780  11.129   0.879 -0.0522  0.0511  0.0333
32846ION     NA49107   8.835   6.827   9.533  0.4002  0.3701 -0.1670
32847ION     NA49108  17.853  13.787   9.549 -0.0221  0.0209 -0.2610
32848ION     NA49109   3.759   3.186  13.984  0.1247  0.1262 -0.1262
32849ION     NA49110   4.284  10.833   1.849 -0.0812 -0.0578 -0.3026
32850ION     NA49111   1.745  10.715   4.746  0.1032  0.0395  0.2912
32851ION     NA49112   3.238  15.096  10.646  0.1042 -0.0289 -0.0266
32852ION     NA49113   5.335  10.710   9.795  0.1012 -0.0377  0.1163
32853ION     NA49114  10.515  15.266   4.692 -0.1812 -0.0617 -0.1001
32854ION     NA49115   0.017  12.891   9.304 -0.1158 -0.2154  0.0295
32855ION     NA49116  11.993   3.985   9.666 -0.1608 -0.2128  0.1490
32856ION     NA49117   7.747  18.625   9.583 -0.0345 -0.1694  0.4385
32857ION     NA49118  10.611   1.791   9.243  0.1340 -0.2506 -0.2722
32858ION     NA49119   8.379   4.136   9.865  0.0284  0.0115 -0.1550
32859ION     NA49120  11.692   3.526   0.735  0.1067  0.0213  0.0927
32860ION     NA49121  10.303  13.774   5.157 -0.0078 -0.1663 -0.0900
32861ION     NA49122   8.296  11.279   3.878 -0.2355 -0.2697  0.3731
32862ION     NA49123   3.770   4.973   0.994 -0.2985 -0.1009 -0.0087
32863ION     NA49124   5.941  19.385   9.984 -0.0328 -0.0183  0.1563
32864ION     NA49125   5.747  11.559  13.484 -0.1547  0.2329  0.3479
32865ION     NA49126   9.697  15.314  12.657 -0.5440  0.0532 -0.0294
32866ION     NA49127   4.648  11.544   4.365  0.1400 -0.1553  0.0160
32867ION     NA49128  17.172   8.844  12.551  0.3440 -0.1874  0.2587
32868ION     NA49129  19.058   5.455   5.882  0.0705 -0.0042 -0.0038
32869ION     NA49130  11.045   0.641   3.350  0.2526  0.0024  0.1057
32870ION     NA49131   7.271  12.390   2.511 -0.1582  0.0631 -0.3403
32871ION     NA49132   6.713   9.655   9.756 -0.1410  0.4057  0.2927
32872ION     NA49133   2.664  10.379   9.471 -0.2020  0.0871 -0.2250
32873ION     NA49134   4.714  11.370   9.718  0.0549  0.0762 -0.0737
32874ION     NA49135   0.740   5.930  10.152  0.0709 -0.1436 -0.0412
32875ION     NA49136   5.291   2.282   9.908  0.1105 -0.1406 -0.0199
32876ION     NA49137   1.453  11.953   4.486 -0.0894 -0.1447 -0.0226
32877ION     NA49138  14.677   7.638   9.279  0.2468  0.0888  0.1541
32878ION     NA49139  14.915   5.969   9.799  0.1107  0.1928 -0.0719
32879ION     NA49140   6.786  18.946  10.098  0.0783 -0.0154  0.0092
32880ION     NA49141   1.563   8.255   9.865  0.0175  0.2453 -0.1323
32881ION     NA49142  18.245  18.431   9.824 -0.1390 -0.1370 -0.0727
32882ION     NA49143   1.310  18.608  10.316  0.2859  0.3508  0.0808
32883ION     NA49144  12.039  17.508   0.827  0.0232 -0.0313  0.0620
32884ION     NA49145   9.534   6.405   9.861 -0.2942  0.1035  0.1461
32885ION     NA49146  12.189  13.038   9.169 -0.1951 -0.1152  0.1785
32886ION     NA49147  14.245   7.473   1.301 -0.4283  0.3774 -0.0974
32887ION     NA49148  11.101  16.105   9.638  0.0465  0.0126 -0.0341
32888ION     NA49149  10.835  10.134  10.607  0.1586  0.3560 -0.0435
32889ION     NA49150   1.020   3.252   0.924 -0.0745  0.0528  0.0896
32890ION     NA49151  14.000  17.857   9.439  0.2734 -0.0110 -0.1612
32891ION     NA49152  15.413   1.066   9.532 -0.0711 -0.0875 -0.0920
32892ION     NA49153   8.807   3.503   3.854  0.0854  0.0732 -0.0099
32893ION     NA49154   7.095   5.318  11.124  0.0666  0.0117  0.1604
32894ION     NA49155   8.801   9.621   5.232  0.1072 -0.1211  0.0600
32895ION     NA49156   1.760   0.726  10.152  0.3953 -0.1482  0.1420
32896ION     NA49157  17.229   1.827   2.532 -0.1539  0.1519  0.1329
32897ION     NA49158  19.041  16.901  12.697  0.1614 -0.0601  0.3138
32898ION     NA49159  12.611  17.920   9.225 -0.0596 -0.0905  0.0342
32899ION     NA49160  12.239  12.214   9.397  0.2596  0.0590 -0.1347
32900ION     NA49161  15.159  16.256   8.956  0.0686  0.0242 -0.0148
32901ION     NA49162   6.193   0.354   3.987 -0.1015 -0.2193 -0.1955
32902ION     NA49163   0.938  15.107   4.112 -0.3779 -0.1890 -0.1864
32903ION     NA49164  11.756   2.984  11.393 -0.4803 -0.1326  0.1409
32904ION     NA49165  11.408   6.862  10.693  0.3420  0.0265  0.0077
32905ION     NA49166  16.427  18.766   4.025  0.0320  0.1269  0.1017
32906ION     NA49167   0.562  13.529   9.530  0.2308  0.0388 -0.0818
32907ION     NA49168  12.748   2.013   5.352 -0.0623  0.1992 -0.3086
32908ION     NA49169  18.758  12.304   9.238 -0.2424  0.1865  0.1246
32909ION     NA49170  12.134   9.602  14.779 -0.0724  0.1981  0.1908
32910ION     NA49171  11.381  12.106   4.706 -0.0750  0.1011  0.0475
32911ION     NA49172  12.325   1.759   9.257  0.2337  0.0108  0.0579
32912ION     NA49173  11.306  14.528   4.798 -0.1592 -0.3511  0.0408
32913ION     NA49174   9.975   5.785  13.096  0.0764  0.1074 -0.2121
32914ION     NA49175  18.737  14.728   9.580  0.0599  0.1659 -0.0499
32915ION     NA49176   9.691  13.187   9.709  0.1390  0.0942  0.0672
32916ION     NA49177  13.923  11.673   9.181 -0.2146 -0.5300 -0.0733
32917ION     NA49178  12.285   7.856   4.803 -0.1039  0.1011  0.1571
32918ION     NA49179  14.008  10.252   9.422 -0.0618  0.1510 -0.2404
32919ION     NA49180   3.824   9.079   9.746  0.0679  0.1044 -0.0150
32920ION     NA49181   3.225   4.054   5.256 -0.2004  0.0283  0.0881
32921ION     NA49182  15.456   2.494  14.566 -0.1008  0.2139  0.2106
32922ION     NA49183  18.483  14.633   0.673  0.4336  0.1022  0.0289
32923ION     NA49184  16.080  13.845   4.864 -0.0268  0.2832  0.0418
32924ION     NA49185  15.747   7.504   4.993  0.2534 -0.0874 -0.4070
32925ION     NA49186  14.091  18.948  13.517 -0.3021 -0.2616 -0.0620
32926ION     NA49187   9.282  13.066  14.857  0.0370 -0.0957 -0.0389
32927ION     NA49188  11.352   2.032   9.358  0.2416 -0.0945 -0.1466
32928ION     NA49189  10.641  12.725   9.524  0.0448 -0.0119 -0.1868
32929ION     NA49190  15.664  18.203   9.935 -0.0168 -0.1632 -0.0849
32930ION     NA49191   1.291   1.957  11.012 -0.0542  0.0089 -0.0354
32931ION     NA49192   0.332  11.270   8.953 -0.1126  0.0022 -0.2468
32932ION     NA49193  15.007   9.155   9.456 -0.1345  0.0056 -0.0072
32933ION     NA49194  12.634  10.340   2.082  0.3193 -0.4269 -0.1443
32934ION     NA49195   2.625  18.729   9.964 -0.1048  0.0986 -0.0755
32935ION     NA49196  18.148   6.188   0.492 -0.0578 -0.1215 -0.1436
32936ION     NA49197   8.270   2.230   9.670 -0.0976  0.0133 -0.0252
32937ION     NA49198  18.663   6.616  10.224 -0.3195 -0.3146 -0.0377
32938ION     NA49199  12.110   7.585   9.805  0.1849  0.2007 -0.0122
32939ION     NA49200   9.992  19.059   5.134 -0.2745 -0.1819  0.2417
32940ION     NA49201   2.137   8.964   4.014 -0.0117 -0.0015 -0.2544
32941ION     NA49202   1.277  11.375  11.454 -0.1921  0.1058  0.1676
32942ION     NA49203   3.543   0.902  10.174 -0.2087 -0.1279  0.0136
32943ION     NA49204  12.441   1.210   9.159  0.0413  0.1388 -0.1498
32944ION     NA49205   9.126  10.014   9.284 -0.0193 -0.1638  0.0880
32945ION     NA49206   1.631  15.586   5.388 -0.4473 -0.3816  0.0525
32946ION     NA49207  15.234   8.204   9.441  0.1752  0.0116  0.2196
32947ION     NA49208  16.839   3.122   9.980  0.4298  0.0713 -0.3673
32948ION     NA49209  13.039  13.371   9.005  0.0075 -0.0431 -0.2865
32949ION     NA49210   9.740   6.201  11.739  0.1039  0.0315 -0.1576
32950ION     NA49211   5.109  18.877   9.533 -0.0691  0.2687  0.0179
32951ION     NA49212   0.351  17.002  11.843 -0.3867  0.4259  0.3048
32952ION     NA49213   0.238   4.732  10.676  0.1534  0.2708 -0.2960
32953ION     NA49214   5.068   7.148  13.402 -0.2128 -0.1076 -0.1709
32954ION     NA49215   5.793   1.380   5.529 -0.0870 -0.2182  0.2062
32955ION     NA49216   6.554  13.028   9.656  0.1172 -0.3707  0.0211
32956ION     NA49217  14.671  14.430   9.058  0.2688 -0.1697  0.0325
32957ION     NA49218  12.403  11.278   9.520 -0.0773  0.2164  0.1686
32958ION     NA49219   7.809   9.472   9.359 -0.0844  0.2238  0.0995
32959ION     NA49220   6.507  17.598   9.707  0.0775 -0.1155 -0.0064
32960ION     NA49221   8.950   6.846   3.032 -0.1099  0.3758  0.0846
32961ION     NA49222   5.153  13.428   9.643  0.0913  0.2074 -0.0604
32962ION     NA49223   9.629  11.928   9.290  0.4014 -0.2080 -0.2441
32963ION     NA49224   0.886   6.812   5.532 -0.0660  0.0813  0.2592
32964ION     NA49225   0.408   3.722  10.632 -0.1109 -0.1017 -0.1146
32965ION     NA49226   8.943   2.680   9.351 -0.1760 -0.1039  0.3565
32966ION     NA49227  11.975   1.470   5.184  0.2469 -0.2081 -0.3807
32967ION     NA49228  14.519   1.885   4.736 -0.0388 -0.3653  0.4890
32968ION     NA49229   6.711   2.154   1.524  0.1958  0.2012 -0.0901
32969ION     NA49230  12.975  18.345  13.468  0.1852  0.0964  0.0175
32970ION     NA49231   3.594   4.147   1.440  0.0745 -0.1814 -0.1127
32971ION     NA49232  13.613   2.194  12.962  0.0202  0.1659  0.1716
32972ION     NA49233  17.655   9.770   4.013  0.0412  0.0471 -0.2020
32973ION     NA49234   9.471   5.406  10.251  0.0158 -0.3092  0.0377
32974ION     NA49235  15.052   0.119  12.983 -0.1210  0.0165 -0.0175
32975ION     NA49236   6.313  12.529  12.066  0.0080  0.1873  0.0318
32976ION     NA49237   6.964  18.178  13.335 -0.1377 -0.0878  0.1350
32977ION     NA49238   3.375  10.799   0.212  0.0777 -0.2565  0.0522
32978ION     NA49239   6.061   9.426  12.802  0.0068 -0.2019 -0.0289
32979ION     NA49240   4.485  10.549   9.798 -0.1100  0.0258 -0.0946
32980ION     NA49241   6.926  12.454  11.324 -0.0248  0.0752 -0.0657
32981ION     NA49242  14.117  14.345   9.124  0.0985  0.4891  0.2183
32982ION     NA49243  11.586   9.252   9.625  0.0531 -0.1595  0.0939
32983ION     NA49244  16.316  10.923   5.202  0.0058  0.0047  0.3486
32984ION     NA49245  12.691  10.399   9.672 -0.0759  0.1157 -0.0905
32985ION     NA49246   0.150  14.453   9.969 -0.1095 -0.0707 -0.0496
32986ION     NA49247  11.331   6.789   9.873 -0.1396  0.1084 -0.0938
32987ION     NA49248   1.106  12.810   9.503  0.0387  0.0555 -0.0525
32988ION     NA49249   9.409  16.361  14.588  0.1999 -0.2467 -0.1893
32989ION     NA49250   8.638   9.112   9.449  0.3018  0.1690  0.1235
32990ION     NA49251   9.790   4.127   3.540  0.1173 -0.1043 -0.0590
32991ION     NA49252  15.201   5.031   5.239  0.0643  0.0212  0.0644
32992ION     NA49253   3.481  16.968   9.962 -0.1830  0.0458  0.2978
32993ION     NA49254   2.641  11.345   4.787  0.2126 -0.0853  0.1542
32994ION     NA49255  19.305   7.332   9.878  0.0560 -0.3064 -0.0122
32995ION     NA49256  15.068  10.016   9.331 -0.2644  0.1055 -0.1533
32996ION     NA49257   1.016   9.594  13.857 -0.0500  0.0126  0.1174
32997ION     NA49258   5.657   0.840   5.036  0.0734 -0.0684  0.0387
32998ION     NA49259  15.159  18.532   1.715  0.1178 -0.2110  0.0359
32999ION     NA49260  12.600   8.873   9.569  0.0258 -0.0911  0.2798
33000ION     NA49261  19.006   6.108   3.071  0.1672  0.1428 -0.0181
33001ION     NA49262   8.290   8.578   5.043 -0.2561 -0.2953 -0.1106
33002ION     NA49263  16.060   4.005   5.377 -0.0813 -0.2500  0.3566
33003ION     NA49264  11.683   5.402   9.582 -0.1459 -0.1128 -0.0094
33004ION     NA49265  13.066   2.095   9.596 -0.1570 -0.1037 -0.1934
33005ION     NA49266   0.157   3.180   2.157 -0.2984  0.1912 -0.2135
33006ION     NA49267  13.352  15.851   9.076  0.2144 -0.1188  0.1131
33007ION     NA49268   8.320  10.045  10.961  0.2830  0.1027  0.1704
33008ION     NA49269  17.388  19.109   9.788  0.2548 -0.2684  0.2616
33009ION     NA49270  14.893  16.591  11.558  0.2151  0.1190  0.2474
33010ION     NA49271   6.998  14.863   9.486 -0.0638  0.0167  0.0344
33011ION     NA49272  15.325  14.601  13.022 -0.1057  0.1332  0.0502
33012ION     NA49273   6.762   2.584   9.726  0.1815  0.1182 -0.2998
33013ION     NA49274  18.260   8.440  13.003  0.3326 -0.0177  0.0558
33014ION     NA49275  13.826   5.567   9.516 -0.0352 -0.0027 -0.1616
33015ION     NA49276  10.778  10.815   9.270 -0.0509  0.1962  0.1909
33016ION     NA49277  14.264  13.115   9.572 -0.1063  0.1423 -0.1236
33017ION     NA49278   4.807   2.186  12.830 -0.1118  0.2638 -0.3216
33018ION     NA49279   7.499  17.877   9.731  0.3839  0.2412  0.3912
33019ION     NA49280  13.454   5.990   3.166 -0.2387 -0.1893  0.0230
33020ION     NA49281  10.350   0.351   9.576 -0.0823  0.1446  0.0819
33021ION     NA49282   3.005   7.773   9.825  0.2140  0.1191  0.2778
33022ION     NA49283   9.245   1.175  10.033 -0.2352  0.0271 -0.2023
33023ION     NA49284  11.676   6.863  14.826  0.1154 -0.0220 -0.2608
33024ION     NA49285  16.636   3.236   9.368 -0.0840 -0.3329  0.0961
33025ION     NA49286   8.303  15.511   9.631 -0.3844 -0.0960  0.3071
33026ION     NA49287  13.618   4.579   9.615  0.2274  0.0270 -0.0386
33027ION     NA49288  17.193   7.405   9.954  0.0551 -0.0163 -0.1303
33028ION     NA49289   9.891  15.681   9.584  0.0186 -0.3075  0.1413
33029ION     NA49290   9.427   4.034  10.067  0.0759 -0.1437  0.1311
33030ION     NA49291  10.998   9.840   9.162 -0.1170  0.0272 -0.4607
33031ION     NA49292  13.149   3.814   9.557 -0.0439 -0.1974  0.0979
33032ION     NA49293   3.269   5.272   6.021 -0.1456 -0.0055  0.0671
33033ION     NA49294   5.214   1.281   9.555  0.1815  0.0074 -0.0651
33034ION     NA49295   6.434   0.549  13.590  0.1436 -0.1459 -0.1238
33035ION     NA49296  18.434  11.225   2.136  0.2820 -0.0486  0.0984
33036ION     NA49297   7.393   0.902   9.640 -0.1699 -0.0058 -0.1249
33037ION     NA49298   2.502   9.203   9.854  0.0600 -0.2243  0.1469
33038ION     NA49299   8.809  19.354   9.159 -0.1297 -0.1217  0.0031
33039ION     NA49300   5.618   7.213   9.877 -0.2848 -0.1128  0.2511
33040ION     NA49301  12.733   4.628   9.871 -0.0855 -0.2725  0.0623
33041ION     NA49302  10.980   7.958   2.556  0.2548 -0.1857 -0.2338
33042ION     NA49303  17.888  10.672  10.839 -0.0841  0.4276  0.0894
33043ION     NA49304   2.468  16.960   5.619  0.2626 -0.0559  0.4711
33044ION     NA49305   1.067  10.643   9.283  0.5843  0.2735 -0.4748
33045ION     NA49306  17.733   6.574   9.829 -0.3707 -0.1100  0.0326
33046ION     NA49307  19.375   4.315   6.021 -0.1114 -0.0659 -0.0041
33047ION     NA49308   8.288  12.279   9.182  0.0996 -0.2374 -0.3059
33048ION     NA49309   6.024  14.882   9.485 -0.0700  0.3361 -0.1894
33049ION     NA49310  16.671  18.958   9.588 -0.1798 -0.1540 -0.2332
33050ION     NA49311   9.884   6.636   4.857  0.0507  0.0371 -0.2527
33051ION     NA49312   9.611  12.169   3.243  0.0194  0.4343  0.0525
33052ION     NA49313  15.861  15.631   9.406 -0.2994 -0.3185 -0.2126
33053ION     NA49314   6.911   0.678   9.483  0.1942 -0.0909  0.0886
33054ION     NA49315   1.657   5.146  10.486 -0.3554 -0.0377 -0.0629
33055ION     NA49316  10.645   9.062   9.848  0.1257 -0.0616  0.0930
33056ION     NA49317  18.242   9.376   9.807 -0.1613  0.1362 -0.1301
33057ION     NA49318   3.333   3.549  10.160  0.0416  0.0196  0.3828
33058ION     NA49319   5.184   5.754   5.710 -0.1763  0.2325 -0.1037
33059ION     NA49320  10.101  17.347   9.387  0.1306  0.0697  0.1310
33060ION     NA49321   0.641  11.706  12.981  0.1755 -0.0047  0.0465
33061ION     NA49322   5.445  17.330   9.637 -0.2310 -0.4028 -0.1781
33062ION     NA49323  12.941   0.616  12.646  0.0222 -0.0016 -0.1303
33063ION     NA49324  16.458   1.692   3.585 -0.1992 -0.1465  0.0062
33064ION     NA49325   1.316  17.409   5.111  0.0717  0.3642  0.1430
33065ION     NA49326   6.087  10.139   9.527 -0.1160  0.1293 -0.1456
33066ION     NA49327  14.515  18.604   9.279 -0.2118  0.1862 -0.0762
33067ION     NA49328  15.587   3.219   9.687  0.0386 -0.3141  0.0369
33068ION     NA49329   7.706  13.207   4.878 -0.2746 -0.1405 -0.1912
33069ION     NA49330  10.706  14.816   3.624  0.1712 -0.0040  0.1013
33070ION     NA49331  12.290   9.694   9.943 -0.1719 -0.2625  0.2374
33071ION     NA49332  14.323   1.490  12.142  0.4717 -0.2744 -0.2561
33072ION     NA49333   6.574   6.925   9.966 -0.0485 -0.2311 -0.1757
33073ION     NA49334   9.654  11.167   4.050  0.3186 -0.3040  0.2255
33074ION     NA49335   0.544   8.894   9.841  0.3596  0.2116  0.0834
33075ION     NA49336  18.566  14.652   1.782 -0.2849  0.1389  0.1375
33076ION     NA49337   4.822  18.702   5.083 -0.1089 -0.2103 -0.1710
33077ION     NA49338  11.606  19.162   9.017  0.1552 -0.2833  0.1249
33078ION     NA49339  10.541   7.370   9.580  0.0063  0.2029 -0.2451
33079ION     NA49340   9.743  16.368  12.013 -0.1230 -0.3499 -0.2344
33080ION     NA49341  17.011   7.145  12.096  0.3925 -0.1998  0.5847
33081ION     NA49342   4.709   6.271   3.914 -0.3998  0.0852 -0.1163
33082ION     NA49343  10.962  11.354  10.293 -0.3014 -0.0168 -0.0024
33083ION     NA49344   3.319  15.207   9.892 -0.3594  0.2411  0.0575
33084ION     NA49345   7.248  14.769   1.166  0.1647 -0.2985 -0.3781
33085ION     NA49346   4.133   3.766   9.943  0.0679 -0.1061 -0.0547
33086ION     NA49347  12.395   6.055   9.531  0.2393 -0.2594  0.3817
33087ION     NA49348  16.166   9.236   9.505 -0.3114 -0.1670  0.0673
33088ION     NA49349  12.778  16.893   4.763  0.1926 -0.1399 -0.2821
33089ION     NA49350  12.492   0.307   4.947  0.3950  0.1988  0.0433
33090ION     NA49351   7.851  12.419   4.857 -0.1880  0.1732  0.1863
33091ION     NA49352  11.586  14.989   9.881  0.0705 -0.3985  0.0798
33092ION     NA49353   3.503  18.469  10.037 -0.1904  0.2355 -0.0498
33093ION     NA49354   1.698   0.312   4.573  0.3516 -0.0045 -0.1009
33094ION     NA49355   1.985   3.516   0.762  0.2518  0.2207 -0.0184
33095ION     NA49356   6.354   7.195   5.640  0.0014 -0.0406  0.0971
33096ION     NA49357  13.164   7.734   9.456  0.0766  0.1506  0.2519
33097ION     NA49358   7.953  13.090   9.533  0.0141  0.1690  0.0258
33098ION     NA49359   5.569   9.645  10.037  0.0644  0.3402 -0.2416
33099ION     NA49360   9.213   7.711   9.573 -0.0990 -0.1358 -0.0683
33100ION     NA49361  15.053   4.043   5.233 -0.0576 -0.4060  0.1991
33101ION     NA49362  18.335   9.328   0.931  0.0867 -0.0219 -0.1947
33102ION     NA49363  13.454  10.481   2.056  0.1248  0.1492  0.2177
33103ION     NA49364  16.063  11.960   9.540  0.2098  0.0163 -0.1053
33104ION     NA49365   7.167  15.367   5.148 -0.2560 -0.0236  0.2837
33105ION     NA49366   1.062  10.405  11.374  0.1787 -0.0841  0.2258
33106ION     NA49367  12.410   4.842  11.198  0.1266 -0.0401 -0.4101
33107ION     NA49368   1.247  15.775  10.012  0.0027 -0.0273 -0.3511
33108ION     NA49369  15.167   9.291   2.093 -0.2302  0.0054 -0.3682
33109ION     NA49370  17.908  11.844   9.500 -0.3561 -0.3694  0.0498
33110ION     NA49371   2.034  19.349  10.253 -0.3371 -0.3629  0.0473
33111ION     NA49372  11.253  16.885   9.343 -0.4695  0.0810  0.5214
33112ION     NA49373  19.208  14.950   5.417 -0.1041 -0.3216 -0.2823
33113ION     NA49374  12.640   6.950   9.554 -0.2627  0.1555  0.3404
33114ION     NA49375  16.785  16.816  10.413  0.0484 -0.0058  0.1295
33115ION     NA49376  17.492  18.447   9.505  0.4115  0.3036  0.1024
33116ION     NA49377   5.888  16.378   9.442 -0.1522  0.1583 -0.2567
33117ION     NA49378   8.093   1.328   9.499 -0.3990 -0.1750  0.2329
33118ION     NA49379   4.197  18.947   9.861 -0.0566  0.1611 -0.0355
33119ION     NA49380  14.941   0.277   9.549  0.1539 -0.2215  0.1674
33120ION     NA49381  14.880   6.048   0.835  0.1031 -0.1325  0.2056
33121ION     NA49382   5.375  14.694   5.303  0.1298 -0.1507  0.0610
33122ION     NA49383   5.681  16.814   2.866  0.1992 -0.0906 -0.2707
33123ION     NA49384   2.988  18.515   2.066 -0.1934  0.2857  0.0524
33124ION     NA49385   8.078   3.715   3.342  0.0661 -0.0926  0.1422
33125ION     NA49386   3.945   4.982  14.195  0.0898 -0.0950  0.0284
33126ION     NA49387  11.325   9.544   9.917  0.2486 -0.0222  0.5292
33127ION     NA49388   8.873  14.231   9.601 -0.2856 -0.1196  0.1848
33128ION     NA49389  10.446  15.567   9.399 -0.2158  0.1156 -0.0290
33129ION     NA49390   5.751   1.029   1.859  0.2343 -0.0377 -0.2915
33130ION     NA49391   1.680   6.557   5.756 -0.2846 -0.0403 -0.0290
33131ION     NA49392   9.016   1.919  13.795 -0.2287 -0.2752 -0.0053
33132ION     NA49393   3.888  16.640   2.394 -0.1204  0.2848 -0.4813
33133ION     NA49394   3.653   3.899  11.458  0.0560 -0.2457 -0.0667
33134ION     NA49395  12.601   8.333   5.186 -0.2749  0.2944  0.3688
33135ION     NA49396   8.342   8.206   9.500 -0.0501 -0.2206 -0.0860
33136ION     NA49397   3.282  16.662   0.392 -0.1580  0.0085  0.1312
33137ION     NA49398   5.769   8.041   9.691  0.0637  0.2593  0.0498
33138ION     NA49399  12.985  11.827   9.067  0.2105  0.0132  0.2428
33139ION     NA49400   5.037  14.688  11.706 -0.0419 -0.1574  0.2167
33140ION     NA49401  16.509  14.422   9.197 -0.0763  0.1898  0.0761
33141ION     NA49402   7.533   3.879   9.614 -0.1287  0.1000  0.2889
33142ION     NA49403  19.417   8.330   9.953 -0.1782 -0.1328  0.2143
33143ION     NA49404   9.078   2.342  14.765 -0.0630  0.4073  0.0315
33144ION     NA49405   6.960  16.749  10.608  0.0201 -0.0628 -0.0964
33145ION     NA49406   8.130   0.691   2.887 -0.0271 -0.3957  0.1632
33146ION     NA49407  19.026  15.935   5.311  0.0352  0.2609  0.4008
33147ION     NA49408  14.833   2.882   5.291 -0.1269 -0.0938 -0.1089
33148ION     NA49409   4.493   8.799   5.661 -0.1867  0.1529  0.3651
33149ION     NA49410  18.542   7.116   9.856  0.1000 -0.0521  0.2323
33150ION     NA49411   1.444  13.621   9.722  0.2685  0.2628  0.3000
33151ION     NA49412   5.261  15.468   5.801  0.0056  0.3942  0.0342
33152ION     NA49413   5.741  11.592   9.570 -0.0416  0.0522 -0.0800
33153ION     NA49414   9.465   5.554   9.583  0.0054  0.1817 -0.0902
33154ION     NA49415  12.573   2.920   9.570  0.0827  0.3218  0.1827
33155ION     NA49416   5.670   3.214   4.132  0.1447 -0.0728 -0.2112
33156ION     NA49417  13.375  11.082   9.382 -0.0525  0.4033 -0.0770
33157ION     NA49418   2.001  15.292  10.214 -0.1095  0.1351 -0.0690
33158ION     NA49419   1.846   2.472  10.338 -0.4743  0.0308  0.2954
33159ION     NA49420   5.479  15.597   9.612  0.1209  0.0987  0.2622
33160ION     NA49421  19.356   8.367   5.320 -0.2522 -0.1515  0.4288
33161ION     NA49422   0.253  18.367   5.724  0.0759 -0.3085 -0.2793
33162ION     NA49423  11.914   6.020   2.202 -0.2896 -0.2461 -0.3831
33163ION     NA49424  13.295   0.859   4.896 -0.0397  0.0279  0.2042
33164ION     NA49425   5.640   6.363   9.693 -0.1032  0.2059 -0.2570
33165ION     NA49426  18.096   6.677   5.242 -0.2254  0.2312  0.5810
33166ION     NA49427   8.758  19.266  12.666 -0.0413  0.1839 -0.0343
33167ION     NA49428  17.383  17.402   9.470  0.1486 -0.2058  0.1017
  19.45200  19.45200  14.88594
