INSANE! Membrane UpperLeaflet>loPI:POPI:DPPI:PYPI:ERGO=180.0:5.0:3.0:2.0:10.0 LowerLeaflet>PSPI:POPI:POPS:YOPS:POPE:YOPE:POPC:YOPC:ERGO=6.0:14.0:21.0:9.0:9.0:21.0:12.0:48.0:60.0
49428
    1loPI    C1    1   2.294  15.693  10.539  0.0121 -0.1454 -0.0035
    1loPI    C2    2   2.380  15.758  10.924  0.1702 -0.1816 -0.0323
    1loPI    C3    3   2.220  16.050  10.702 -0.1873 -0.2473  0.1334
    1loPI   PO4    4   2.516  15.590  10.515 -0.4020  0.4715  0.0908
    1loPI   GL1    5   2.626  15.366  10.046 -0.1881  0.3636 -0.3305
    1loPI   GL2    6   2.416  15.312   9.731  0.1432 -0.0298 -0.0811
    1loPI   C1A    7   2.675  15.746   9.817  0.2058  0.0349 -0.0471
    1loPI   C2A    8   2.689  15.881   9.372 -0.0727 -0.1077 -0.1076
    1loPI   C3A    9   2.613  15.835   9.000 -0.2672 -0.1750 -0.1221
    1loPI   C4A   10   2.538  15.964   8.608  0.1016  0.1436  0.1464
    1loPI   C5A   11   2.533  15.940   8.207 -0.0166  0.3743 -0.1332
    1loPI   C6A   12   2.401  15.719   7.855 -0.1745 -0.2196 -0.0794
    1loPI   C1B   13   2.491  15.374   9.248  0.1116  0.1246  0.4113
    1loPI   C2B   14   2.508  15.340   8.770  0.2836 -0.1657 -0.4392
    1loPI   C3B   15   2.451  15.472   8.443  0.3768 -0.1075  0.0380
    1loPI   C4B   16   2.646  15.381   8.056  0.2673  0.1106 -0.1929
    2loPI    C1   17  14.306   9.618  10.604  0.0209  0.2454 -0.1402
    2loPI    C2   18  14.052   9.545  10.905  0.2262 -0.1536 -0.0563
    2loPI    C3   19  14.445   9.569  10.976  0.2456  0.1180 -0.2387
    2loPI   PO4   20  14.224   9.647  10.436 -0.0217  0.0966 -0.0993
    2loPI   GL1   21  14.235   9.368  10.024 -0.0452 -0.1629  0.1608
    2loPI   GL2   22  13.972   9.241  10.011 -0.0546  0.1763  0.1147
    2loPI   C1A   23  14.297   9.638   9.645  0.1141 -0.0480  0.0159
    2loPI   C2A   24  14.369   9.727   9.191  0.2568 -0.0868 -0.1778
    2loPI   C3A   25  14.351   9.742   8.809 -0.2016 -0.0254 -0.1309
    2loPI   C4A   26  14.333   9.732   8.383 -0.0973 -0.0500 -0.0058
    2loPI   C5A   27  14.419   9.683   7.980  0.0841 -0.0619 -0.0284
    2loPI   C6A   28  14.749   9.710   7.753  0.1224  0.1295 -0.0506
    2loPI   C1B   29  14.108   9.131   9.617  0.0317 -0.1433 -0.2976
    2loPI   C2B   30  14.116   9.241   9.206 -0.0128 -0.1344 -0.4370
    2loPI   C3B   31  14.176   9.261   8.740 -0.3308 -0.2702  0.0245
    2loPI   C4B   32  14.250   9.250   8.199  0.0257 -0.3067 -0.0539
    3loPI    C1   33   0.610   9.974  10.587  0.0285 -0.0860  0.2009
    3loPI    C2   34   0.363   9.797  10.847 -0.0388 -0.0807  0.1413
    3loPI    C3   35   0.214  10.011  10.545  0.0396 -0.0605  0.1166
    3loPI   PO4   36   0.768   9.771  10.526  0.0141 -0.0873 -0.1390
    3loPI   GL1   37   0.894   9.584  10.176  0.2389 -0.1619 -0.0383
    3loPI   GL2   38   0.766   9.397  10.019 -0.2930  0.0386 -0.1072
    3loPI   C1A   39   0.819   9.802   9.706 -0.1400  0.0287 -0.0091
    3loPI   C2A   40   0.754   9.699   9.261 -0.1378  0.1522  0.0414
    3loPI   C3A   41   0.632   9.920   8.966 -0.0502  0.1013 -0.2122
    3loPI   C4A   42   0.826  10.036   8.570 -0.4517 -0.0656  0.0572
    3loPI   C5A   43   0.803   9.882   8.081 -0.0899 -0.0505  0.3287
    3loPI   C6A   44   1.109   9.681   7.814 -0.2611 -0.1555 -0.2853
    3loPI   C1B   45   0.650   9.270   9.613 -0.2825 -0.2455 -0.2043
    3loPI   C2B   46   0.607   9.123   9.164 -0.1360  0.4856 -0.2598
    3loPI   C3B   47   0.675   9.091   8.816 -0.2023 -0.2377  0.0089
    3loPI   C4B   48   0.742   8.821   8.481  0.2277  0.2042 -0.2540
    4loPI    C1   49   8.562   0.767  10.594 -0.0731 -0.2288  0.1971
    4loPI    C2   50   8.736   1.076  10.780 -0.1208 -0.1931  0.1826
    4loPI    C3   51   8.337   1.046  10.773 -0.1227 -0.1436  0.0046
    4loPI   PO4   52   8.725   0.807  10.323 -0.2336  0.2413 -0.0672
    4loPI   GL1   53   8.867   0.571  10.070  0.2378 -0.1675  0.1832
    4loPI   GL2   54   8.871   0.189  10.016  0.1663 -0.0487  0.2258
    4loPI   C1A   55   9.095   0.598   9.643  0.1248 -0.2131 -0.1663
    4loPI   C2A   56   9.152   0.605   9.247 -0.2367  0.0071  0.0155
    4loPI   C3A   57   9.163   0.722   8.916  0.1880 -0.0472  0.0372
    4loPI   C4A   58   9.135   0.753   8.442 -0.3678 -0.1706  0.1695
    4loPI   C5A   59   9.221   0.709   7.955 -0.0229 -0.1394 -0.0971
    4loPI   C6A   60   9.068   0.660   7.662 -0.1195  0.2695  0.0887
    4loPI   C1B   61   8.962   0.100   9.585 -0.0067 -0.0800  0.3681
    4loPI   C2B   62   8.996   0.143   9.201 -0.3407  0.2961 -0.1672
    4loPI   C3B   63   8.958   0.273   8.818 -0.0341  0.0259 -0.0475
    4loPI   C4B   64   9.045   0.247   8.389 -0.2188  0.0687 -0.2157
    5loPI    C1   65   2.808  14.638  10.598 -0.0812 -0.2432  0.0277
    5loPI    C2   66   3.079  14.678  10.307 -0.0932  0.2205  0.0726
    5loPI    C3   67   3.159  14.813  10.675 -0.2378  0.0085  0.1841
    5loPI   PO4   68   2.607  14.362  10.505 -0.5014  0.0362  0.1960
    5loPI   GL1   69   2.413  14.226  10.171  0.0653  0.2377 -0.2377
    5loPI   GL2   70   2.537  13.961   9.998 -0.1100 -0.0614 -0.2226
    5loPI   C1A   71   2.220  14.300   9.692  0.0126  0.0826  0.0147
    5loPI   C2A   72   2.263  14.344   9.326 -0.0112 -0.1981  0.1179
    5loPI   C3A   73   2.315  14.313   8.770  0.0381  0.2414  0.2172
    5loPI   C4A   74   2.187  14.374   8.404  0.0189  0.0604  0.1903
    5loPI   C5A   75   2.178  14.421   8.006  0.0244  0.2434 -0.1056
    5loPI   C6A   76   1.968  14.685   7.833  0.4697 -0.0150  0.2790
    5loPI   C1B   77   2.596  13.963   9.531 -0.0934  0.0380  0.0919
    5loPI   C2B   78   2.685  13.928   9.016  0.0789  0.1745  0.0973
    5loPI   C3B   79   2.552  13.953   8.521 -0.2048  0.2214  0.0402
    5loPI   C4B   80   2.583  14.108   8.065  0.1668 -0.4337 -0.1247
    6loPI    C1   81  10.744  13.881  10.083 -0.0376  0.0157  0.0003
    6loPI    C2   82  10.877  13.706  10.417 -0.0194 -0.1430 -0.0896
    6loPI    C3   83  11.118  13.948  10.208 -0.0504  0.0054  0.0447
    6loPI   PO4   84  10.542  13.687   9.946  0.0998  0.2577  0.2371
    6loPI   GL1   85  10.468  13.521   9.645  0.2037  0.0045  0.1659
    6loPI   GL2   86  10.348  13.955   9.571 -0.2819 -0.2296 -0.0897
    6loPI   C1A   87  10.385  13.543   9.266 -0.2043  0.3342 -0.1392
    6loPI   C2A   88  10.364  13.472   8.788  0.0174  0.0521  0.2344
    6loPI   C3A   89  10.302  13.453   8.320 -0.2044  0.2936 -0.4585
    6loPI   C4A   90   9.955  13.331   8.050  0.0399  0.0450  0.0891
    6loPI   C5A   91   9.715  13.369   7.754 -0.1264  0.1674 -0.0775
    6loPI   C6A   92   9.591  13.060   7.423 -0.0531 -0.2351  0.0450
    6loPI   C1B   93  10.152  13.991   9.259 -0.2112  0.0103  0.0567
    6loPI   C2B   94  10.239  13.964   8.847 -0.0108  0.2570  0.0560
    6loPI   C3B   95  10.412  14.118   8.470 -0.1449  0.4715  0.1349
    6loPI   C4B   96  10.656  14.299   8.171  0.1957 -0.0376  0.0685
    7loPI    C1   97   9.458   6.471  10.007  0.0509 -0.1203  0.0388
    7loPI    C2   98   9.403   6.565  10.392 -0.0443 -0.0763  0.0147
    7loPI    C3   99   9.343   6.841  10.109  0.1563 -0.0701 -0.0227
    7loPI   PO4  100   9.708   6.307   9.961  0.0045 -0.0367 -0.0741
    7loPI   GL1  101  10.101   6.167   9.629  0.1743  0.0204 -0.1712
    7loPI   GL2  102   9.926   5.972   9.647  0.1198  0.0337 -0.2081
    7loPI   C1A  103  10.446   5.962   9.321 -0.1761  0.0720 -0.0768
    7loPI   C2A  104  10.463   5.924   8.967  0.1043 -0.0042  0.1089
    7loPI   C3A  105  10.354   6.023   8.636 -0.2894  0.0975  0.2114
    7loPI   C4A  106  10.243   6.004   8.216  0.2135  0.4467  0.0707
    7loPI   C5A  107   9.892   6.032   7.969  0.2536 -0.1964  0.1725
    7loPI   C6A  108   9.551   6.053   7.655 -0.0159  0.0896 -0.0546
    7loPI   C1B  109   9.740   5.921   9.254  0.0505 -0.2427  0.3427
    7loPI   C2B  110   9.910   5.853   8.854  0.0255  0.1441 -0.2003
    7loPI   C3B  111   9.834   5.806   8.459 -0.0042  0.1962  0.2434
    7loPI   C4B  112   9.723   5.610   8.080 -0.0160  0.2197 -0.0679
    8loPI    C1  113   4.107  16.325  10.935 -0.3684 -0.1887  0.0516
    8loPI    C2  114   3.773  16.545  10.914 -0.3443 -0.1618 -0.0555
    8loPI    C3  115   3.928  16.450  11.270 -0.3649 -0.0204 -0.0084
    8loPI   PO4  116   4.245  16.346  10.801  0.0116 -0.0411 -0.0645
    8loPI   GL1  117   4.356  16.373  10.478  0.0401 -0.0147  0.0757
    8loPI   GL2  118   4.514  16.071  10.330  0.1842  0.3217  0.0408
    8loPI   C1A  119   4.312  16.522  10.131  0.0674  0.2934 -0.0059
    8loPI   C2A  120   4.220  16.383   9.676  0.1533 -0.1257  0.1266
    8loPI   C3A  121   4.126  16.240   9.287  0.1965 -0.1310  0.0324
    8loPI   C4A  122   4.170  16.252   8.841  0.0370  0.3907 -0.4088
    8loPI   C5A  123   4.028  16.240   8.381  0.0779  0.2065  0.0256
    8loPI   C6A  124   3.760  16.211   8.176  0.0140 -0.0459 -0.1299
    8loPI   C1B  125   4.641  15.967   9.913 -0.1520 -0.2472 -0.1425
    8loPI   C2B  126   4.595  15.868   9.557 -0.3064 -0.0477  0.2393
    8loPI   C3B  127   4.472  15.913   9.213 -0.0376 -0.0354  0.0929
    8loPI   C4B  128   4.515  15.867   8.843  0.0116  0.1767 -0.1941
    9loPI    C1  129   7.623  11.185  10.066 -0.1202 -0.1850  0.0865
    9loPI    C2  130   7.374  10.933  10.252 -0.0780 -0.2722  0.0256
    9loPI    C3  131   7.768  10.910  10.318 -0.0808 -0.1707  0.0795
    9loPI   PO4  132   7.568  11.218   9.892 -0.2764  0.0104  0.1334
    9loPI   GL1  133   7.642  11.080   9.434  0.0218 -0.1830 -0.2315
    9loPI   GL2  134   7.793  10.788   9.396  0.0843  0.0934 -0.0735
    9loPI   C1A  135   7.378  11.270   9.162 -0.2252  0.2250 -0.1918
    9loPI   C2A  136   7.242  11.212   8.826 -0.0585  0.4395  0.0277
    9loPI   C3A  137   7.064  11.004   8.428  0.2899 -0.1012  0.3142
    9loPI   C4A  138   6.715  10.910   8.183 -0.1712 -0.2611 -0.0866
    9loPI   C5A  139   6.493  11.059   7.763 -0.4095  0.2161 -0.3166
    9loPI   C6A  140   6.391  10.966   7.267 -0.1030  0.0123  0.1145
    9loPI   C1B  141   7.720  10.902   8.995 -0.0100  0.0734  0.4124
    9loPI   C2B  142   7.620  10.965   8.547 -0.0452  0.0415  0.1581
    9loPI   C3B  143   7.593  11.201   8.218 -0.4782 -0.0395  0.0483
    9loPI   C4B  144   7.714  11.640   8.044 -0.1346  0.0962  0.0474
   10loPI    C1  145   0.062  12.718  10.845  0.0092 -0.0381 -0.0053
   10loPI    C2  146   0.368  12.714  11.104  0.1127 -0.0421 -0.1269
   10loPI    C3  147  -0.003  12.790  11.233  0.1532 -0.1148  0.0338
   10loPI   PO4  148   0.117  12.907  10.672  0.1053  0.1277 -0.2410
   10loPI   GL1  149   0.103  12.906  10.341  0.1575 -0.3194 -0.2407
   10loPI   GL2  150   0.275  12.672  10.182 -0.0947  0.0699  0.1760
   10loPI   C1A  151  -0.203  12.766   9.963  0.0165  0.4822 -0.1747
   10loPI   C2A  152  -0.061  12.712   9.513  0.0120 -0.4138 -0.0406
   10loPI   C3A  153  -0.036  12.750   9.200 -0.0129 -0.0655  0.1498
   10loPI   C4A  154   0.037  12.875   8.796  0.1583 -0.0183 -0.0388
   10loPI   C5A  155   0.011  13.063   8.419 -0.1784 -0.0097 -0.1098
   10loPI   C6A  156   0.034  13.177   7.983 -0.2323 -0.1449 -0.2090
   10loPI   C1B  157   0.459  12.878   9.812 -0.4897  0.0252  0.1612
   10loPI   C2B  158   0.421  12.851   9.465  0.1336 -0.1449  0.0627
   10loPI   C3B  159   0.436  12.953   9.092 -0.1076  0.2198  0.0187
   10loPI   C4B  160   0.555  12.908   8.700 -0.4008 -0.2937 -0.1052
   11loPI    C1  161  17.360  15.390  10.787 -0.1768 -0.2285 -0.0581
   11loPI    C2  162  17.358  15.221  11.149  0.0134 -0.2158 -0.0498
   11loPI    C3  163  17.429  15.612  11.112 -0.2742 -0.1643 -0.0811
   11loPI   PO4  164  17.143  15.373  10.660 -0.0169 -0.1707  0.1283
   11loPI   GL1  165  17.089  15.077  10.289 -0.3937 -0.0733 -0.3389
   11loPI   GL2  166  16.880  15.031  10.208  0.2095 -0.2079  0.2836
   11loPI   C1A  167  17.374  14.854  10.042  0.2537  0.1101 -0.1893
   11loPI   C2A  168  17.397  14.826   9.578  0.1632 -0.0787  0.2018
   11loPI   C3A  169  17.372  14.831   9.161  0.1132  0.1001  0.3123
   11loPI   C4A  170  17.389  14.859   8.747  0.2623  0.0794  0.2099
   11loPI   C5A  171  17.596  14.803   8.425 -0.3716 -0.1471 -0.1995
   11loPI   C6A  172  17.644  14.781   7.950 -0.0021 -0.2791 -0.0934
   11loPI   C1B  173  17.015  15.188   9.832  0.0741  0.0027 -0.1728
   11loPI   C2B  174  17.080  15.215   9.502 -0.2002 -0.3602 -0.0944
   11loPI   C3B  175  17.080  15.232   9.093 -0.2241 -0.1768 -0.0240
   11loPI   C4B  176  17.027  15.223   8.678  0.2522 -0.1245 -0.1019
   12loPI    C1  177  15.887   4.787  11.184 -0.1735  0.1512 -0.1904
   12loPI    C2  178  15.615   4.494  11.183 -0.1083  0.0873  0.0505
   12loPI    C3  179  15.734   4.656  11.529  0.0726  0.1970 -0.0608
   12loPI   PO4  180  15.807   4.908  10.910 -0.3464 -0.2629 -0.0245
   12loPI   GL1  181  15.980   4.771  10.422  0.1791 -0.0522 -0.3243
   12loPI   GL2  182  16.229   4.443  10.371 -0.2147  0.2046  0.3250
   12loPI   C1A  183  15.840   4.731  10.028 -0.2484  0.1259 -0.2080
   12loPI   C2A  184  15.737   4.473   9.645 -0.1207  0.1183  0.1142
   12loPI   C3A  185  15.635   4.375   9.252 -0.0009 -0.0347 -0.3556
   12loPI   C4A  186  15.739   4.448   8.778  0.0737  0.0613  0.2188
   12loPI   C5A  187  15.817   4.439   8.349  0.1054  0.1079  0.0739
   12loPI   C6A  188  16.221   4.525   8.151 -0.0355 -0.0249 -0.3026
   12loPI   C1B  189  16.294   4.629   9.977 -0.0191 -0.0239 -0.1079
   12loPI   C2B  190  16.184   4.654   9.541  0.0257 -0.1900 -0.3655
   12loPI   C3B  191  16.181   4.552   9.078 -0.3767  0.2586 -0.2225
   12loPI   C4B  192  16.212   4.595   8.636 -0.0133 -0.1392  0.1995
   13loPI    C1  193   4.218  10.089  10.531  0.1307 -0.2952 -0.1285
   13loPI    C2  194   4.542  10.191  10.741  0.0405 -0.1229 -0.0712
   13loPI    C3  195   4.295   9.908  10.879 -0.0057 -0.0273  0.0443
   13loPI   PO4  196   4.321  10.158  10.256 -0.1410 -0.1859 -0.0120
   13loPI   GL1  197   4.101  10.301   9.930 -0.0942 -0.0039 -0.2191
   13loPI   GL2  198   3.794  10.011   9.862 -0.1736 -0.2175  0.3760
   13loPI   C1A  199   4.021  10.181   9.388  0.0864 -0.1675  0.1086
   13loPI   C2A  200   3.940  10.141   8.999 -0.1541  0.1335 -0.2165
   13loPI   C3A  201   3.692  10.454   8.655 -0.3317  0.0688  0.1818
   13loPI   C4A  202   3.804  10.715   8.208  0.1627 -0.0653 -0.1149
   13loPI   C5A  203   3.954  10.728   7.730 -0.0341 -0.0041 -0.0752
   13loPI   C6A  204   4.326  10.656   7.563 -0.2595 -0.0682  0.1502
   13loPI   C1B  205   3.520   9.932   9.534  0.0206 -0.0027 -0.0232
   13loPI   C2B  206   3.634   9.667   9.122  0.1329 -0.1495 -0.1257
   13loPI   C3B  207   3.702   9.780   8.767 -0.2825  0.2082 -0.1111
   13loPI   C4B  208   4.005  10.074   8.486 -0.2256 -0.2680 -0.1292
   14loPI    C1  209  10.947  12.021  10.241  0.0857  0.0508 -0.0751
   14loPI    C2  210  11.138  11.783  10.500  0.1330 -0.0782 -0.2267
   14loPI    C3  211  11.269  12.156  10.436  0.1406 -0.0568 -0.0908
   14loPI   PO4  212  10.916  11.876  10.026  0.1219 -0.2856  0.0973
   14loPI   GL1  213  10.740  11.945   9.651 -0.0030 -0.0561  0.0747
   14loPI   GL2  214  10.903  11.880   9.390 -0.2237  0.2716 -0.1625
   14loPI   C1A  215  10.866  12.332   9.411  0.1842  0.0113  0.2921
   14loPI   C2A  216  10.841  12.501   9.021  0.2740 -0.1359 -0.1930
   14loPI   C3A  217  10.494  12.591   8.789 -0.1513 -0.1198  0.0743
   14loPI   C4A  218  10.379  12.769   8.300 -0.1711  0.0053  0.1899
   14loPI   C5A  219  10.369  12.983   8.029  0.1726  0.0286 -0.2632
   14loPI   C6A  220  10.241  13.175   7.646  0.4557 -0.1043 -0.0285
   14loPI   C1B  221  10.873  11.643   8.999  0.2338  0.0888 -0.0733
   14loPI   C2B  222  10.872  11.416   8.627  0.2404 -0.0673  0.1347
   14loPI   C3B  223  10.872  11.212   8.172  0.0151  0.4460  0.1125
   14loPI   C4B  224  10.891  10.879   7.857 -0.0287 -0.3126 -0.1798
   15loPI    C1  225   4.901  16.669  11.277 -0.1544  0.2922  0.2550
   15loPI    C2  226   4.911  16.269  11.278  0.0667  0.2913 -0.1938
   15loPI    C3  227   5.222  16.477  11.419 -0.0493  0.3076  0.0418
   15loPI   PO4  228   4.765  16.646  11.015  0.0595 -0.1224 -0.2202
   15loPI   GL1  229   4.787  16.653  10.471  0.1714 -0.0203 -0.3887
   15loPI   GL2  230   5.053  16.555  10.317 -0.0468 -0.2690 -0.0549
   15loPI   C1A  231   4.709  16.872  10.015 -0.0494 -0.1806  0.0286
   15loPI   C2A  232   4.769  16.903   9.534 -0.3473 -0.5640  0.0903
   15loPI   C3A  233   4.841  16.884   9.140 -0.3076 -0.4220  0.1743
   15loPI   C4A  234   4.784  16.937   8.670 -0.1519  0.0269 -0.0029
   15loPI   C5A  235   4.676  16.872   8.237 -0.2907 -0.0156  0.0679
   15loPI   C6A  236   4.937  16.750   7.858 -0.1877  0.0847 -0.0434
   15loPI   C1B  237   4.878  16.411  10.018 -0.5858 -0.3713 -0.0208
   15loPI   C2B  238   4.809  16.429   9.624 -0.1230 -0.1704 -0.0237
   15loPI   C3B  239   4.645  16.401   9.187  0.1777  0.0411 -0.0212
   15loPI   C4B  240   4.706  16.453   8.737  0.0941  0.0370  0.0681
   16loPI    C1  241   2.661  11.127  10.592  0.2572  0.0363 -0.0196
   16loPI    C2  242   2.568  10.769  10.440  0.1126  0.0623  0.0060
   16loPI    C3  243   2.653  10.805  10.829  0.1663  0.0496 -0.0044
   16loPI   PO4  244   2.537  11.344  10.433 -0.2007 -0.0463 -0.1332
   16loPI   GL1  245   2.698  11.625  10.084  0.1154  0.0511 -0.0244
   16loPI   GL2  246   2.442  11.601   9.836  0.2751 -0.0377  0.0157
   16loPI   C1A  247   2.971  11.663   9.757  0.0323 -0.2604 -0.1666
   16loPI   C2A  248   2.991  11.562   9.315 -0.3039 -0.0012 -0.0127
   16loPI   C3A  249   2.795  11.708   9.007 -0.3507  0.0136  0.1119
   16loPI   C4A  250   2.898  11.862   8.638  0.3785 -0.3068 -0.0432
   16loPI   C5A  251   2.784  11.883   8.195  0.3082  0.1093 -0.1722
   16loPI   C6A  252   2.789  12.116   7.832 -0.0310  0.1931 -0.2030
   16loPI   C1B  253   2.470  11.544   9.417 -0.1444  0.1969  0.0118
   16loPI   C2B  254   2.326  11.535   8.895  0.0348 -0.1567 -0.0403
   16loPI   C3B  255   2.288  11.773   8.433  0.2132  0.1201 -0.0358
   16loPI   C4B  256   1.976  11.772   8.078  0.1099  0.2125 -0.0237
   17loPI    C1  257   1.877   3.759  11.196 -0.1718  0.2851  0.0147
   17loPI    C2  258   2.163   3.985  11.359  0.0313  0.0576 -0.0210
   17loPI    C3  259   1.794   4.132  11.315  0.1994  0.4420 -0.2009
   17loPI   PO4  260   1.953   3.729  10.900  0.0047 -0.0908  0.1293
   17loPI   GL1  261   1.665   3.656  10.583 -0.1592 -0.3232 -0.2574
   17loPI   GL2  262   1.358   3.718  10.499 -0.2008 -0.4082 -0.1374
   17loPI   C1A  263   1.665   3.817  10.100  0.2840  0.1377  0.1052
   17loPI   C2A  264   1.779   3.966   9.751 -0.0518 -0.1183 -0.0174
   17loPI   C3A  265   1.784   3.873   9.338  0.0276  0.1077  0.0249
   17loPI   C4A  266   1.666   3.925   8.872  0.3326  0.0325  0.2266
   17loPI   C5A  267   1.486   3.812   8.547  0.0860  0.4176 -0.0274
   17loPI   C6A  268   1.379   4.103   8.200 -0.0029 -0.0085 -0.3188
   17loPI   C1B  269   1.256   3.589  10.206 -0.0894 -0.0940 -0.2360
   17loPI   C2B  270   1.217   3.788   9.790 -0.1386 -0.0804 -0.3394
   17loPI   C3B  271   1.337   3.696   9.419  0.0139  0.1615 -0.1604
   17loPI   C4B  272   1.202   3.683   8.962  0.0458 -0.2238 -0.2063
   18loPI    C1  273  12.999   5.801  10.600 -0.2350 -0.0412  0.0144
   18loPI    C2  274  12.697   6.012  10.757  0.0623  0.2736  0.1773
   18loPI    C3  275  12.968   5.843  10.997 -0.0045 -0.0445  0.0337
   18loPI   PO4  276  12.934   5.708  10.320 -0.0181  0.2915  0.0611
   18loPI   GL1  277  12.762   5.366  10.150  0.0564  0.3577 -0.0294
   18loPI   GL2  278  12.912   5.102  10.025 -0.0520 -0.2360 -0.1067
   18loPI   C1A  279  12.679   5.492   9.767 -0.1226  0.2585  0.2467
   18loPI   C2A  280  12.697   5.431   9.346  0.0119  0.1433 -0.0343
   18loPI   C3A  281  12.682   5.515   8.903  0.1562  0.0543 -0.0749
   18loPI   C4A  282  12.705   5.448   8.443 -0.0659 -0.1474 -0.2345
   18loPI   C5A  283  12.654   5.285   8.062 -0.1645 -0.1151  0.2081
   18loPI   C6A  284  12.293   5.082   7.864  0.2471  0.1275 -0.1262
   18loPI   C1B  285  13.037   5.165   9.643 -0.0751 -0.0089  0.2472
   18loPI   C2B  286  13.071   5.156   9.188  0.0819  0.2961 -0.0231
   18loPI   C3B  287  13.182   5.086   8.787  0.1184  0.0101 -0.1067
   18loPI   C4B  288  13.007   5.047   8.410  0.0675 -0.0645 -0.0502
   19loPI    C1  289   0.287   1.808  11.173 -0.3155  0.0230 -0.1269
   19loPI    C2  290  -0.007   1.538  11.151  0.0190 -0.3935  0.3193
   19loPI    C3  291   0.062   1.731  11.495  0.0844 -0.0821  0.1343
   19loPI   PO4  292   0.295   1.890  10.909 -0.0154 -0.0501  0.2382
   19loPI   GL1  293   0.439   2.140  10.484 -0.4432  0.2328  0.0375
   19loPI   GL2  294   0.812   2.220  10.533 -0.2244 -0.0490  0.1594
   19loPI   C1A  295   0.414   2.039  10.006  0.0295 -0.2744 -0.0401
   19loPI   C2A  296   0.391   2.109   9.599 -0.1244  0.1738 -0.1599
   19loPI   C3A  297   0.441   2.083   9.137  0.3807  0.5007  0.3906
   19loPI   C4A  298   0.377   2.000   8.755 -0.0657  0.1924 -0.1294
   19loPI   C5A  299   0.575   2.215   8.512  0.4447  0.0499  0.1275
   19loPI   C6A  300   0.889   2.375   8.404  0.0726 -0.0355  0.0059
   19loPI   C1B  301   0.918   2.142  10.070 -0.2185  0.0550  0.1845
   19loPI   C2B  302   0.964   2.202   9.699 -0.1873 -0.2692 -0.3360
   19loPI   C3B  303   0.820   2.220   9.357 -0.0687 -0.2496 -0.0566
   19loPI   C4B  304   0.900   2.299   8.905 -0.0894 -0.0913 -0.2873
   20loPI    C1  305  10.847  17.183  10.450 -0.0721 -0.0457  0.2057
   20loPI    C2  306  11.018  17.438  10.706  0.3276 -0.0022 -0.0950
   20loPI    C3  307  11.060  17.043  10.758  0.2139  0.0015  0.0327
   20loPI   PO4  308  10.820  17.305  10.245  0.0803 -0.0475 -0.1576
   20loPI   GL1  309  11.010  17.315   9.916  0.1962  0.0525  0.1194
   20loPI   GL2  310  11.238  17.066   9.878 -0.0477  0.0783  0.0623
   20loPI   C1A  311  11.001  17.318   9.481 -0.1832  0.1780 -0.0839
   20loPI   C2A  312  11.080  17.243   9.020 -0.2899 -0.0969 -0.0114
   20loPI   C3A  313  11.429  17.061   8.791  0.2671  0.0966 -0.2522
   20loPI   C4A  314  11.324  16.900   8.331  0.0603 -0.1359  0.1705
   20loPI   C5A  315  11.402  16.829   7.813 -0.3191 -0.0565 -0.0403
   20loPI   C6A  316  11.447  16.907   7.289  0.0655 -0.2962 -0.0965
   20loPI   C1B  317  11.695  17.001   9.752  0.1425 -0.1236 -0.0023
   20loPI   C2B  318  11.937  17.186   9.387  0.3673 -0.2050 -0.1680
   20loPI   C3B  319  11.922  17.126   8.892  0.6469 -0.0675 -0.0531
   20loPI   C4B  320  11.957  16.958   8.572 -0.3877 -0.3684 -0.0901
   21loPI    C1  321   9.839  17.898  11.002  0.0321  0.0471  0.2349
   21loPI    C2  322   9.700  17.585  11.209 -0.0254  0.0683  0.2287
   21loPI    C3  323   9.514  17.939  11.231  0.0082  0.0883  0.1937
   21loPI   PO4  324   9.834  17.863  10.774  0.1495 -0.1669  0.1340
   21loPI   GL1  325  10.114  17.799  10.328  0.1757  0.0166 -0.2072
   21loPI   GL2  326  10.384  18.050  10.217  0.0501 -0.0003  0.0943
   21loPI   C1A  327  10.079  17.822   9.898 -0.0200  0.0428 -0.2721
   21loPI   C2A  328  10.235  17.944   9.440  0.1009  0.2670  0.1615
   21loPI   C3A  329  10.275  17.981   9.073  0.0413  0.1345  0.1162
   21loPI   C4A  330  10.424  18.106   8.605  0.2363  0.1932 -0.0912
   21loPI   C5A  331  10.820  17.884   8.298  0.0956  0.2325 -0.2798
   21loPI   C6A  332  11.088  17.767   8.068 -0.1714  0.0397  0.1945
   21loPI   C1B  333  10.499  18.066   9.862 -0.4067 -0.1326  0.0854
   21loPI   C2B  334  10.767  18.090   9.511  0.0587  0.0041  0.0989
   21loPI   C3B  335  10.786  18.173   9.062  0.0856 -0.0847  0.0979
   21loPI   C4B  336  10.975  18.283   8.662  0.1269  0.1620  0.0576
   22loPI    C1  337  11.976   3.396  10.957 -0.0523  0.2000  0.1397
   22loPI    C2  338  12.317   3.281  11.132 -0.1292 -0.0969  0.1002
   22loPI    C3  339  11.999   3.377  11.356 -0.0852 -0.0260  0.1325
   22loPI   PO4  340  11.993   3.276  10.665 -0.3679 -0.2563  0.0965
   22loPI   GL1  341  12.020   3.193  10.277  0.0328 -0.1323 -0.1347
   22loPI   GL2  342  12.194   3.476  10.227 -0.2873 -0.2390  0.4835
   22loPI   C1A  343  11.994   3.030   9.897 -0.0542  0.1782  0.0294
   22loPI   C2A  344  12.008   3.142   9.484 -0.0724 -0.4280 -0.0277
   22loPI   C3A  345  12.124   3.001   9.043 -0.0719  0.1763  0.0314
   22loPI   C4A  346  12.109   2.919   8.571 -0.1315 -0.0837 -0.1468
   22loPI   C5A  347  11.750   2.744   8.340 -0.0416 -0.0511  0.1434
   22loPI   C6A  348  11.324   2.940   8.104 -0.0702  0.2226 -0.0679
   22loPI   C1B  349  12.112   3.551   9.841 -0.3155  0.1156 -0.0427
   22loPI   C2B  350  12.208   3.586   9.306  0.3185  0.2163 -0.2513
   22loPI   C3B  351  12.149   3.480   8.906 -0.0427 -0.1840  0.0500
   22loPI   C4B  352  12.258   3.426   8.543  0.3678  0.0449  0.1602
   23loPI    C1  353   6.814   8.770  10.481 -0.0324 -0.2071  0.0629
   23loPI    C2  354   6.643   8.438  10.625 -0.0555 -0.2225  0.0005
   23loPI    C3  355   7.019   8.530  10.726 -0.0697 -0.2360  0.0658
   23loPI   PO4  356   6.784   8.747  10.217  0.2720 -0.2014  0.1998
   23loPI   GL1  357   6.667   9.016   9.803  0.4941 -0.1319 -0.0249
   23loPI   GL2  358   6.372   8.867   9.872 -0.0725  0.1679 -0.1090
   23loPI   C1A  359   6.632   8.714   9.414 -0.2272  0.0678 -0.2636
   23loPI   C2A  360   6.451   8.658   8.999  0.0509 -0.0196  0.0805
   23loPI   C3A  361   6.411   8.597   8.541 -0.3893  0.0271  0.0396
   23loPI   C4A  362   6.648   8.598   8.292  0.0678 -0.2419  0.2277
   23loPI   C5A  363   6.799   8.387   7.836  0.1511 -0.1064 -0.2181
   23loPI   C6A  364   6.802   8.434   7.412  0.0955 -0.1050 -0.0503
   23loPI   C1B  365   6.233   8.981   9.410 -0.0908 -0.4428  0.0196
   23loPI   C2B  366   6.214   9.097   8.870  0.2347 -0.0799  0.1251
   23loPI   C3B  367   5.980   9.133   8.567  0.1855 -0.3059 -0.3155
   23loPI   C4B  368   5.584   9.182   8.285  0.1643 -0.0357 -0.1950
   24loPI    C1  369   6.123   2.142  10.652  0.2696 -0.1981  0.0612
   24loPI    C2  370   5.972   2.014  11.000  0.1109 -0.0902  0.0335
   24loPI    C3  371   6.355   2.129  10.978  0.1325 -0.1353  0.1625
   24loPI   PO4  372   6.088   1.908  10.490  0.0649 -0.2224 -0.1252
   24loPI   GL1  373   5.777   2.043  10.148  0.1003  0.0509  0.2191
   24loPI   GL2  374   6.089   2.044   9.978  0.1401  0.1058 -0.0176
   24loPI   C1A  375   5.625   1.948   9.678  0.0224 -0.0847 -0.4013
   24loPI   C2A  376   5.518   2.092   9.255  0.0191 -0.2625 -0.1488
   24loPI   C3A  377   5.514   2.187   8.908  0.0196 -0.3094 -0.1234
   24loPI   C4A  378   5.520   2.189   8.522  0.0139  0.1053 -0.0493
   24loPI   C5A  379   5.549   2.531   8.195  0.2718 -0.0566 -0.1050
   24loPI   C6A  380   5.845   2.946   8.251  0.0765  0.1798 -0.5335
   24loPI   C1B  381   6.288   1.829   9.518 -0.0901 -0.0062 -0.4110
   24loPI   C2B  382   6.506   1.535   9.308 -0.0013  0.0119  0.0192
   24loPI   C3B  383   6.425   1.414   8.836 -0.1637 -0.1304 -0.0413
   24loPI   C4B  384   6.324   1.506   8.471 -0.1162 -0.2833 -0.0643
   25loPI    C1  385  13.097   4.199  10.803 -0.2447  0.0593 -0.4515
   25loPI    C2  386  12.753   4.363  10.924 -0.0587  0.0188  0.1637
   25loPI    C3  387  13.046   4.595  10.783 -0.2109  0.0880 -0.0445
   25loPI   PO4  388  13.050   4.063  10.673 -0.3297 -0.2335 -0.1417
   25loPI   GL1  389  13.119   3.962  10.297  0.3898 -0.3534  0.0640
   25loPI   GL2  390  13.432   3.757  10.364  0.0006  0.1583  0.1966
   25loPI   C1A  391  13.222   3.865   9.844 -0.1458 -0.0710  0.0026
   25loPI   C2A  392  13.242   3.785   9.310  0.2084  0.1914  0.1366
   25loPI   C3A  393  13.251   3.762   8.838  0.2321 -0.0566  0.0526
   25loPI   C4A  394  13.237   3.660   8.362 -0.0941  0.1144 -0.1878
   25loPI   C5A  395  12.796   3.793   8.093 -0.0767  0.0033  0.1331
   25loPI   C6A  396  12.579   4.181   8.099 -0.1659  0.0661  0.2551
   25loPI   C1B  397  13.430   3.492  10.028  0.3416 -0.1602 -0.4523
   25loPI   C2B  398  13.626   3.394   9.647 -0.3861  0.2361 -0.0123
   25loPI   C3B  399  13.627   3.447   9.254 -0.0423 -0.4154  0.0242
   25loPI   C4B  400  13.629   3.341   8.851 -0.3718 -0.0210  0.0378
   26loPI    C1  401  12.959  10.020  10.306 -0.1378 -0.2355  0.1114
   26loPI    C2  402  12.671   9.989  10.582  0.0150 -0.0415  0.2958
   26loPI    C3  403  13.056   9.977  10.692  0.0802 -0.3263  0.0481
   26loPI   PO4  404  12.864   9.827  10.104  0.2960 -0.2854  0.0791
   26loPI   GL1  405  12.737   9.808   9.735  0.0591 -0.1787 -0.3556
   26loPI   GL2  406  12.449  10.031   9.796  0.0992  0.1396  0.0340
   26loPI   C1A  407  12.971   9.834   9.378 -0.1232  0.0220  0.2592
   26loPI   C2A  408  12.801   9.889   8.992 -0.0565 -0.1365  0.0304
   26loPI   C3A  409  12.992  10.015   8.635 -0.0991 -0.3058 -0.2144
   26loPI   C4A  410  13.031   9.909   8.262  0.1358  0.2842 -0.2283
   26loPI   C5A  411  12.871   9.719   7.907  0.1287  0.3077 -0.2288
   26loPI   C6A  412  12.852   9.496   7.480  0.0612  0.1102  0.3136
   26loPI   C1B  413  12.400  10.264   9.341  0.2439  0.2010 -0.0302
   26loPI   C2B  414  12.419  10.204   8.914 -0.1774  0.2551  0.0744
   26loPI   C3B  415  12.550  10.269   8.552  0.0264  0.1393  0.2303
   26loPI   C4B  416  12.780  10.340   8.187  0.2326 -0.2135  0.0300
   27loPI    C1  417  18.068  10.242  10.518 -0.5355  0.1481  0.1658
   27loPI    C2  418  18.313  10.362  10.811 -0.1074 -0.0550 -0.0993
   27loPI    C3  419  18.081  10.628  10.622 -0.0858  0.1422  0.1477
   27loPI   PO4  420  18.162  10.180  10.305 -0.0419  0.1249  0.2322
   27loPI   GL1  421  18.419   9.966  10.039  0.1394  0.1426  0.2960
   27loPI   GL2  422  18.428  10.269   9.871  0.0011  0.0696 -0.1583
   27loPI   C1A  423  18.228   9.896   9.642 -0.1967  0.0142  0.1746
   27loPI   C2A  424  18.292   9.988   9.203  0.5862  0.0389 -0.1792
   27loPI   C3A  425  18.158  10.279   8.923  0.3141 -0.1071 -0.0390
   27loPI   C4A  426  18.303  10.281   8.433 -0.1184 -0.2016 -0.1849
   27loPI   C5A  427  18.187  10.327   7.995 -0.0095 -0.3398  0.0599
   27loPI   C6A  428  17.999  10.325   7.670  0.1526 -0.1143  0.2753
   27loPI   C1B  429  18.592  10.291   9.449  0.0196  0.0076  0.0659
   27loPI   C2B  430  18.681  10.262   9.052  0.2588  0.0831  0.0750
   27loPI   C3B  431  18.551   9.972   8.786 -0.0593 -0.3619 -0.0632
   27loPI   C4B  432  18.816   9.747   8.495 -0.1013 -0.0555 -0.0966
   28loPI    C1  433   8.600   8.651   9.951  0.2318  0.0416  0.0507
   28loPI    C2  434   8.498   9.037   9.942  0.0722 -0.0046 -0.2048
   28loPI    C3  435   8.502   8.840  10.290  0.1640  0.2280 -0.0716
   28loPI   PO4  436   8.635   8.539   9.744 -0.1290  0.0695  0.0525
   28loPI   GL1  437   8.946   8.541   9.472 -0.3187 -0.1079 -0.3255
   28loPI   GL2  438   8.975   8.838   9.510 -0.2869  0.1388  0.0382
   28loPI   C1A  439   9.091   8.651   9.054  0.2601  0.0477 -0.1594
   28loPI   C2A  440   9.125   8.966   8.680  0.1949 -0.4060 -0.2951
   28loPI   C3A  441   9.055   9.163   8.300  0.1695 -0.3092  0.0077
   28loPI   C4A  442   9.148   9.382   7.914 -0.0909  0.0918  0.1906
   28loPI   C5A  443   9.148   9.342   7.428  0.0909 -0.1493  0.1346
   28loPI   C6A  444   9.145   9.222   6.961  0.0858  0.3364 -0.1256
   28loPI   C1B  445   8.953   9.128   9.123 -0.0625  0.0345  0.2686
   28loPI   C2B  446   8.652   9.114   8.782  0.2272 -0.2073  0.2304
   28loPI   C3B  447   8.510   9.035   8.329  0.1205  0.0761 -0.0058
   28loPI   C4B  448   8.623   9.152   7.836 -0.4602 -0.1345 -0.0946
   29loPI    C1  449   5.636  15.722  10.641  0.0685  0.0803  0.3813
   29loPI    C2  450   5.393  15.493  10.421  0.2015  0.2169  0.0873
   29loPI    C3  451   5.294  15.585  10.797 -0.0830  0.0720  0.0505
   29loPI   PO4  452   5.818  15.904  10.474 -0.1806  0.0067 -0.1070
   29loPI   GL1  453   5.819  15.879  10.106 -0.1448  0.0212  0.0927
   29loPI   GL2  454   6.110  15.987  10.018 -0.1312 -0.1516  0.1399
   29loPI   C1A  455   5.534  15.656   9.927  0.0178 -0.2727  0.0268
   29loPI   C2A  456   5.458  15.571   9.551 -0.1354  0.0175  0.0969
   29loPI   C3A  457   5.425  15.692   9.052  0.1035  0.0055  0.1358
   29loPI   C4A  458   5.408  15.769   8.558  0.2056 -0.0601 -0.1262
   29loPI   C5A  459   5.303  15.831   8.116 -0.1176  0.1674 -0.0506
   29loPI   C6A  460   5.104  16.214   7.854  0.0242 -0.1099  0.2573
   29loPI   C1B  461   6.041  15.746   9.627 -0.2279  0.0708  0.1427
   29loPI   C2B  462   5.961  15.759   9.196  0.0520  0.0990 -0.0200
   29loPI   C3B  463   5.871  15.830   8.857 -0.2053 -0.0998 -0.2755
   29loPI   C4B  464   5.936  15.884   8.436  0.0897  0.2683  0.2442
   30loPI    C1  465   7.106  14.197  10.579  0.1167 -0.1626  0.0617
   30loPI    C2  466   6.961  14.443  10.859 -0.0967 -0.0594 -0.1359
   30loPI    C3  467   7.009  14.054  10.939  0.1571  0.0270  0.1488
   30loPI   PO4  468   6.989  14.249  10.401  0.0243  0.2751  0.0212
   30loPI   GL1  469   7.155  14.362  10.017 -0.0516  0.1504 -0.0857
   30loPI   GL2  470   7.386  14.221   9.950 -0.1784  0.1046 -0.3390
   30loPI   C1A  471   7.135  14.616   9.656 -0.2003 -0.2728  0.0147
   30loPI   C2A  472   7.085  14.740   9.208 -0.2388 -0.0874  0.0222
   30loPI   C3A  473   7.087  14.776   8.812  0.0426 -0.0304 -0.2578
   30loPI   C4A  474   7.099  14.854   8.321  0.2501 -0.0321  0.4253
   30loPI   C5A  475   6.974  14.830   7.908  0.0286  0.0174  0.0322
   30loPI   C6A  476   6.963  14.781   7.395 -0.3346 -0.0685  0.0429
   30loPI   C1B  477   7.491  14.233   9.608  0.1456 -0.0904 -0.0664
   30loPI   C2B  478   7.346  14.313   9.186  0.0324  0.2528  0.1182
   30loPI   C3B  479   7.580  14.438   8.851 -0.0520  0.2385  0.1762
   30loPI   C4B  480   7.392  14.515   8.509  0.1293  0.0433  0.2731
   31loPI    C1  481  11.982  11.362  10.425 -0.0511  0.0708 -0.0058
   31loPI    C2  482  11.895  10.998  10.568  0.0781 -0.0042 -0.1150
   31loPI    C3  483  12.264  11.146  10.608  0.0524  0.0732 -0.1607
   31loPI   PO4  484  11.987  11.345  10.250 -0.3665  0.1086  0.0331
   31loPI   GL1  485  12.054  11.536   9.873  0.0368  0.1276 -0.0605
   31loPI   GL2  486  11.873  11.752   9.707  0.2927  0.0492 -0.1215
   31loPI   C1A  487  11.948  11.351   9.461 -0.0221  0.1427 -0.0149
   31loPI   C2A  488  11.913  11.443   9.068  0.1096 -0.1278 -0.3071
   31loPI   C3A  489  11.778  11.451   8.593 -0.3167  0.2714  0.0779
   31loPI   C4A  490  11.818  11.541   8.209 -0.1794  0.1165  0.1081
   31loPI   C5A  491  11.771  11.554   7.793  0.0592  0.0570  0.4348
   31loPI   C6A  492  11.823  11.809   7.430 -0.0770  0.3326 -0.1080
   31loPI   C1B  493  12.003  11.898   9.330 -0.0886 -0.1236  0.3060
   31loPI   C2B  494  12.140  12.256   9.076 -0.2097 -0.2208  0.2426
   31loPI   C3B  495  12.232  12.394   8.685  0.1602  0.1590 -0.1590
   31loPI   C4B  496  12.220  12.399   8.253 -0.1779 -0.1466  0.1265
   32loPI    C1  497   3.971  17.883  10.800  0.0092 -0.1584 -0.0255
   32loPI    C2  498   3.793  18.232  10.720  0.0205 -0.2073 -0.2703
   32loPI    C3  499   4.042  18.201  11.031 -0.1150 -0.0432 -0.1438
   32loPI   PO4  500   3.980  17.807  10.529 -0.1096 -0.1735  0.0096
   32loPI   GL1  501   4.318  17.617  10.197  0.0183  0.1603  0.3354
   32loPI   GL2  502   4.334  17.910  10.195 -0.2347 -0.1412  0.0235
   32loPI   C1A  503   4.333  17.446   9.843 -0.2134  0.1728  0.0351
   32loPI   C2A  504   4.440  17.274   9.419  0.1047  0.0457  0.1593
   32loPI   C3A  505   4.532  17.300   9.064  0.2412  0.0633  0.0275
   32loPI   C4A  506   4.414  17.270   8.662 -0.2356  0.1464  0.2399
   32loPI   C5A  507   4.411  17.270   8.260 -0.0227  0.0428 -0.2992
   32loPI   C6A  508   4.763  17.215   7.896  0.0998 -0.3063 -0.0682
   32loPI   C1B  509   4.148  18.031   9.825  0.1717 -0.2945  0.1225
   32loPI   C2B  510   4.158  18.152   9.380 -0.0323 -0.2625  0.2911
   32loPI   C3B  511   4.211  18.151   8.958 -0.1460 -0.0153 -0.1568
   32loPI   C4B  512   4.206  18.131   8.462  0.3744 -0.1228 -0.1987
   33loPI    C1  513  11.148   1.910  10.802  0.0143  0.1493 -0.1508
   33loPI    C2  514  10.971   1.767  10.473  0.0011  0.0127 -0.0853
   33loPI    C3  515  10.754   1.955  10.752 -0.0096  0.0105 -0.0922
   33loPI   PO4  516  11.372   2.045  10.679 -0.3136 -0.0045 -0.0941
   33loPI   GL1  517  11.469   2.008  10.273  0.2643  0.3785  0.0928
   33loPI   GL2  518  11.690   1.878  10.126  0.2558  0.0009  0.0867
   33loPI   C1A  519  11.187   1.740  10.062  0.0163 -0.0565  0.3776
   33loPI   C2A  520  11.129   1.695   9.569 -0.2099  0.2893 -0.0554
   33loPI   C3A  521  11.317   1.803   9.102  0.1866 -0.0723 -0.1905
   33loPI   C4A  522  11.379   1.846   8.658 -0.2365  0.2113  0.1041
   33loPI   C5A  523  11.232   1.764   8.216 -0.0345  0.0273 -0.0846
   33loPI   C6A  524  11.311   1.898   7.761 -0.3883  0.4318 -0.0849
   33loPI   C1B  525  11.568   1.926   9.726 -0.0280 -0.0737  0.0020
   33loPI   C2B  526  11.746   1.860   9.361 -0.0129 -0.0422  0.1612
   33loPI   C3B  527  11.802   1.939   8.925 -0.0476  0.3834  0.1471
   33loPI   C4B  528  11.762   2.118   8.444  0.1838  0.3375  0.0701
   34loPI    C1  529   2.194  11.037  10.658  0.0190 -0.0754  0.0265
   34loPI    C2  530   2.182  10.747  10.933  0.0076 -0.0770  0.0241
   34loPI    C3  531   2.184  11.131  11.046  0.1910 -0.0797  0.0324
   34loPI   PO4  532   2.064  10.911  10.408 -0.0402 -0.1833  0.1621
   34loPI   GL1  533   1.801  11.064  10.044  0.0739 -0.2740 -0.2229
   34loPI   GL2  534   1.510  11.147   9.836 -0.1542  0.2351 -0.0269
   34loPI   C1A  535   1.971  11.314   9.658  0.0580 -0.1083  0.0979
   34loPI   C2A  536   1.934  11.388   9.287 -0.2718  0.0188 -0.1442
   34loPI   C3A  537   1.749  11.579   8.889 -0.1511 -0.0825 -0.0353
   34loPI   C4A  538   1.871  11.572   8.607 -0.2711  0.2124 -0.0610
   34loPI   C5A  539   2.114  11.346   8.385 -0.0272  0.1687 -0.0448
   34loPI   C6A  540   2.360  11.006   8.387  0.0078 -0.1344 -0.0653
   34loPI   C1B  541   1.801  10.849   9.650 -0.1127  0.0893 -0.0205
   34loPI   C2B  542   1.721  10.646   9.298  0.2352 -0.0772 -0.1834
   34loPI   C3B  543   1.807  10.475   8.818 -0.1794 -0.3220 -0.1196
   34loPI   C4B  544   1.670  10.546   8.408 -0.1293 -0.0437 -0.1670
   35loPI    C1  545  16.386   7.174  10.667  0.2232  0.0244  0.1355
   35loPI    C2  546  16.313   6.823  10.845 -0.0379 -0.2043 -0.3984
   35loPI    C3  547  16.057   7.126  10.890  0.0131 -0.1877 -0.2109
   35loPI   PO4  548  16.422   7.092  10.405 -0.1216  0.2742  0.0325
   35loPI   GL1  549  16.702   7.156  10.102 -0.2710  0.1851 -0.0924
   35loPI   GL2  550  16.469   7.466  10.003  0.1922 -0.0549 -0.2756
   35loPI   C1A  551  16.546   7.083   9.665 -0.1031  0.2376  0.0635
   35loPI   C2A  552  16.404   7.053   9.297 -0.2296  0.0846 -0.1178
   35loPI   C3A  553  16.315   7.251   8.972 -0.2692 -0.1153  0.0101
   35loPI   C4A  554  16.022   7.368   8.544 -0.2315 -0.2537  0.0713
   35loPI   C5A  555  16.264   7.510   8.152 -0.1236  0.0416  0.1529
   35loPI   C6A  556  16.422   7.750   7.831 -0.0961 -0.1687  0.0257
   35loPI   C1B  557  16.158   7.456   9.601 -0.0256  0.0716 -0.2933
   35loPI   C2B  558  16.059   7.418   9.340 -0.1333 -0.1656  0.2101
   35loPI   C3B  559  15.893   7.632   8.967  0.2283  0.0245  0.2467
   35loPI   C4B  560  15.638   7.733   8.608 -0.2627 -0.0052 -0.0386
   36loPI    C1  561  11.504   8.210  10.599  0.2223  0.2544 -0.0420
   36loPI    C2  562  11.548   8.120  10.986 -0.1455  0.0607 -0.0412
   36loPI    C3  563  11.469   8.496  10.877 -0.0507  0.1142  0.0723
   36loPI   PO4  564  11.739   8.132  10.500  0.1272  0.0620 -0.1554
   36loPI   GL1  565  11.793   8.034  10.047 -0.0559  0.0454 -0.1578
   36loPI   GL2  566  11.943   7.804   9.968  0.1010  0.0354 -0.1908
   36loPI   C1A  567  11.738   8.408   9.765 -0.1474  0.1697  0.2124
   36loPI   C2A  568  11.773   8.535   9.434  0.4517  0.2060  0.0328
   36loPI   C3A  569  11.924   8.546   9.068  0.1243 -0.0766 -0.0038
   36loPI   C4A  570  11.992   8.750   8.728 -0.1958  0.0071  0.0636
   36loPI   C5A  571  12.015   8.873   8.303  0.1245  0.1438 -0.2399
   36loPI   C6A  572  12.265   8.865   7.985  0.3452 -0.0241 -0.4182
   36loPI   C1B  573  11.674   7.948   9.575 -0.1273 -0.0850  0.0503
   36loPI   C2B  574  11.500   8.073   9.104 -0.2653 -0.3112  0.3384
   36loPI   C3B  575  11.622   8.207   8.696  0.1072  0.2389  0.0229
   36loPI   C4B  576  11.583   8.478   8.379 -0.0577 -0.0554 -0.4429
   37loPI    C1  577   2.817   0.593  11.276 -0.0573  0.1407 -0.0657
   37loPI    C2  578   3.172   0.656  11.448  0.0084 -0.1617 -0.0860
   37loPI    C3  579   2.884   0.465  11.649 -0.0130 -0.2564 -0.2055
   37loPI   PO4  580   2.999   0.706  10.984 -0.0460 -0.1215 -0.0395
   37loPI   GL1  581   3.258   0.781  10.605 -0.0739  0.2149  0.2076
   37loPI   GL2  582   3.550   0.688  10.360  0.0024  0.0676  0.1662
   37loPI   C1A  583   3.142   0.810  10.147 -0.0099  0.0349  0.1462
   37loPI   C2A  584   3.052   0.919   9.732 -0.3473 -0.1805 -0.1455
   37loPI   C3A  585   2.956   0.872   9.336  0.1858 -0.0162 -0.1218
   37loPI   C4A  586   2.967   0.782   8.947  0.0888 -0.0414  0.0952
   37loPI   C5A  587   2.990   0.903   8.617 -0.1098  0.1681 -0.1535
   37loPI   C6A  588   2.902   1.146   8.251 -0.0398  0.0239  0.0600
   37loPI   C1B  589   3.491   0.556   9.903 -0.0235  0.1890  0.2817
   37loPI   C2B  590   3.327   0.530   9.438  0.0280 -0.1483 -0.1105
   37loPI   C3B  591   3.384   0.504   8.946  0.2955  0.1741  0.1913
   37loPI   C4B  592   3.511   0.630   8.502 -0.3742 -0.0745 -0.1759
   38loPI    C1  593   3.706  14.038  10.573  0.1921  0.0898  0.0175
   38loPI    C2  594   3.887  14.167  10.906 -0.1721 -0.0702  0.2831
   38loPI    C3  595   3.561  13.936  10.931 -0.1030 -0.2302 -0.1870
   38loPI   PO4  596   3.819  13.868  10.365 -0.0097 -0.0577  0.1590
   38loPI   GL1  597   3.957  13.981  10.025 -0.0704 -0.0500  0.0070
   38loPI   GL2  598   4.209  13.894  10.057  0.0217  0.2195 -0.0884
   38loPI   C1A  599   3.938  13.980   9.514 -0.1749  0.0131  0.1458
   38loPI   C2A  600   3.904  13.903   9.090 -0.0121  0.0856  0.0928
   38loPI   C3A  601   3.989  13.797   8.624 -0.1305  0.1437  0.0892
   38loPI   C4A  602   4.063  13.920   8.134 -0.1887 -0.2864 -0.1241
   38loPI   C5A  603   4.147  13.797   7.726 -0.1872  0.2658  0.3326
   38loPI   C6A  604   4.015  13.478   7.475  0.1258 -0.0566  0.1071
   38loPI   C1B  605   4.374  13.510   9.773  0.0322  0.2589  0.1704
   38loPI   C2B  606   4.367  13.445   9.279  0.1505 -0.1037  0.0336
   38loPI   C3B  607   4.333  13.517   8.944  0.1383 -0.0572  0.0757
   38loPI   C4B  608   4.322  13.446   8.512 -0.0957 -0.1528 -0.2404
   39loPI    C1  609   0.300  15.932  11.076  0.0322 -0.3749  0.0134
   39loPI    C2  610   0.560  15.892  11.378  0.0254 -0.2381  0.0380
   39loPI    C3  611   0.364  16.237  11.327 -0.1028 -0.3188 -0.0195
   39loPI   PO4  612   0.402  15.717  10.895  0.0476  0.0669  0.0769
   39loPI   GL1  613   0.192  15.534  10.518  0.3223  0.0217  0.0258
   39loPI   GL2  614   0.341  15.267  10.273 -0.0914  0.0446  0.0309
   39loPI   C1A  615   0.132  15.589   9.990  0.0660 -0.0304  0.1627
   39loPI   C2A  616   0.189  15.635   9.694  0.0932 -0.1760 -0.1906
   39loPI   C3A  617   0.098  15.713   9.290  0.1886  0.0272  0.0506
   39loPI   C4A  618   0.191  15.616   8.828  0.2969 -0.1967  0.2707
   39loPI   C5A  619   0.360  15.524   8.396  0.2624 -0.0559 -0.1785
   39loPI   C6A  620   0.618  15.358   8.197  0.2333  0.2466  0.1050
   39loPI   C1B  621   0.628  15.325   9.997  0.0498  0.0729 -0.3206
   39loPI   C2B  622   0.535  15.241   9.503  0.1575 -0.1836  0.2278
   39loPI   C3B  623   0.656  15.377   9.167  0.2687  0.1527 -0.3229
   39loPI   C4B  624   0.648  15.427   8.785 -0.2427 -0.3380 -0.2328
   40loPI    C1  625   9.303  17.749  10.694  0.0035 -0.1145  0.0575
   40loPI    C2  626   9.256  18.137  10.779  0.0863 -0.0651 -0.1192
   40loPI    C3  627   9.071  17.860  11.001 -0.1014  0.0812 -0.0906
   40loPI   PO4  628   9.196  17.758  10.393 -0.0791 -0.1585 -0.1627
   40loPI   GL1  629   9.306  17.842   9.996 -0.3765 -0.2179  0.1803
   40loPI   GL2  630   9.525  17.643   9.998 -0.4421  0.2687 -0.0997
   40loPI   C1A  631   9.292  18.144   9.663 -0.0511 -0.1199  0.1585
   40loPI   C2A  632   9.429  18.208   9.243 -0.2388 -0.1571 -0.3140
   40loPI   C3A  633   9.355  18.296   8.736 -0.1396 -0.0795  0.0057
   40loPI   C4A  634   9.524  18.338   8.341 -0.0896  0.2315  0.2264
   40loPI   C5A  635   9.508  18.160   7.888  0.0674  0.0753 -0.1540
   40loPI   C6A  636   9.459  18.179   7.431 -0.0060  0.4561 -0.3180
   40loPI   C1B  637   9.643  17.800   9.631  0.2313 -0.1681  0.2018
   40loPI   C2B  638   9.745  17.847   9.208  0.0301 -0.1588 -0.0824
   40loPI   C3B  639   9.770  17.917   8.777  0.1248  0.1509 -0.0728
   40loPI   C4B  640   9.861  17.933   8.332  0.0631 -0.2099  0.2280
   41loPI    C1  641   0.884  11.395  10.764  0.2033 -0.1028  0.2677
   41loPI    C2  642   0.613  11.101  10.778 -0.0986  0.1497 -0.0879
   41loPI    C3  643   0.596  11.400  11.042 -0.0969  0.1057 -0.0380
   41loPI   PO4  644   0.928  11.385  10.458  0.1275 -0.2846  0.2622
   41loPI   GL1  645   0.668  11.294  10.081  0.0685 -0.4316  0.0032
   41loPI   GL2  646   0.914  11.123   9.931  0.0874  0.3802  0.1235
   41loPI   C1A  647   0.587  11.420   9.766  0.1430  0.0403 -0.0487
   41loPI   C2A  648   0.602  11.407   9.310 -0.1877  0.1855 -0.5343
   41loPI   C3A  649   0.481  11.593   9.000  0.0047  0.1318  0.1016
   41loPI   C4A  650   0.479  11.548   8.635 -0.1557  0.2650 -0.0673
   41loPI   C5A  651   0.517  11.430   8.235 -0.3105  0.0019 -0.1956
   41loPI   C6A  652   0.726  11.372   7.890  0.1319 -0.3035  0.1740
   41loPI   C1B  653   0.833  11.037   9.569 -0.2188 -0.1887 -0.2654
   41loPI   C2B  654   0.869  10.790   9.210 -0.2409 -0.2010 -0.0867
   41loPI   C3B  655   0.643  10.636   8.826  0.1519 -0.2459 -0.0996
   41loPI   C4B  656   0.894  10.550   8.471 -0.2581 -0.1187 -0.1743
   42loPI    C1  657  10.956   2.423  10.864 -0.1450  0.1584  0.1615
   42loPI    C2  658  11.195   2.743  10.878 -0.1324  0.1504  0.1303
   42loPI    C3  659  10.986   2.636  11.202  0.1593 -0.0368  0.2614
   42loPI   PO4  660  10.925   2.400  10.595 -0.0340  0.3062 -0.1153
   42loPI   GL1  661  10.963   2.218  10.220 -0.2495 -0.0887 -0.1234
   42loPI   GL2  662  10.819   2.515  10.007  0.1884 -0.0440  0.2164
   42loPI   C1A  663  11.049   2.128   9.765  0.0234 -0.1056  0.0507
   42loPI   C2A  664  11.042   2.162   9.342  0.4827 -0.1507  0.2620
   42loPI   C3A  665  10.881   2.104   8.927 -0.3435  0.4080  0.0155
   42loPI   C4A  666  10.982   2.276   8.625 -0.0848 -0.0691  0.0044
   42loPI   C5A  667  11.305   2.348   8.330 -0.0896 -0.1087  0.0416
   42loPI   C6A  668  11.685   2.285   7.928 -0.1993  0.3123  0.0981
   42loPI   C1B  669  11.250   2.513   9.954 -0.1303  0.1579  0.0481
   42loPI   C2B  670  11.466   2.429   9.637 -0.1040 -0.0328  0.0798
   42loPI   C3B  671  11.501   2.254   9.302  0.0468 -0.1590  0.4477
   42loPI   C4B  672  11.414   2.357   8.870  0.1289  0.3238 -0.1337
   43loPI    C1  673  16.594   0.438  10.927  0.0318 -0.0287  0.2461
   43loPI    C2  674  16.757   0.617  10.609 -0.0285  0.1585  0.3194
   43loPI    C3  675  16.991   0.462  10.894  0.0278 -0.1174  0.1271
   43loPI   PO4  676  16.302   0.523  10.800 -0.1689  0.0877  0.2681
   43loPI   GL1  677  16.131   0.644  10.407  0.2818 -0.3229 -0.0974
   43loPI   GL2  678  16.419   0.425  10.319  0.0503 -0.3024  0.0681
   43loPI   C1A  679  16.090   0.749  10.013  0.3478  0.1393  0.0258
   43loPI   C2A  680  16.264   0.824   9.558  0.2450  0.2426  0.0920
   43loPI   C3A  681  16.290   0.880   9.191 -0.1089  0.0495 -0.3779
   43loPI   C4A  682  16.201   0.895   8.754 -0.1086 -0.0917  0.2241
   43loPI   C5A  683  16.456   1.285   8.564  0.2674  0.5747  0.1553
   43loPI   C6A  684  16.672   1.552   8.268  0.2223  0.3966  0.0479
   43loPI   C1B  685  16.574   0.446   9.915 -0.1093  0.2420  0.1820
   43loPI   C2B  686  16.681   0.372   9.571  0.4554  0.0539 -0.5660
   43loPI   C3B  687  16.606   0.420   9.115  0.1093  0.1854  0.1260
   43loPI   C4B  688  16.589   0.582   8.670  0.2614  0.4899  0.2320
   44loPI    C1  689  14.941   6.437  10.641  0.1282 -0.0606 -0.0297
   44loPI    C2  690  15.176   6.253  10.908 -0.0061  0.0574  0.1717
   44loPI    C3  691  15.041   6.623  10.981 -0.0315  0.0966 -0.0675
   44loPI   PO4  692  15.071   6.295  10.395  0.4309  0.1911  0.1722
   44loPI   GL1  693  15.159   6.052  10.078 -0.0783  0.1060 -0.1496
   44loPI   GL2  694  15.310   5.817  10.196  0.2885  0.0990 -0.1979
   44loPI   C1A  695  15.149   5.889   9.668 -0.2354  0.1089  0.0244
   44loPI   C2A  696  15.163   5.791   9.243  0.4289 -0.1040  0.3107
   44loPI   C3A  697  15.066   5.737   8.810  0.0468 -0.1324 -0.1332
   44loPI   C4A  698  15.101   5.671   8.428  0.2027 -0.1646 -0.2800
   44loPI   C5A  699  15.018   5.565   8.080  0.0876  0.1522  0.0811
   44loPI   C6A  700  15.211   5.486   7.666  0.1408  0.3656  0.0739
   44loPI   C1B  701  15.539   5.488   9.795  0.1180 -0.2841 -0.0202
   44loPI   C2B  702  15.524   5.397   9.443  0.1703  0.3412  0.0939
   44loPI   C3B  703  15.457   5.284   9.030 -0.0426 -0.3093  0.0561
   44loPI   C4B  704  15.409   5.315   8.567  0.1279 -0.1471  0.0383
   45loPI    C1  705   9.108   4.934  10.424  0.0461  0.1618 -0.1470
   45loPI    C2  706   8.945   4.991  10.784  0.0915  0.3971 -0.1624
   45loPI    C3  707   9.339   4.935  10.750  0.0388 -0.0110 -0.1406
   45loPI   PO4  708   9.014   5.153  10.213 -0.0082  0.0932  0.0259
   45loPI   GL1  709   8.899   5.091   9.853  0.1033  0.4201 -0.2299
   45loPI   GL2  710   9.122   5.074   9.618 -0.1194 -0.3365  0.0044
   45loPI   C1A  711   8.727   4.862   9.435  0.0472 -0.2424  0.0954
   45loPI   C2A  712   8.603   4.941   8.975 -0.1160 -0.0950 -0.0203
   45loPI   C3A  713   8.545   5.007   8.604 -0.0210 -0.1698  0.0001
   45loPI   C4A  714   8.470   4.994   8.186 -0.0887 -0.1597  0.0583
   45loPI   C5A  715   8.517   4.909   7.741  0.0928 -0.0701  0.1016
   45loPI   C6A  716   8.898   4.722   7.453 -0.1275 -0.1904 -0.3860
   45loPI   C1B  717   9.328   5.065   9.191 -0.2215  0.0929 -0.1601
   45loPI   C2B  718   9.273   4.990   8.770  0.1323 -0.0232  0.3134
   45loPI   C3B  719   9.373   4.757   8.397  0.3532  0.0899 -0.0957
   45loPI   C4B  720   9.294   4.398   8.254  0.3206  0.1935  0.1976
   46loPI    C1  721  17.298  10.751  10.486  0.0135  0.1229  0.0444
   46loPI    C2  722  17.413  10.929  10.826 -0.1744  0.1264  0.1075
   46loPI    C3  723  17.201  10.590  10.839  0.3470 -0.2160 -0.0126
   46loPI   PO4  724  17.233  10.956  10.350 -0.2734 -0.1603  0.3286
   46loPI   GL1  725  17.209  10.894   9.914  0.1258 -0.0072  0.1119
   46loPI   GL2  726  17.552  10.868   9.922  0.1652  0.1163  0.2443
   46loPI   C1A  727  17.177  10.733   9.523  0.0961 -0.1411 -0.2593
   46loPI   C2A  728  17.208  10.779   9.107  0.4081 -0.1425 -0.1147
   46loPI   C3A  729  17.006  10.957   8.767  0.2467 -0.0491  0.1181
   46loPI   C4A  730  16.951  11.015   8.335  0.4301  0.0830 -0.1537
   46loPI   C5A  731  16.938  11.216   8.000 -0.1981 -0.0359  0.1953
   46loPI   C6A  732  17.130  11.497   7.648  0.1576 -0.0435 -0.1261
   46loPI   C1B  733  17.518  11.090   9.501 -0.0915  0.1470 -0.0907
   46loPI   C2B  734  17.540  11.266   9.038  0.1616  0.0318 -0.1664
   46loPI   C3B  735  17.503  10.972   8.730 -0.0481 -0.1001 -0.1424
   46loPI   C4B  736  17.330  10.588   8.666  0.2397  0.1135 -0.0642
   47loPI    C1  737  14.129  18.032  11.209 -0.1775  0.0082 -0.1505
   47loPI    C2  738  14.311  18.376  11.298  0.0274 -0.1402  0.0151
   47loPI    C3  739  13.913  18.348  11.326 -0.0054  0.1243 -0.1431
   47loPI   PO4  740  14.238  18.009  10.956  0.2384 -0.3064  0.0716
   47loPI   GL1  741  14.266  17.899  10.549  0.1527  0.0281  0.0615
   47loPI   GL2  742  14.068  18.074  10.455 -0.2347 -0.0438 -0.0295
   47loPI   C1A  743  14.431  17.864  10.196 -0.0292  0.0784  0.1875
   47loPI   C2A  744  14.379  17.811   9.750 -0.0695  0.1491 -0.2202
   47loPI   C3A  745  14.477  17.781   9.286  0.1640  0.2363 -0.1693
   47loPI   C4A  746  14.438  17.742   8.810 -0.3355  0.1501 -0.0562
   47loPI   C5A  747  14.613  17.735   8.384 -0.0287  0.1503  0.1625
   47loPI   C6A  748  15.062  17.713   8.175  0.1259  0.1677 -0.0441
   47loPI   C1B  749  14.036  18.179   9.933  0.0158 -0.2433 -0.0670
   47loPI   C2B  750  14.102  18.165   9.415  0.0371  0.0805  0.4582
   47loPI   C3B  751  14.119  18.149   9.016  0.1532 -0.1799  0.0905
   47loPI   C4B  752  14.269  18.141   8.579 -0.3314  0.0232 -0.1973
   48loPI    C1  753  12.251   1.259  10.991  0.0859 -0.1760  0.0013
   48loPI    C2  754  12.572   1.483  10.906 -0.0963  0.1346  0.1166
   48loPI    C3  755  12.572   1.248  11.230  0.1096 -0.0646 -0.0250
   48loPI   PO4  756  12.141   1.329  10.821 -0.2570  0.0648 -0.0641
   48loPI   GL1  757  12.366   1.534  10.417 -0.1505  0.3735 -0.1790
   48loPI   GL2  758  11.988   1.515  10.368  0.1820  0.3364  0.2696
   48loPI   C1A  759  12.593   1.604  10.101 -0.0164  0.1099 -0.1167
   48loPI   C2A  760  12.628   1.773   9.691 -0.4379 -0.0471  0.1802
   48loPI   C3A  761  12.716   1.780   9.291 -0.0016  0.1074  0.2219
   48loPI   C4A  762  12.672   1.537   8.788 -0.0249  0.1287  0.0688
   48loPI   C5A  763  12.504   1.446   8.408 -0.0335 -0.1837 -0.4305
   48loPI   C6A  764  12.323   1.137   8.097  0.0941 -0.4583  0.1500
   48loPI   C1B  765  12.052   1.533   9.895 -0.1168  0.1870  0.2783
   48loPI   C2B  766  12.171   1.578   9.477 -0.1116  0.1205  0.0567
   48loPI   C3B  767  12.185   1.593   9.021 -0.3246 -0.3229 -0.2152
   48loPI   C4B  768  12.031   1.659   8.501 -0.1383  0.3393 -0.1531
   49loPI    C1  769   1.590   6.896  10.909 -0.1756  0.0037  0.0593
   49loPI    C2  770   1.860   6.946  11.200 -0.0183 -0.1293 -0.0620
   49loPI    C3  771   1.600   6.642  11.218 -0.2594  0.0837  0.1285
   49loPI   PO4  772   1.687   6.855  10.691  0.2448 -0.0257 -0.4489
   49loPI   GL1  773   2.042   6.991  10.349 -0.2765 -0.2826 -0.0204
   49loPI   GL2  774   2.142   7.285  10.349 -0.2234  0.2214  0.1153
   49loPI   C1A  775   1.944   6.852  10.027  0.0765  0.0682 -0.2292
   49loPI   C2A  776   2.047   6.806   9.544 -0.3127  0.1417  0.0923
   49loPI   C3A  777   2.053   6.762   9.069  0.0930 -0.1796 -0.0660
   49loPI   C4A  778   2.014   6.709   8.635 -0.0497 -0.0193  0.0727
   49loPI   C5A  779   1.971   6.606   8.176  0.0180 -0.3430  0.2978
   49loPI   C6A  780   2.270   6.637   7.811  0.0928 -0.0685  0.3435
   49loPI   C1B  781   2.133   7.294   9.952  0.0373 -0.0685 -0.3364
   49loPI   C2B  782   2.103   7.327   9.516 -0.1597  0.5250  0.0616
   49loPI   C3B  783   2.126   7.230   9.102  0.1515  0.0926 -0.0402
   49loPI   C4B  784   2.121   7.187   8.586  0.0415  0.1718 -0.3927
   50loPI    C1  785  12.012   9.441  10.318  0.1665  0.2199 -0.0955
   50loPI    C2  786  11.994   9.253  10.671  0.0214  0.0911 -0.1705
   50loPI    C3  787  12.259   9.547  10.615 -0.1079  0.2677  0.1202
   50loPI   PO4  788  12.019   9.303  10.130 -0.1640 -0.2166 -0.1660
   50loPI   GL1  789  12.055   9.095   9.758  0.2343 -0.0147  0.1071
   50loPI   GL2  790  12.309   8.798   9.870  0.1677 -0.1203 -0.2617
   50loPI   C1A  791  11.863   9.149   9.298 -0.1308  0.1781  0.0015
   50loPI   C2A  792  11.748   9.167   8.826  0.2143 -0.1274  0.0552
   50loPI   C3A  793  11.574   9.173   8.414 -0.1679 -0.0900  0.0975
   50loPI   C4A  794  11.391   9.503   8.162  0.0295 -0.3966  0.4606
   50loPI   C5A  795  11.446   9.712   7.837  0.1262 -0.0815  0.3445
   50loPI   C6A  796  11.710  10.132   7.682  0.0282 -0.0262 -0.0544
   50loPI   C1B  797  12.352   8.513   9.483  0.0843 -0.1033  0.0280
   50loPI   C2B  798  12.447   8.631   8.979  0.2550  0.1099 -0.0205
   50loPI   C3B  799  12.612   8.821   8.805  0.0554 -0.0228 -0.2678
   50loPI   C4B  800  12.610   8.885   8.376 -0.1005  0.4123  0.0992
   51loPI    C1  801  17.626   6.540  11.025 -0.2061 -0.2059 -0.0161
   51loPI    C2  802  17.495   6.910  11.102 -0.1664 -0.1772 -0.0853
   51loPI    C3  803  17.349   6.599  11.307  0.0067 -0.0919  0.1726
   51loPI   PO4  804  17.711   6.578  10.756  0.0945  0.2650 -0.1744
   51loPI   GL1  805  17.842   6.293  10.362 -0.1687  0.1322 -0.2342
   51loPI   GL2  806  18.062   6.230  10.184 -0.4243  0.0840  0.0656
   51loPI   C1A  807  17.609   6.405   9.953 -0.1699  0.0465  0.3652
   51loPI   C2A  808  17.647   6.400   9.501  0.1151  0.1441 -0.0014
   51loPI   C3A  809  17.624   6.401   9.074 -0.0592 -0.0382 -0.3260
   51loPI   C4A  810  17.592   6.367   8.636  0.0342  0.1939  0.1618
   51loPI   C5A  811  17.598   6.232   8.294 -0.0831 -0.1988  0.1769
   51loPI   C6A  812  17.176   5.996   8.096 -0.1481 -0.3350 -0.1245
   51loPI   C1B  813  17.902   6.034   9.705 -0.1991  0.1744  0.2165
   51loPI   C2B  814  17.948   6.004   9.238  0.0047 -0.2608  0.1603
   51loPI   C3B  815  17.885   5.998   8.846 -0.0831 -0.1990 -0.1041
   51loPI   C4B  816  18.028   5.970   8.482  0.2884 -0.0157  0.1105
   52loPI    C1  817  15.455   0.810  11.204 -0.0491 -0.1180  0.0381
   52loPI    C2  818  15.196   0.530  11.324 -0.2191 -0.0976 -0.2693
   52loPI    C3  819  15.200   0.888  11.502 -0.1652 -0.2125 -0.0352
   52loPI   PO4  820  15.350   0.908  10.960  0.1962  0.4349 -0.1210
   52loPI   GL1  821  15.258   1.056  10.520 -0.0680 -0.0860 -0.2208
   52loPI   GL2  822  15.508   1.307  10.602  0.0199 -0.1963  0.0517
   52loPI   C1A  823  15.261   1.095  10.025  0.0454 -0.1413 -0.0761
   52loPI   C2A  824  15.315   1.027   9.539 -0.0991  0.1127 -0.3055
   52loPI   C3A  825  15.362   1.008   9.126  0.1946  0.3114 -0.2788
   52loPI   C4A  826  15.302   1.127   8.775 -0.1464  0.0594 -0.1035
   52loPI   C5A  827  15.249   1.222   8.332 -0.3599  0.1530  0.3189
   52loPI   C6A  828  15.174   1.080   7.907  0.3168 -0.1786  0.2880
   52loPI   C1B  829  15.711   1.177  10.184 -0.0550  0.0448 -0.1726
   52loPI   C2B  830  15.810   1.130   9.697 -0.1395  0.3149  0.3263
   52loPI   C3B  831  15.868   1.186   9.302  0.1287  0.0206 -0.0717
   52loPI   C4B  832  15.873   1.247   8.902  0.1703  0.1419 -0.0737
   53loPI    C1  833   0.333   7.861  10.750  0.0159  0.1090 -0.2406
   53loPI    C2  834   0.717   7.911  10.852 -0.0132  0.1951 -0.1725
   53loPI    C3  835   0.428   7.987  11.118 -0.0724 -0.0011 -0.1794
   53loPI   PO4  836   0.355   7.698  10.549  0.0325  0.0960 -0.2811
   53loPI   GL1  837   0.222   7.700  10.131  0.1361  0.0782  0.0902
   53loPI   GL2  838   0.574   7.662  10.077 -0.1492 -0.0332 -0.2228
   53loPI   C1A  839   0.199   7.610   9.805 -0.1879  0.1848  0.0025
   53loPI   C2A  840   0.362   7.397   9.518  0.0057  0.0354  0.1187
   53loPI   C3A  841   0.402   7.141   9.261  0.3038 -0.0453  0.0641
   53loPI   C4A  842   0.328   7.200   8.831 -0.1005 -0.0795  0.1520
   53loPI   C5A  843   0.276   7.347   8.541  0.0167 -0.1480 -0.0744
   53loPI   C6A  844   0.118   7.199   8.112 -0.1117  0.1351  0.2369
   53loPI   C1B  845   0.900   7.763   9.714 -0.0019 -0.0003  0.2100
   53loPI   C2B  846   0.731   7.681   9.359  0.1978  0.0425 -0.2536
   53loPI   C3B  847   0.587   7.696   9.018 -0.2065 -0.3432 -0.0692
   53loPI   C4B  848   0.434   7.803   8.622  0.0619  0.1244  0.0163
   54loPI    C1  849  11.127   4.382  10.818 -0.0296 -0.0563 -0.0121
   54loPI    C2  850  11.505   4.374  10.949 -0.1070  0.0254  0.2229
   54loPI    C3  851  11.305   4.720  10.935 -0.2389 -0.0472  0.2938
   54loPI   PO4  852  11.147   4.309  10.580 -0.4701  0.1366 -0.0703
   54loPI   GL1  853  11.194   3.928  10.279  0.4344  0.0798 -0.1483
   54loPI   GL2  854  11.014   4.073  10.153  0.0210  0.2650 -0.4186
   54loPI   C1A  855  11.303   3.786   9.837  0.2288  0.0027  0.3785
   54loPI   C2A  856  11.360   3.816   9.406  0.2824 -0.1287 -0.0779
   54loPI   C3A  857  11.282   3.623   8.990 -0.1984  0.0794 -0.1292
   54loPI   C4A  858  11.299   3.585   8.589 -0.0818  0.1634  0.1050
   54loPI   C5A  859  11.401   3.565   8.156 -0.0264  0.4443  0.0865
   54loPI   C6A  860  11.263   3.609   7.693 -0.3006  0.1891 -0.3531
   54loPI   C1B  861  11.023   4.188   9.634 -0.0113 -0.2347 -0.0442
   54loPI   C2B  862  10.769   4.043   9.340  0.3532  0.0367  0.3459
   54loPI   C3B  863  10.823   4.140   8.874 -0.0328 -0.0072  0.0842
   54loPI   C4B  864  10.953   4.387   8.349  0.1044  0.2107  0.1118
   55loPI    C1  865   8.323   5.905  10.171 -0.4054  0.0758 -0.1287
   55loPI    C2  866   8.501   6.225  10.332  0.0508 -0.2216 -0.0223
   55loPI    C3  867   8.278   5.983  10.560 -0.3177  0.0291 -0.1087
   55loPI   PO4  868   8.435   5.972   9.866  0.0694 -0.1009  0.2084
   55loPI   GL1  869   8.447   6.210   9.549  0.1241 -0.1531  0.0561
   55loPI   GL2  870   8.185   6.406   9.460 -0.0057 -0.0848 -0.1772
   55loPI   C1A  871   8.828   6.319   9.298  0.1437  0.0677 -0.3528
   55loPI   C2A  872   9.071   6.510   8.907 -0.1089  0.1137 -0.1246
   55loPI   C3A  873   9.062   6.298   8.584  0.1748 -0.1133 -0.1701
   55loPI   C4A  874   8.785   6.289   8.221  0.1738 -0.0349 -0.2648
   55loPI   C5A  875   8.712   6.517   7.998  0.0003  0.2335  0.0955
   55loPI   C6A  876   8.918   6.854   7.708 -0.1284 -0.2012  0.1589
   55loPI   C1B  877   8.051   6.402   9.141 -0.1766 -0.1028 -0.0491
   55loPI   C2B  878   8.058   6.463   8.674  0.3419 -0.0892 -0.2404
   55loPI   C3B  879   8.266   6.589   8.307  0.0894 -0.0093  0.1810
   55loPI   C4B  880   8.260   6.901   7.932  0.5292  0.2952 -0.1591
   56loPI    C1  881  12.625  17.761  10.671  0.1555 -0.1404  0.0386
   56loPI    C2  882  12.636  17.585  11.030  0.1542 -0.1191  0.0491
   56loPI    C3  883  12.642  17.984  11.002 -0.1864 -0.1116  0.0409
   56loPI   PO4  884  12.892  17.710  10.598  0.1015  0.0949  0.0945
   56loPI   GL1  885  12.881  17.855  10.236  0.2051 -0.2615 -0.1399
   56loPI   GL2  886  12.515  17.923  10.186 -0.1501 -0.0206  0.2954
   56loPI   C1A  887  13.074  17.859   9.830  0.2782 -0.0670 -0.1039
   56loPI   C2A  888  13.102  17.907   9.474 -0.1945  0.1307  0.0550
   56loPI   C3A  889  13.163  17.890   9.123  0.1716  0.1447 -0.0944
   56loPI   C4A  890  12.963  17.896   8.737 -0.0969  0.1866  0.3037
   56loPI   C5A  891  13.036  17.777   8.335  0.1808  0.1401  0.0813
   56loPI   C6A  892  13.073  17.433   8.045 -0.1165  0.1193 -0.1330
   56loPI   C1B  893  12.577  17.818   9.731 -0.2659 -0.1370 -0.1487
   56loPI   C2B  894  12.605  17.823   9.244  0.0192 -0.1086 -0.1990
   56loPI   C3B  895  12.514  17.681   8.740  0.3151 -0.0437  0.0194
   56loPI   C4B  896  12.529  17.704   8.377 -0.0456 -0.2440 -0.4133
   57loPI    C1  897   5.901  18.201  10.618  0.0778  0.0726 -0.1316
   57loPI    C2  898   5.715  18.266  10.966  0.2624 -0.0487 -0.0086
   57loPI    C3  899   6.107  18.335  10.933  0.2831 -0.2207 -0.1374
   57loPI   PO4  900   5.634  18.286  10.483  0.3186 -0.0113 -0.1652
   57loPI   GL1  901   5.441  18.182  10.174 -0.0651 -0.0528 -0.1916
   57loPI   GL2  902   5.315  17.822  10.053  0.1585 -0.0702 -0.1176
   57loPI   C1A  903   5.251  18.287   9.760  0.1092 -0.0099 -0.0226
   57loPI   C2A  904   5.110  18.456   9.417  0.1419  0.2227  0.1519
   57loPI   C3A  905   5.190  18.354   9.021  0.0836  0.1152 -0.1744
   57loPI   C4A  906   5.164  18.411   8.593  0.0136  0.0961 -0.1830
   57loPI   C5A  907   5.129  18.392   8.097  0.1471  0.0757 -0.2932
   57loPI   C6A  908   4.832  18.565   7.782 -0.0076  0.3102  0.2157
   57loPI   C1B  909   5.137  17.852   9.642 -0.0957  0.0525 -0.0718
   57loPI   C2B  910   5.154  17.859   9.220 -0.0096 -0.0614 -0.0434
   57loPI   C3B  911   4.997  17.940   8.760  0.0048  0.1214 -0.0702
   57loPI   C4B  912   5.023  17.942   8.323 -0.0851 -0.1844 -0.0078
   58loPI    C1  913   4.068   7.332  10.835  0.2247  0.0063 -0.0943
   58loPI    C2  914   3.946   7.205  11.195  0.3353 -0.0168 -0.0646
   58loPI    C3  915   3.995   7.596  11.127 -0.2366  0.0363 -0.2285
   58loPI   PO4  916   4.119   7.043  10.765 -0.2119 -0.1617  0.3234
   58loPI   GL1  917   3.994   6.789  10.475 -0.0905  0.2498 -0.1431
   58loPI   GL2  918   3.765   6.950  10.431 -0.2788 -0.1254 -0.0686
   58loPI   C1A  919   3.933   6.397  10.297  0.1453  0.0347  0.0476
   58loPI   C2A  920   3.853   6.336   9.853  0.0035  0.2758  0.3133
   58loPI   C3A  921   3.744   6.281   9.410 -0.0832  0.2996 -0.2201
   58loPI   C4A  922   3.700   6.365   8.998 -0.4197  0.2477  0.2189
   58loPI   C5A  923   3.730   6.453   8.443 -0.0350 -0.1982 -0.0391
   58loPI   C6A  924   3.498   6.621   8.142  0.1515  0.2578  0.2720
   58loPI   C1B  925   3.813   6.970  10.039 -0.0707 -0.0613  0.4484
   58loPI   C2B  926   3.936   6.815   9.735  0.5927  0.1429 -0.0243
   58loPI   C3B  927   3.820   6.787   9.268  0.1426  0.0552  0.0304
   58loPI   C4B  928   3.858   6.849   8.799 -0.1245 -0.2019 -0.1125
   59loPI    C1  929   4.625  14.918  10.655 -0.3421  0.0008 -0.0614
   59loPI    C2  930   4.909  14.740  10.437 -0.3000  0.1534 -0.1323
   59loPI    C3  931   4.948  14.764  10.834 -0.2394  0.1266 -0.1364
   59loPI   PO4  932   4.523  15.035  10.461  0.0367  0.1097 -0.1531
   59loPI   GL1  933   4.446  15.052  10.093  0.0543 -0.0604 -0.3241
   59loPI   GL2  934   4.794  15.002   9.973  0.0844  0.0619  0.0689
   59loPI   C1A  935   4.259  14.917   9.713 -0.3937 -0.0223 -0.0649
   59loPI   C2A  936   4.305  14.943   9.263  0.0918  0.0731 -0.1191
   59loPI   C3A  937   4.263  14.845   8.848  0.0163 -0.1659 -0.0527
   59loPI   C4A  938   4.159  14.899   8.443 -0.2107 -0.0494 -0.0456
   59loPI   C5A  939   3.844  15.084   8.177 -0.1074 -0.1221  0.2012
   59loPI   C6A  940   3.758  15.407   7.975 -0.0338  0.0811  0.2663
   59loPI   C1B  941   4.781  14.907   9.545 -0.0134 -0.1117  0.0100
   59loPI   C2B  942   4.753  15.032   9.026 -0.0233  0.4712  0.2358
   59loPI   C3B  943   4.649  15.071   8.590  0.0922  0.3184 -0.2833
   59loPI   C4B  944   4.551  15.112   8.260  0.2584  0.0474  0.1553
   60loPI    C1  945   3.362  15.819  11.171  0.0472 -0.0566 -0.0341
   60loPI    C2  946   3.168  15.968  11.487 -0.0170  0.0547 -0.1253
   60loPI    C3  947   3.384  15.634  11.525  0.0050  0.0870  0.0446
   60loPI   PO4  948   3.224  15.834  10.941  0.0918 -0.1688  0.2879
   60loPI   GL1  949   3.347  15.794  10.463 -0.2576 -0.1035  0.2243
   60loPI   GL2  950   3.519  15.884  10.347 -0.2415 -0.0433  0.0140
   60loPI   C1A  951   3.205  15.959   9.942 -0.0446 -0.2475  0.0619
   60loPI   C2A  952   3.133  16.035   9.567  0.0136  0.0728  0.0034
   60loPI   C3A  953   3.147  16.007   9.114  0.0317 -0.1798 -0.0601
   60loPI   C4A  954   3.081  16.092   8.711  0.3189  0.2446 -0.3663
   60loPI   C5A  955   3.156  16.154   8.383 -0.0986  0.1317  0.4923
   60loPI   C6A  956   3.334  16.302   7.938 -0.2330 -0.1212  0.0537
   60loPI   C1B  957   3.676  15.710   9.998  0.2038 -0.0697  0.0789
   60loPI   C2B  958   3.553  15.698   9.542  0.1342  0.1073 -0.0270
   60loPI   C3B  959   3.426  15.601   9.210 -0.0731 -0.2494  0.0588
   60loPI   C4B  960   3.490  15.570   8.767 -0.2327  0.2065  0.3202
   61loPI    C1  961  17.642  13.844  10.945 -0.2156  0.1406 -0.0809
   61loPI    C2  962  17.485  14.154  11.144  0.0045  0.1236  0.1239
   61loPI    C3  963  17.811  13.971  11.284  0.0162 -0.0500 -0.1229
   61loPI   PO4  964  17.329  13.726  10.818 -0.1164  0.0024  0.2893
   61loPI   GL1  965  17.165  13.804  10.360 -0.1383 -0.1076  0.1267
   61loPI   GL2  966  17.312  13.488  10.341 -0.2223  0.0053  0.0587
   61loPI   C1A  967  17.084  13.863   9.979 -0.1150 -0.1368 -0.1627
   61loPI   C2A  968  17.118  13.887   9.556 -0.3261  0.1214 -0.1326
   61loPI   C3A  969  17.226  13.882   9.188 -0.1083 -0.4300 -0.1442
   61loPI   C4A  970  17.191  13.887   8.748  0.2845  0.2960  0.0744
   61loPI   C5A  971  17.249  13.758   8.352  0.1649 -0.1823  0.1937
   61loPI   C6A  972  17.077  13.634   7.852  0.2879 -0.0546 -0.3778
   61loPI   C1B  973  17.487  13.534   9.928 -0.0816 -0.0279 -0.0377
   61loPI   C2B  974  17.570  13.519   9.495  0.2929 -0.0852 -0.1770
   61loPI   C3B  975  17.583  13.433   9.169 -0.2298 -0.0449  0.2681
   61loPI   C4B  976  17.553  13.544   8.725 -0.0201 -0.0149 -0.1190
   62loPI    C1  977  12.439   9.086  10.427 -0.2584  0.0909  0.0969
   62loPI    C2  978  12.130   8.867  10.299 -0.1237 -0.0652  0.0361
   62loPI    C3  979  12.486   8.694  10.362 -0.0507  0.1115  0.1147
   62loPI   PO4  980  12.508   9.299  10.183 -0.1145  0.1082 -0.1278
   62loPI   GL1  981  12.628   9.257   9.782 -0.1959  0.0308  0.0579
   62loPI   GL2  982  12.790   8.931   9.921 -0.1752  0.0375  0.0054
   62loPI   C1A  983  12.952   9.342   9.479  0.3737  0.0703  0.0009
   62loPI   C2A  984  12.795   9.346   9.088 -0.0446  0.2412  0.0199
   62loPI   C3A  985  12.781   9.379   8.632  0.1324  0.0530 -0.2119
   62loPI   C4A  986  12.880   9.365   8.293 -0.2513 -0.1924  0.5011
   62loPI   C5A  987  12.882   9.094   7.860  0.2096  0.0323  0.1282
   62loPI   C6A  988  12.659   8.692   7.709  0.1858  0.2475 -0.1329
   62loPI   C1B  989  12.658   8.950   9.367 -0.0694 -0.0537 -0.0804
   62loPI   C2B  990  12.333   9.137   9.065 -0.0189 -0.0601  0.0913
   62loPI   C3B  991  12.310   9.194   8.548 -0.1836 -0.2666 -0.1579
   62loPI   C4B  992  12.412   9.304   8.198 -0.0542  0.2585  0.0800
   63loPI    C1  993  18.375   8.752  10.789 -0.0831 -0.1407  0.0226
   63loPI    C2  994  18.136   8.556  11.043 -0.0132 -0.1460  0.0845
   63loPI    C3  995  18.505   8.661  11.156  0.0400 -0.2018 -0.0354
   63loPI   PO4  996  18.422   8.612  10.554  0.3322  0.0200  0.0461
   63loPI   GL1  997  18.285   8.510  10.203  0.0549  0.0604 -0.1445
   63loPI   GL2  998  18.729   8.689  10.125  0.0338 -0.2386  0.0027
   63loPI   C1A  999  18.269   8.757   9.896 -0.2079 -0.2081  0.0570
   63loPI   C2A 1000  18.120   8.891   9.385 -0.1305 -0.0424  0.0363
   63loPI   C3A 1001  18.029   8.753   8.925 -0.0586  0.0756 -0.2069
   63loPI   C4A 1002  17.954   8.647   8.525 -0.1229  0.0160  0.2472
   63loPI   C5A 1003  17.943   8.674   8.099  0.0020  0.0825 -0.2623
   63loPI   C6A 1004  17.499   8.575   7.912 -0.0057  0.0040  0.0526
   63loPI   C1B 1005  18.873   8.583   9.733  0.0792  0.1530  0.0784
   63loPI   C2B 1006  18.878   8.662   9.277  0.0561 -0.3147 -0.0080
   63loPI   C3B 1007  18.854   8.578   8.775  0.3116 -0.1837 -0.0754
   63loPI   C4B 1008  18.807   8.306   8.530 -0.2966  0.1664 -0.0049
   64loPI    C1 1009  18.305  15.618  11.108 -0.0370 -0.2024 -0.0297
   64loPI    C2 1010  18.378  15.472  11.473  0.0579 -0.0557  0.0106
   64loPI    C3 1011  18.053  15.696  11.409  0.0979  0.0086  0.0305
   64loPI   PO4 1012  18.327  15.346  10.936  0.1646  0.0741 -0.5763
   64loPI   GL1 1013  18.316  15.087  10.463  0.2221 -0.1548  0.4159
   64loPI   GL2 1014  18.180  15.323  10.314  0.2318  0.1588 -0.1740
   64loPI   C1A 1015  18.373  14.994  10.081  0.0017  0.2338 -0.0025
   64loPI   C2A 1016  18.448  15.152   9.712  0.1084 -0.0851 -0.1572
   64loPI   C3A 1017  18.421  15.206   9.264 -0.0498  0.0919  0.2389
   64loPI   C4A 1018  18.345  15.197   8.789  0.1031  0.0230  0.0997
   64loPI   C5A 1019  18.573  15.044   8.322  0.0070 -0.0423  0.2160
   64loPI   C6A 1020  18.690  14.705   8.167  0.2138 -0.1377  0.0472
   64loPI   C1B 1021  18.083  15.464   9.895  0.2263  0.1580  0.0110
   64loPI   C2B 1022  17.985  15.538   9.488 -0.0839 -0.1265  0.1097
   64loPI   C3B 1023  18.051  15.566   8.940  0.0328  0.5539  0.1875
   64loPI   C4B 1024  18.268  15.546   8.456  0.1437  0.2059 -0.2357
   65loPI    C1 1025   6.439  14.109  10.982 -0.0691  0.0397  0.0916
   65loPI    C2 1026   6.705  14.239  11.251 -0.0549  0.2166 -0.0066
   65loPI    C3 1027   6.589  13.856  11.254  0.0594  0.1820  0.1546
   65loPI   PO4 1028   6.492  14.338  10.742  0.0300 -0.0201 -0.1844
   65loPI   GL1 1029   6.262  14.364  10.365 -0.0030  0.0670  0.0418
   65loPI   GL2 1030   6.544  14.314  10.122 -0.0338 -0.0212  0.0042
   65loPI   C1A 1031   6.132  14.581   9.976  0.1795 -0.1706  0.1081
   65loPI   C2A 1032   6.103  14.563   9.578 -0.2205  0.0094 -0.4810
   65loPI   C3A 1033   5.986  14.502   9.184  0.1909  0.2495  0.1842
   65loPI   C4A 1034   5.969  14.542   8.781  0.0569  0.0996 -0.0543
   65loPI   C5A 1035   5.975  14.350   8.397  0.0057  0.0336  0.1155
   65loPI   C6A 1036   6.324  14.108   8.130  0.0099  0.0291 -0.1191
   65loPI   C1B 1037   6.626  14.463   9.829 -0.3905  0.0293  0.0332
   65loPI   C2B 1038   6.603  14.672   9.426 -0.0858  0.2713  0.1512
   65loPI   C3B 1039   6.514  14.692   8.976 -0.3307  0.0799  0.2140
   65loPI   C4B 1040   6.414  14.594   8.550  0.0941  0.1624 -0.3549
   66loPI    C1 1041  16.358  11.395  10.486 -0.0623  0.0450  0.0643
   66loPI    C2 1042  16.116  11.412  10.168 -0.0509  0.0330  0.0550
   66loPI    C3 1043  15.970  11.309  10.526 -0.0883  0.1668  0.0789
   66loPI   PO4 1044  16.493  11.218  10.374 -0.1405  0.0883 -0.2396
   66loPI   GL1 1045  16.789  11.150  10.077  0.0760 -0.1273 -0.0244
   66loPI   GL2 1046  16.583  11.454   9.968  0.0430  0.3259 -0.1387
   66loPI   C1A 1047  16.711  10.927   9.683 -0.1094 -0.0869 -0.0137
   66loPI   C2A 1048  16.664  10.851   9.225 -0.0909  0.1444 -0.0227
   66loPI   C3A 1049  16.499  10.794   8.879 -0.2917  0.1732  0.3206
   66loPI   C4A 1050  16.471  10.886   8.536  0.1732  0.1570 -0.1267
   66loPI   C5A 1051  16.557  10.860   8.127 -0.3124 -0.1325  0.0262
   66loPI   C6A 1052  16.523  11.122   7.706  0.0074 -0.0386 -0.1634
   66loPI   C1B 1053  16.540  11.434   9.523 -0.1083  0.0348 -0.1085
   66loPI   C2B 1054  16.611  11.305   8.967 -0.3515  0.0348 -0.0610
   66loPI   C3B 1055  16.645  11.370   8.519 -0.0749  0.2347  0.0821
   66loPI   C4B 1056  16.509  11.337   8.287  0.1552  0.0351 -0.2795
   67loPI    C1 1057   1.796  13.946  10.696  0.1157  0.2166  0.1414
   67loPI    C2 1058   1.876  14.054  11.073 -0.0175  0.1574  0.1874
   67loPI    C3 1059   1.618  13.757  11.001  0.2213 -0.0217  0.0570
   67loPI   PO4 1060   1.646  14.105  10.535 -0.3559  0.0171  0.1233
   67loPI   GL1 1061   1.707  14.262  10.113  0.0932 -0.2981 -0.1892
   67loPI   GL2 1062   1.596  14.574   9.964  0.2075 -0.0525 -0.0629
   67loPI   C1A 1063   1.769  14.195   9.721 -0.0200  0.0941  0.0342
   67loPI   C2A 1064   1.726  14.277   9.369 -0.0781 -0.2216 -0.0461
   67loPI   C3A 1065   1.798  14.273   8.965 -0.1529 -0.5114 -0.1100
   67loPI   C4A 1066   1.670  14.331   8.531  0.1632  0.0882  0.1199
   67loPI   C5A 1067   1.667  14.219   8.126  0.0083  0.0423  0.3074
   67loPI   C6A 1068   1.428  14.420   7.730 -0.0001  0.0733 -0.1042
   67loPI   C1B 1069   1.893  14.662   9.576  0.3896 -0.0073 -0.1200
   67loPI   C2B 1070   1.787  14.752   9.147 -0.1248 -0.2683  0.2426
   67loPI   C3B 1071   1.834  14.741   8.739 -0.0081 -0.1795 -0.0527
   67loPI   C4B 1072   1.781  14.704   8.239 -0.0588 -0.1012  0.0490
   68loPI    C1 1073   7.325  17.278  10.570 -0.0506 -0.0688 -0.0554
   68loPI    C2 1074   7.614  17.478  10.762 -0.1133  0.0134 -0.0461
   68loPI    C3 1075   7.264  17.407  10.944  0.0700 -0.5069  0.1223
   68loPI   PO4 1076   7.519  17.198  10.349  0.2252  0.3754  0.2657
   68loPI   GL1 1077   7.141  17.162   9.978  0.0012 -0.0861  0.0030
   68loPI   GL2 1078   7.270  16.991   9.799  0.1367 -0.1980 -0.1229
   68loPI   C1A 1079   6.825  17.024   9.669 -0.0832  0.3583  0.2262
   68loPI   C2A 1080   6.679  16.990   9.264 -0.3555  0.3110  0.0717
   68loPI   C3A 1081   6.687  17.022   8.873  0.0650  0.0764  0.2848
   68loPI   C4A 1082   6.624  17.056   8.438 -0.0676  0.0319  0.4635
   68loPI   C5A 1083   6.773  17.142   7.912 -0.0422 -0.0522 -0.1094
   68loPI   C6A 1084   6.705  17.530   7.574  0.2006  0.1603 -0.2051
   68loPI   C1B 1085   7.294  17.147   9.432 -0.0416  0.0687 -0.2797
   68loPI   C2B 1086   7.161  17.153   9.062 -0.0140 -0.1743 -0.0178
   68loPI   C3B 1087   7.160  17.179   8.741  0.0819 -0.0993  0.2354
   68loPI   C4B 1088   7.162  17.176   8.317 -0.1410  0.2742 -0.3099
   69loPI    C1 1089   8.329   2.333  10.273 -0.1878  0.0331 -0.0026
   69loPI    C2 1090   8.043   2.418  10.539 -0.0545  0.1618  0.1013
   69loPI    C3 1091   8.415   2.341  10.664 -0.0816 -0.1813 -0.0201
   69loPI   PO4 1092   8.350   2.485  10.097 -0.0713  0.2558  0.2639
   69loPI   GL1 1093   8.360   2.480   9.694  0.1805  0.1602 -0.1165
   69loPI   GL2 1094   8.639   2.535   9.502  0.1575  0.1413 -0.2825
   69loPI   C1A 1095   8.220   2.296   9.312  0.2759  0.0952  0.3386
   69loPI   C2A 1096   8.184   2.344   8.975 -0.2138  0.2237 -0.0417
   69loPI   C3A 1097   8.036   2.246   8.566  0.2071 -0.0322 -0.0427
   69loPI   C4A 1098   7.966   2.073   8.109 -0.0699 -0.3936 -0.2000
   69loPI   C5A 1099   7.657   1.891   7.763 -0.2652  0.0691 -0.1002
   69loPI   C6A 1100   7.267   1.871   7.743 -0.1425 -0.1512  0.3822
   69loPI   C1B 1101   8.686   2.478   8.979 -0.1055 -0.0291  0.2342
   69loPI   C2B 1102   8.569   2.519   8.533  0.0294  0.1117 -0.0416
   69loPI   C3B 1103   8.817   2.500   8.190 -0.1042  0.4151 -0.1848
   69loPI   C4B 1104   8.894   2.507   7.802  0.0845  0.3054 -0.1864
   70loPI    C1 1105  11.854  15.812  10.728  0.0113  0.0672  0.0443
   70loPI    C2 1106  12.189  16.031  10.722  0.0684 -0.0152  0.1539
   70loPI    C3 1107  11.931  16.069  11.025 -0.0895  0.1463  0.0021
   70loPI   PO4 1108  11.750  15.919  10.451 -0.0511 -0.0167  0.0766
   70loPI   GL1 1109  11.620  15.964   9.981  0.0503 -0.1951 -0.1322
   70loPI   GL2 1110  11.922  15.819   9.972  0.1581 -0.2767 -0.0340
   70loPI   C1A 1111  11.473  16.003   9.591 -0.1025 -0.0682  0.0926
   70loPI   C2A 1112  11.567  15.820   9.174  0.0515 -0.0592  0.0738
   70loPI   C3A 1113  11.653  15.997   8.731 -0.0552  0.5044 -0.0115
   70loPI   C4A 1114  11.743  16.120   8.358 -0.1868  0.1257  0.1138
   70loPI   C5A 1115  11.958  15.818   7.980  0.1670  0.3994  0.1370
   70loPI   C6A 1116  11.857  15.427   7.678  0.2099 -0.1033 -0.1839
   70loPI   C1B 1117  11.907  15.786   9.506 -0.3431 -0.2425 -0.2303
   70loPI   C2B 1118  12.100  15.842   9.143  0.5073 -0.3458 -0.3039
   70loPI   C3B 1119  12.238  16.030   8.783  0.1010 -0.0004 -0.1731
   70loPI   C4B 1120  12.281  16.066   8.271  0.0331  0.0484  0.3965
   71loPI    C1 1121  12.954  11.225  10.487 -0.1432  0.1586  0.0746
   71loPI    C2 1122  12.745  10.896  10.580 -0.1673  0.1723  0.0687
   71loPI    C3 1123  12.844  11.158  10.866  0.0061  0.0706  0.1032
   71loPI   PO4 1124  12.929  11.223  10.193 -0.1096  0.0210 -0.1431
   71loPI   GL1 1125  12.980  11.286   9.726  0.1024 -0.2199 -0.3938
   71loPI   GL2 1126  13.273  11.221   9.800  0.2763  0.2968 -0.0701
   71loPI   C1A 1127  12.906  11.208   9.401  0.0177 -0.0173 -0.1428
   71loPI   C2A 1128  12.688  11.251   8.993 -0.1968  0.1287 -0.1182
   71loPI   C3A 1129  12.690  11.235   8.560  0.2603  0.2388  0.1008
   71loPI   C4A 1130  12.649  11.096   8.093  0.0874  0.1676  0.0185
   71loPI   C5A 1131  12.722  11.354   7.685 -0.0452 -0.2838 -0.0987
   71loPI   C6A 1132  12.574  11.308   7.310 -0.0151  0.0245 -0.0237
   71loPI   C1B 1133  13.397  11.416   9.371  0.0551  0.0661  0.0908
   71loPI   C2B 1134  13.202  11.330   9.018  0.5302 -0.0390 -0.1695
   71loPI   C3B 1135  13.164  11.387   8.608 -0.0442 -0.2585  0.1072
   71loPI   C4B 1136  13.131  11.457   8.200  0.0505 -0.4227  0.0759
   72loPI    C1 1137  17.770   0.159  11.180 -0.0847  0.0941 -0.1153
   72loPI    C2 1138  17.664  -0.180  11.364 -0.2271  0.2548  0.1031
   72loPI    C3 1139  17.974   0.033  11.500 -0.0735  0.1617 -0.0957
   72loPI   PO4 1140  17.749   0.067  10.867 -0.1051 -0.0786  0.1034
   72loPI   GL1 1141  17.616  -0.252  10.475  0.3172 -0.0332  0.2503
   72loPI   GL2 1142  17.259  -0.276  10.323  0.0853  0.0067 -0.0026
   72loPI   C1A 1143  17.804  -0.173  10.182  0.0328  0.2554 -0.2357
   72loPI   C2A 1144  17.856  -0.192   9.699  0.0271  0.1033  0.0385
   72loPI   C3A 1145  17.891  -0.066   9.174  0.1752  0.1733  0.1451
   72loPI   C4A 1146  17.827  -0.048   8.753 -0.0170 -0.0554 -0.4431
   72loPI   C5A 1147  17.999  -0.098   8.297 -0.0312  0.1896 -0.1347
   72loPI   C6A 1148  18.172  -0.301   7.939 -0.0171  0.3781 -0.0148
   72loPI   C1B 1149  17.367  -0.272   9.915  0.0860 -0.0031  0.0817
   72loPI   C2B 1150  17.368  -0.238   9.346 -0.0820 -0.0423 -0.1457
   72loPI   C3B 1151  17.374  -0.188   8.871 -0.2629 -0.0247  0.0274
   72loPI   C4B 1152  17.350  -0.020   8.389  0.0842  0.0555  0.1065
   73loPI    C1 1153   7.529   1.613  10.659  0.1631 -0.0491  0.3040
   73loPI    C2 1154   7.236   1.458  10.884 -0.3311  0.1864 -0.1547
   73loPI    C3 1155   7.277   1.855  10.854  0.0290  0.1560 -0.1126
   73loPI   PO4 1156   7.439   1.436  10.405 -0.2335  0.0470 -0.0882
   73loPI   GL1 1157   7.216   1.353   9.991 -0.2628  0.2593  0.2219
   73loPI   GL2 1158   7.010   1.056   9.885  0.1232  0.3387  0.0085
   73loPI   C1A 1159   7.038   1.490   9.578  0.0711  0.0015 -0.3269
   73loPI   C2A 1160   6.996   1.580   9.112  0.2228 -0.0414  0.1391
   73loPI   C3A 1161   6.991   1.468   8.804  0.1418  0.2965  0.1719
   73loPI   C4A 1162   6.880   1.471   8.445  0.1117 -0.0278 -0.0509
   73loPI   C5A 1163   6.695   1.528   8.006  0.1343 -0.1511 -0.3071
   73loPI   C6A 1164   6.666   1.533   7.662 -0.0587  0.0939  0.2315
   73loPI   C1B 1165   7.363   1.111   9.578  0.0989 -0.0142  0.0426
   73loPI   C2B 1166   7.276   1.207   9.221 -0.1936  0.2181  0.1660
   73loPI   C3B 1167   7.263   1.064   8.770  0.3583  0.1146 -0.3425
   73loPI   C4B 1168   7.233   1.146   8.357 -0.0198  0.1266 -0.0782
   74loPI    C1 1169  15.078   8.638  10.873 -0.0489 -0.1999 -0.0132
   74loPI    C2 1170  14.955   8.460  11.210 -0.1637  0.0530  0.0813
   74loPI    C3 1171  15.278   8.696  11.214 -0.1460  0.0304  0.0065
   74loPI   PO4 1172  14.852   8.824  10.712  0.2325 -0.0278  0.0519
   74loPI   GL1 1173  14.766   8.788  10.224  0.0177 -0.0703  0.3031
   74loPI   GL2 1174  14.953   9.128  10.073 -0.0684  0.1109 -0.0419
   74loPI   C1A 1175  14.887   8.569   9.871  0.1504 -0.0803  0.0251
   74loPI   C2A 1176  14.896   8.433   9.446  0.2426  0.3904  0.1444
   74loPI   C3A 1177  14.900   8.525   8.911  0.0975  0.2787  0.1120
   74loPI   C4A 1178  14.990   8.503   8.522  0.0678 -0.1602 -0.1450
   74loPI   C5A 1179  15.223   8.435   8.233  0.2034  0.0875 -0.2471
   74loPI   C6A 1180  15.334   8.623   7.822 -0.0058  0.0569  0.2035
   74loPI   C1B 1181  15.047   9.021   9.638 -0.1474 -0.0395  0.0558
   74loPI   C2B 1182  15.050   8.996   9.200  0.4068  0.2840  0.1708
   74loPI   C3B 1183  15.106   9.003   8.770  0.1269 -0.2375 -0.4045
   74loPI   C4B 1184  15.086   8.947   8.305  0.2214  0.1872  0.2473
   75loPI    C1 1185  17.927  16.029  11.028 -0.0866  0.0640 -0.1528
   75loPI    C2 1186  17.865  16.217  11.376  0.0009 -0.0311 -0.0850
   75loPI    C3 1187  18.238  16.145  11.251 -0.0308 -0.3424 -0.0092
   75loPI   PO4 1188  17.810  16.198  10.784  0.1864  0.1875  0.1533
   75loPI   GL1 1189  17.894  16.099  10.413 -0.0685 -0.2281 -0.1627
   75loPI   GL2 1190  17.728  16.216  10.280  0.0138  0.1136  0.3594
   75loPI   C1A 1191  18.087  15.957  10.066  0.2414 -0.1122 -0.2048
   75loPI   C2A 1192  18.145  15.973   9.672 -0.0560  0.1926 -0.6003
   75loPI   C3A 1193  18.078  16.047   9.330 -0.0567  0.1886  0.0533
   75loPI   C4A 1194  18.267  16.042   8.837  0.2049  0.1820 -0.2028
   75loPI   C5A 1195  18.337  16.069   8.402 -0.0963 -0.4729 -0.3010
   75loPI   C6A 1196  18.254  15.858   8.023 -0.1318 -0.0028 -0.1157
   75loPI   C1B 1197  17.734  16.226   9.894  0.2894  0.0221 -0.1563
   75loPI   C2B 1198  17.741  16.416   9.396 -0.3006  0.0474 -0.0070
   75loPI   C3B 1199  17.768  16.431   8.979  0.1793  0.0656 -0.4235
   75loPI   C4B 1200  17.903  16.334   8.590 -0.0878  0.1382  0.0573
   76loPI    C1 1201   2.427  14.858  10.802  0.0375 -0.1105 -0.1515
   76loPI    C2 1202   2.436  15.252  10.869 -0.0612 -0.0889 -0.2616
   76loPI    C3 1203   2.733  15.020  11.002 -0.1362 -0.0159  0.0415
   76loPI   PO4 1204   2.346  14.795  10.583  0.2051  0.0211 -0.1392
   76loPI   GL1 1205   2.540  14.796  10.148 -0.0645 -0.3630 -0.0731
   76loPI   GL2 1206   2.758  14.539   9.954 -0.0308 -0.3393  0.0923
   76loPI   C1A 1207   2.352  14.807   9.762 -0.1131 -0.2631  0.0533
   76loPI   C2A 1208   2.360  14.892   9.378 -0.1110  0.0173  0.1534
   76loPI   C3A 1209   2.315  14.872   8.918 -0.2602  0.6019 -0.0654
   76loPI   C4A 1210   2.333  14.849   8.495  0.2699  0.0722 -0.0451
   76loPI   C5A 1211   2.171  15.050   8.224 -0.1549  0.1533  0.1252
   76loPI   C6A 1212   2.078  15.240   7.835 -0.1227 -0.3911 -0.0713
   76loPI   C1B 1213   2.709  14.513   9.508 -0.0406 -0.1020  0.1997
   76loPI   C2B 1214   2.762  14.473   8.941 -0.2195 -0.0003  0.4487
   76loPI   C3B 1215   2.683  14.519   8.484 -0.0706  0.1435  0.0861
   76loPI   C4B 1216   2.565  14.733   8.085 -0.4031  0.0824  0.3222
   77loPI    C1 1217  13.974  14.532  10.840 -0.1714 -0.0255 -0.1129
   77loPI    C2 1218  13.764  14.648  11.160 -0.1810 -0.0575 -0.1074
   77loPI    C3 1219  13.861  14.263  11.114  0.2920  0.0257  0.1375
   77loPI   PO4 1220  13.800  14.664  10.558 -0.0000  0.0545  0.0061
   77loPI   GL1 1221  13.677  14.686  10.016  0.0722  0.1217  0.1415
   77loPI   GL2 1222  13.926  14.415  10.062  0.2428  0.0020 -0.0870
   77loPI   C1A 1223  13.729  14.715   9.554 -0.0888 -0.0101 -0.0172
   77loPI   C2A 1224  13.662  14.731   9.120  0.0143 -0.1259 -0.6677
   77loPI   C3A 1225  13.709  14.697   8.667 -0.0733 -0.0475 -0.0179
   77loPI   C4A 1226  13.799  14.772   8.211  0.3237 -0.0227 -0.1368
   77loPI   C5A 1227  13.686  14.760   7.814 -0.0888 -0.0132  0.0776
   77loPI   C6A 1228  13.599  14.887   7.407 -0.0407 -0.1524  0.1963
   77loPI   C1B 1229  13.938  14.249   9.674 -0.3918 -0.2011 -0.0356
   77loPI   C2B 1230  13.995  14.339   9.244 -0.0048 -0.2112  0.2808
   77loPI   C3B 1231  14.026  14.312   8.820  0.0116 -0.0408 -0.0357
   77loPI   C4B 1232  14.053  14.409   8.414 -0.0650 -0.1895 -0.1482
   78loPI    C1 1233   9.549  14.502  10.262  0.0148  0.0193 -0.0071
   78loPI    C2 1234   9.237  14.307  10.418 -0.0891  0.0452 -0.1796
   78loPI    C3 1235   9.342  14.664  10.563  0.0282 -0.0828  0.0577
   78loPI   PO4 1236   9.846  14.339  10.154 -0.0723  0.1448  0.1444
   78loPI   GL1 1237   9.980  14.221   9.683 -0.1617 -0.0942  0.0759
   78loPI   GL2 1238  10.199  14.524   9.534 -0.1682 -0.2222 -0.1278
   78loPI   C1A 1239   9.694  14.078   9.396  0.1984  0.1667  0.0457
   78loPI   C2A 1240   9.481  14.220   9.110 -0.3286 -0.2867  0.0212
   78loPI   C3A 1241   9.363  14.345   8.720 -0.0074  0.0936 -0.0313
   78loPI   C4A 1242   9.361  14.434   8.290  0.1452  0.2736  0.0390
   78loPI   C5A 1243   9.710  14.708   8.140 -0.0505  0.0947 -0.1252
   78loPI   C6A 1244   9.960  14.729   7.890  0.0587  0.1321  0.0199
   78loPI   C1B 1245   9.967  14.461   9.279  0.1954  0.5624 -0.0087
   78loPI   C2B 1246   9.882  14.305   8.813  0.2726 -0.0320 -0.3233
   78loPI   C3B 1247  10.019  14.367   8.365  0.1646  0.2916  0.0947
   78loPI   C4B 1248  10.200  14.279   7.932 -0.1732 -0.0854 -0.0227
   79loPI    C1 1249   7.791   0.667  10.362  0.0161 -0.0693 -0.1604
   79loPI    C2 1250   7.487   0.810  10.580 -0.1338 -0.2147 -0.2715
   79loPI    C3 1251   7.845   0.752  10.749 -0.2083 -0.1853 -0.1019
   79loPI   PO4 1252   7.862   0.598  10.180 -0.1282 -0.2437 -0.0871
   79loPI   GL1 1253   7.799   0.698   9.827 -0.0064  0.0329  0.0869
   79loPI   GL2 1254   8.024   0.939   9.829  0.1593  0.0365  0.4665
   79loPI   C1A 1255   7.693   0.741   9.466  0.1471  0.1009 -0.0097
   79loPI   C2A 1256   7.584   0.804   9.059 -0.0626 -0.1992 -0.1431
   79loPI   C3A 1257   7.627   0.700   8.645  0.0452 -0.0984 -0.1338
   79loPI   C4A 1258   7.698   0.740   8.298 -0.2983 -0.1467 -0.2086
   79loPI   C5A 1259   7.572   1.004   7.919 -0.0593  0.1002  0.0127
   79loPI   C6A 1260   7.560   1.389   7.616 -0.1377 -0.1742  0.1505
   79loPI   C1B 1261   8.130   0.892   9.379  0.0764 -0.0212 -0.3223
   79loPI   C2B 1262   8.218   0.925   8.898 -0.1751  0.1944 -0.0981
   79loPI   C3B 1263   8.228   0.925   8.443 -0.3453  0.1606 -0.1450
   79loPI   C4B 1264   8.090   1.081   7.977  0.0696  0.1643 -0.2655
   80loPI    C1 1265   1.628   7.789  10.658 -0.0663  0.1998 -0.0533
   80loPI    C2 1266   1.915   8.020  10.815  0.0795 -0.0497  0.0529
   80loPI    C3 1267   2.000   7.772  10.512 -0.0635 -0.0052 -0.0248
   80loPI   PO4 1268   1.429   7.958  10.523  0.1989  0.0258  0.0311
   80loPI   GL1 1269   1.538   7.929  10.157  0.3778  0.1285 -0.1393
   80loPI   GL2 1270   1.743   7.754  10.092 -0.2185  0.1177 -0.0575
   80loPI   C1A 1271   1.382   7.976   9.743  0.2135 -0.0046  0.5117
   80loPI   C2A 1272   1.377   7.958   9.345  0.1469 -0.1462  0.1028
   80loPI   C3A 1273   1.113   7.836   8.899 -0.0774  0.0901 -0.2391
   80loPI   C4A 1274   1.156   7.761   8.435 -0.1856  0.2531  0.2391
   80loPI   C5A 1275   1.374   8.050   8.138  0.1166 -0.2243  0.4846
   80loPI   C6A 1276   1.737   8.123   8.253 -0.0703 -0.0223 -0.0124
   80loPI   C1B 1277   1.807   7.616   9.754  0.0222  0.0080 -0.2546
   80loPI   C2B 1278   1.782   7.595   9.231  0.3086 -0.0395 -0.1404
   80loPI   C3B 1279   1.754   7.468   8.799 -0.1169 -0.3261  0.3220
   80loPI   C4B 1280   1.677   7.473   8.450 -0.0273 -0.1089 -0.1121
   81loPI    C1 1281   8.577  12.196  10.040 -0.2053  0.1189 -0.0636
   81loPI    C2 1282   8.930  12.062  10.173 -0.1237  0.4260  0.0362
   81loPI    C3 1283   8.746  11.875   9.871 -0.0504  0.0479  0.2198
   81loPI   PO4 1284   8.664  12.445   9.860  0.1818  0.3017  0.2251
   81loPI   GL1 1285   8.697  12.559   9.472  0.0502 -0.0905 -0.0342
   81loPI   GL2 1286   8.872  12.218   9.456  0.1476 -0.2798 -0.0834
   81loPI   C1A 1287   8.604  12.639   9.048  0.0959 -0.3942  0.0858
   81loPI   C2A 1288   8.571  12.554   8.675  0.2413  0.4666  0.0749
   81loPI   C3A 1289   8.658  12.759   8.256 -0.1103 -0.0488  0.2412
   81loPI   C4A 1290   8.810  12.830   7.896 -0.1245  0.1357  0.1784
   81loPI   C5A 1291   9.026  13.024   7.596  0.1875 -0.1937  0.0239
   81loPI   C6A 1292   8.850  13.146   7.243 -0.0166  0.1082  0.3357
   81loPI   C1B 1293   8.573  12.116   9.044  0.1488 -0.1781  0.4688
   81loPI   C2B 1294   8.651  12.038   8.650  0.1029  0.3045  0.2604
   81loPI   C3B 1295   8.578  11.795   8.287 -0.1500 -0.2298 -0.0876
   81loPI   C4B 1296   8.626  11.743   7.862  0.0529  0.0770 -0.1023
   82loPI    C1 1297   4.771  11.922  10.642 -0.2491 -0.1787 -0.1165
   82loPI    C2 1298   5.156  11.919  10.750 -0.2923  0.0825  0.0529
   82loPI    C3 1299   4.926  11.599  10.820 -0.1116 -0.0689 -0.0350
   82loPI   PO4 1300   4.773  12.064  10.411  0.2312  0.3716  0.1038
   82loPI   GL1 1301   4.784  12.285  10.137  0.1152 -0.2866  0.0417
   82loPI   GL2 1302   4.469  12.354  10.109  0.0033  0.4475  0.1233
   82loPI   C1A 1303   4.814  12.353   9.736  0.1193 -0.0276 -0.0389
   82loPI   C2A 1304   4.719  12.540   9.454 -0.2496 -0.1745 -0.2437
   82loPI   C3A 1305   4.571  12.612   9.146 -0.1339 -0.1002  0.1206
   82loPI   C4A 1306   4.605  12.635   8.658 -0.0783  0.1337 -0.0405
   82loPI   C5A 1307   4.615  12.733   8.212  0.0472  0.2705 -0.0978
   82loPI   C6A 1308   4.406  12.641   7.830 -0.0595  0.0380 -0.1098
   82loPI   C1B 1309   4.342  12.678   9.706  0.0434 -0.3030  0.1225
   82loPI   C2B 1310   4.144  12.535   9.413  0.1470  0.1629 -0.0797
   82loPI   C3B 1311   4.072  12.530   8.961 -0.1977 -0.0104  0.1499
   82loPI   C4B 1312   4.080  12.491   8.505  0.1950 -0.4236  0.1045
   83loPI    C1 1313  12.164  12.973  10.692 -0.0660 -0.0893  0.1637
   83loPI    C2 1314  12.057  13.190  11.011  0.1897  0.0465  0.1600
   83loPI    C3 1315  11.937  12.809  10.978  0.0519  0.0717  0.3518
   83loPI   PO4 1316  12.180  13.089  10.451  0.0601  0.2458  0.3180
   83loPI   GL1 1317  12.422  13.177  10.012 -0.0441 -0.3535  0.0762
   83loPI   GL2 1318  12.430  13.514   9.915 -0.2194  0.0041  0.0056
   83loPI   C1A 1319  12.495  13.138   9.595 -0.0041 -0.0538 -0.0742
   83loPI   C2A 1320  12.702  13.213   9.168  0.1308 -0.3284 -0.2544
   83loPI   C3A 1321  12.826  13.127   8.714  0.0408 -0.0480  0.0983
   83loPI   C4A 1322  12.821  13.110   8.306  0.3341  0.3122  0.2408
   83loPI   C5A 1323  13.068  12.816   8.035 -0.3722 -0.1173  0.1280
   83loPI   C6A 1324  13.264  12.748   7.648 -0.0718 -0.0024  0.0858
   83loPI   C1B 1325  12.293  13.635   9.423 -0.1077  0.1354  0.0156
   83loPI   C2B 1326  12.415  13.681   8.990  0.1517 -0.1778  0.1575
   83loPI   C3B 1327  12.208  13.700   8.626  0.1179 -0.1128  0.3158
   83loPI   C4B 1328  12.053  13.793   8.271  0.0049  0.0474 -0.2408
   84loPI    C1 1329  14.334  12.938  10.514  0.1874 -0.0292  0.0034
   84loPI    C2 1330  14.176  13.164  10.803  0.0599 -0.0224 -0.0711
   84loPI    C3 1331  14.562  13.063  10.818  0.0702  0.0342  0.0659
   84loPI   PO4 1332  14.194  13.061  10.256  0.0524  0.0818 -0.2833
   84loPI   GL1 1333  14.112  12.857   9.899 -0.0545  0.0088 -0.1408
   84loPI   GL2 1334  13.829  13.021   9.694  0.1420 -0.2532 -0.2562
   84loPI   C1A 1335  14.322  12.741   9.481 -0.2093 -0.1152 -0.0467
   84loPI   C2A 1336  14.481  12.590   9.108  0.0155 -0.1935  0.1793
   84loPI   C3A 1337  14.622  12.618   8.724  0.0197 -0.1250  0.1347
   84loPI   C4A 1338  14.661  12.720   8.382  0.0076  0.1447 -0.1687
   84loPI   C5A 1339  14.827  12.793   7.992 -0.0036 -0.0765 -0.1925
   84loPI   C6A 1340  14.938  12.609   7.598  0.0393  0.0554 -0.0011
   84loPI   C1B 1341  14.053  13.066   9.323  0.0289 -0.2886  0.1308
   84loPI   C2B 1342  14.230  12.995   8.929  0.3615  0.1598  0.0641
   84loPI   C3B 1343  14.277  13.037   8.563  0.0683 -0.1407 -0.1911
   84loPI   C4B 1344  14.347  12.937   8.058 -0.2232  0.0902 -0.0806
   85loPI    C1 1345   7.207  18.039  10.827  0.0951 -0.3453  0.0677
   85loPI    C2 1346   7.435  17.892  11.121 -0.0298 -0.3771  0.1497
   85loPI    C3 1347   7.067  18.025  11.201  0.0758 -0.0282  0.0750
   85loPI   PO4 1348   7.249  17.827  10.642  0.5387  0.2404 -0.0538
   85loPI   GL1 1349   7.294  17.723  10.201 -0.2791 -0.1025 -0.0333
   85loPI   GL2 1350   7.486  17.645  10.009  0.0560  0.0304  0.2802
   85loPI   C1A 1351   7.047  17.908   9.888 -0.0577  0.1266  0.1237
   85loPI   C2A 1352   7.027  17.973   9.412 -0.0879 -0.0120  0.1367
   85loPI   C3A 1353   6.855  18.029   8.974 -0.1706  0.2997  0.0334
   85loPI   C4A 1354   6.869  17.978   8.555 -0.1881 -0.0928  0.1812
   85loPI   C5A 1355   7.010  18.091   8.200 -0.1748 -0.1818  0.1029
   85loPI   C6A 1356   7.002  18.498   8.019  0.3563 -0.0580 -0.1919
   85loPI   C1B 1357   7.452  17.662   9.634 -0.0928  0.2995 -0.2481
   85loPI   C2B 1358   7.368  17.596   9.264  0.1146  0.1857  0.0029
   85loPI   C3B 1359   7.261  17.704   8.902  0.1854 -0.1729  0.1401
   85loPI   C4B 1360   7.269  17.691   8.344 -0.3110  0.0430 -0.2190
   86loPI    C1 1361   9.856   6.783  10.172  0.0027 -0.1290 -0.1191
   86loPI    C2 1362  10.171   6.546  10.104  0.1006 -0.0002 -0.1206
   86loPI    C3 1363   9.910   6.455  10.394  0.3140  0.0601  0.0940
   86loPI   PO4 1364   9.944   7.073   9.971  0.1313 -0.2069  0.1689
   86loPI   GL1 1365  10.173   7.133   9.647  0.2008 -0.0822  0.0575
   86loPI   GL2 1366   9.890   7.199   9.461  0.1175  0.3093 -0.2763
   86loPI   C1A 1367  10.165   6.921   9.204 -0.3671 -0.1348  0.0059
   86loPI   C2A 1368  10.222   6.958   8.784  0.0493 -0.0815  0.1958
   86loPI   C3A 1369   9.972   6.808   8.351 -0.4943 -0.1014 -0.2022
   86loPI   C4A 1370  10.152   6.603   7.977 -0.0442  0.1424 -0.1026
   86loPI   C5A 1371  10.150   6.224   7.646  0.0344  0.1040  0.3246
   86loPI   C6A 1372  10.208   6.086   7.325 -0.2913  0.0923  0.0720
   86loPI   C1B 1373   9.964   7.387   9.106  0.2467 -0.3809  0.3802
   86loPI   C2B 1374  10.151   7.497   8.651 -0.0783 -0.0543 -0.2606
   86loPI   C3B 1375  10.117   7.453   8.244 -0.4323 -0.1849  0.2849
   86loPI   C4B 1376  10.041   7.092   7.903  0.0748  0.0975 -0.1271
   87loPI    C1 1377  10.567   3.206  10.606  0.1839 -0.1381 -0.0749
   87loPI    C2 1378  10.695   2.891  10.817 -0.0274 -0.1881 -0.0198
   87loPI    C3 1379  10.304   2.977  10.802  0.0496  0.2108  0.1611
   87loPI   PO4 1380  10.628   3.221  10.377  0.2886 -0.0592  0.4422
   87loPI   GL1 1381  10.763   3.014  10.035  0.1459  0.1661 -0.0790
   87loPI   GL2 1382  10.443   2.900   9.941 -0.0693  0.0324 -0.0323
   87loPI   C1A 1383  11.081   2.934   9.785 -0.0143  0.2203  0.1923
   87loPI   C2A 1384  11.064   2.646   9.456  0.2140  0.1357 -0.2989
   87loPI   C3A 1385  11.025   2.696   9.025  0.0646 -0.0875  0.0475
   87loPI   C4A 1386  11.155   2.734   8.626  0.0120  0.0089  0.0564
   87loPI   C5A 1387  10.898   2.635   8.233  0.0882 -0.0863  0.0544
   87loPI   C6A 1388  10.530   2.352   7.967 -0.2336  0.1692 -0.0510
   87loPI   C1B 1389  10.329   2.810   9.556 -0.0906  0.1150  0.0856
   87loPI   C2B 1390  10.198   2.773   9.177  0.2644  0.0967  0.4372
   87loPI   C3B 1391  10.134   2.816   8.786 -0.2839 -0.0533  0.1243
   87loPI   C4B 1392  10.068   2.916   8.315  0.1318 -0.0254  0.2829
   88loPI    C1 1393   3.953   6.448  10.881 -0.2028  0.0827 -0.1740
   88loPI    C2 1394   4.090   6.638  11.205 -0.0328  0.0835 -0.2454
   88loPI    C3 1395   4.264   6.299  11.083 -0.2152 -0.0175 -0.2282
   88loPI   PO4 1396   3.627   6.444  10.931 -0.4130  0.1900 -0.1424
   88loPI   GL1 1397   3.406   6.614  10.562  0.2157 -0.3261 -0.3564
   88loPI   GL2 1398   3.127   6.470  10.648  0.1063  0.0381 -0.0823
   88loPI   C1A 1399   3.455   6.649  10.061  0.0613 -0.0427  0.1473
   88loPI   C2A 1400   3.381   6.711   9.531 -0.0927 -0.0167 -0.1911
   88loPI   C3A 1401   3.364   6.714   9.096  0.0947  0.3658 -0.0862
   88loPI   C4A 1402   3.274   6.656   8.666 -0.0436  0.0580 -0.1100
   88loPI   C5A 1403   3.018   6.360   8.408 -0.0234  0.0654  0.1445
   88loPI   C6A 1404   2.612   6.322   8.211 -0.2893  0.1436  0.0972
   88loPI   C1B 1405   2.928   6.588  10.238 -0.0809 -0.1426 -0.0557
   88loPI   C2B 1406   2.874   6.637   9.846 -0.1549  0.0831 -0.0095
   88loPI   C3B 1407   2.898   6.535   9.420 -0.1839 -0.2480 -0.0803
   88loPI   C4B 1408   2.852   6.530   8.901 -0.2704 -0.0262  0.0080
   89loPI    C1 1409  15.838  16.511  10.909 -0.2090  0.0381 -0.0534
   89loPI    C2 1410  16.106  16.218  10.857 -0.0969  0.1186  0.0642
   89loPI    C3 1411  16.021  16.348  11.226 -0.1438  0.2360  0.0124
   89loPI   PO4 1412  15.815  16.605  10.723 -0.3145 -0.1621  0.1254
   89loPI   GL1 1413  15.640  16.826  10.423  0.1790  0.0333 -0.1075
   89loPI   GL2 1414  15.857  17.085  10.355  0.2853 -0.2821  0.0509
   89loPI   C1A 1415  15.618  16.656  10.019  0.1050  0.1462 -0.0849
   89loPI   C2A 1416  15.653  16.736   9.580  0.0862  0.0785 -0.2003
   89loPI   C3A 1417  15.534  16.724   9.236  0.0495 -0.2050  0.0455
   89loPI   C4A 1418  15.563  16.644   8.824  0.0446 -0.0305  0.1034
   89loPI   C5A 1419  15.553  16.694   8.413 -0.1940  0.0183  0.0501
   89loPI   C6A 1420  15.483  16.464   8.009 -0.0509 -0.3058 -0.1673
   89loPI   C1B 1421  15.821  17.165   9.941  0.2322  0.2742 -0.2158
   89loPI   C2B 1422  15.640  17.216   9.560 -0.1675 -0.2784 -0.3456
   89loPI   C3B 1423  15.751  17.246   9.193 -0.0856  0.1842 -0.1513
   89loPI   C4B 1424  15.634  17.112   8.761 -0.2859  0.0970  0.1327
   90loPI    C1 1425  13.569  11.340  10.648 -0.0658 -0.2395  0.0213
   90loPI    C2 1426  13.312  11.074  10.798 -0.3358 -0.0031 -0.0121
   90loPI    C3 1427  13.468  11.356  11.034  0.0031 -0.2271  0.0388
   90loPI   PO4 1428  13.695  11.279  10.504  0.2631 -0.0759  0.3488
   90loPI   GL1 1429  13.745  11.183  10.046 -0.0522 -0.1522 -0.0888
   90loPI   GL2 1430  13.728  10.894   9.937 -0.3117  0.3777 -0.0117
   90loPI   C1A 1431  13.770  11.432   9.686 -0.1158 -0.1730  0.2142
   90loPI   C2A 1432  13.865  11.656   9.325 -0.0146 -0.3843 -0.0427
   90loPI   C3A 1433  13.928  12.051   8.932 -0.0849  0.1263 -0.0886
   90loPI   C4A 1434  14.032  12.073   8.527  0.2684  0.0054 -0.1528
   90loPI   C5A 1435  14.093  11.796   8.193 -0.0691 -0.1434 -0.0663
   90loPI   C6A 1436  14.221  11.422   8.090  0.0462  0.0868 -0.0617
   90loPI   C1B 1437  13.564  10.959   9.587  0.2164  0.0196  0.2126
   90loPI   C2B 1438  13.644  11.051   9.095 -0.0834  0.2538  0.0160
   90loPI   C3B 1439  13.595  11.109   8.626 -0.1693 -0.2896 -0.0881
   90loPI   C4B 1440  13.422  11.033   8.311  0.0604 -0.1767  0.0187
   91loPI    C1 1441  14.838   1.275  11.429 -0.1705 -0.0690 -0.2336
   91loPI    C2 1442  14.555   1.205  11.702 -0.1457  0.2657 -0.1179
   91loPI    C3 1443  14.941   1.181  11.804 -0.1279 -0.1656 -0.2692
   91loPI   PO4 1444  14.781   1.184  11.208  0.0349  0.0159  0.1099
   91loPI   GL1 1445  14.557   1.274  10.812  0.3206  0.1081  0.0210
   91loPI   GL2 1446  14.758   1.129  10.617 -0.5236 -0.0046 -0.1768
   91loPI   C1A 1447  14.349   1.329  10.413  0.0172  0.1188 -0.2782
   91loPI   C2A 1448  14.394   1.297  10.005  0.0298 -0.0454 -0.3121
   91loPI   C3A 1449  14.380   1.284   9.528  0.1717 -0.0466  0.0021
   91loPI   C4A 1450  14.467   1.338   9.098 -0.0393 -0.1351  0.2702
   91loPI   C5A 1451  14.498   1.258   8.584  0.1686 -0.1123 -0.3789
   91loPI   C6A 1452  14.188   1.107   8.420  0.1571  0.1434 -0.1285
   91loPI   C1B 1453  14.797   0.941  10.322 -0.1972 -0.2546 -0.1093
   91loPI   C2B 1454  14.773   0.881   9.953  0.1779 -0.2065  0.1463
   91loPI   C3B 1455  14.838   0.937   9.437  0.2507  0.0863 -0.0689
   91loPI   C4B 1456  14.830   0.938   9.003 -0.1744  0.0764 -0.2408
   92loPI    C1 1457   6.810  10.281  10.458 -0.2204  0.2050  0.2716
   92loPI    C2 1458   6.927  10.023  10.741 -0.0345 -0.1454 -0.1138
   92loPI    C3 1459   6.668  10.316  10.831  0.2434 -0.0680  0.4822
   92loPI   PO4 1460   6.706  10.092  10.199 -0.1499 -0.1626 -0.5648
   92loPI   GL1 1461   6.616  10.256   9.900 -0.1897 -0.0225  0.2077
   92loPI   GL2 1462   6.759  10.151   9.610 -0.1708  0.5103 -0.0977
   92loPI   C1A 1463   6.231  10.329   9.617  0.0405 -0.1303 -0.0299
   92loPI   C2A 1464   6.151  10.379   9.119  0.1526 -0.1058 -0.1251
   92loPI   C3A 1465   6.173  10.580   8.734 -0.1962 -0.0824  0.1960
   92loPI   C4A 1466   6.102  10.497   8.254  0.1891  0.0372  0.3317
   92loPI   C5A 1467   6.227  10.740   8.087  0.2309 -0.1563  0.0969
   92loPI   C6A 1468   5.969  11.093   7.938  0.0504  0.1072  0.3757
   92loPI   C1B 1469   6.838   9.735   9.355 -0.0364  0.0665  0.0978
   92loPI   C2B 1470   6.848   9.576   8.969  0.1906 -0.3006  0.1713
   92loPI   C3B 1471   6.929   9.521   8.643  0.3344  0.0740  0.2997
   92loPI   C4B 1472   7.245   9.348   8.438  0.4117  0.3137 -0.1305
   93loPI    C1 1473  17.438   8.922  10.881  0.0061 -0.1097 -0.0752
   93loPI    C2 1474  17.488   8.542  10.993  0.1841 -0.1174 -0.1774
   93loPI    C3 1475  17.130   8.716  11.031  0.2161 -0.1457  0.3201
   93loPI   PO4 1476  17.415   8.948  10.643 -0.1004 -0.2308 -0.1465
   93loPI   GL1 1477  17.647   8.986  10.209 -0.0499  0.1443  0.0326
   93loPI   GL2 1478  17.832   8.750  10.146 -0.2352  0.0726  0.0411
   93loPI   C1A 1479  17.650   9.218   9.898  0.1428  0.2882 -0.1727
   93loPI   C2A 1480  17.646   9.282   9.437 -0.1475  0.2603 -0.1874
   93loPI   C3A 1481  17.755   9.277   9.078  0.1753 -0.0116  0.0650
   93loPI   C4A 1482  17.685   9.085   8.629  0.0038  0.1017 -0.0652
   93loPI   C5A 1483  17.629   9.117   8.131 -0.1083 -0.0445 -0.0335
   93loPI   C6A 1484  17.931   9.186   7.803 -0.2016 -0.1661  0.0376
   93loPI   C1B 1485  17.759   8.777   9.657 -0.1013 -0.0336 -0.0563
   93loPI   C2B 1486  17.656   8.796   9.225 -0.0880 -0.0719 -0.1609
   93loPI   C3B 1487  17.405   8.675   8.860  0.0329 -0.0062 -0.0427
   93loPI   C4B 1488  17.378   8.736   8.435 -0.0363  0.0257 -0.1387
   94loPI    C1 1489   3.685  12.047  10.701  0.0328 -0.1704  0.1629
   94loPI    C2 1490   3.954  12.152  10.978 -0.1297  0.0433  0.2423
   94loPI    C3 1491   3.745  11.813  11.020  0.1139 -0.1163  0.1878
   94loPI   PO4 1492   3.686  12.289  10.571  0.0774  0.2024 -0.0574
   94loPI   GL1 1493   3.629  12.459  10.227  0.5572  0.0155  0.1300
   94loPI   GL2 1494   3.467  12.250  10.076 -0.0255 -0.0762 -0.1037
   94loPI   C1A 1495   4.006  12.293   9.984 -0.0183  0.1359  0.0163
   94loPI   C2A 1496   4.388  12.111   9.661  0.2188  0.4108  0.0278
   94loPI   C3A 1497   4.433  12.133   9.204 -0.3119 -0.0538 -0.1197
   94loPI   C4A 1498   4.417  12.160   8.726  0.0011  0.5012 -0.2319
   94loPI   C5A 1499   4.443  12.098   8.286 -0.4526  0.3078 -0.1039
   94loPI   C6A 1500   4.116  12.235   8.031  0.0136 -0.1683  0.2395
   94loPI   C1B 1501   3.636  12.242   9.661  0.4390  0.1983  0.0685
   94loPI   C2B 1502   3.538  12.353   9.203  0.2632 -0.1419  0.0199
   94loPI   C3B 1503   3.559  12.369   8.807  0.2292 -0.2428  0.2607
   94loPI   C4B 1504   3.630  12.369   8.398 -0.1142  0.1344  0.2609
   95loPI    C1 1505  13.999  13.849  10.821  0.0817  0.0080 -0.1413
   95loPI    C2 1506  14.288  13.622  10.980  0.1476  0.2139  0.0381
   95loPI    C3 1507  13.937  13.661  11.169  0.0459  0.0648 -0.1169
   95loPI   PO4 1508  14.009  13.754  10.569 -0.4219 -0.2166 -0.0159
   95loPI   GL1 1509  14.000  13.864  10.188 -0.1128  0.2651 -0.1000
   95loPI   GL2 1510  14.219  13.496  10.085  0.0037  0.4088  0.1833
   95loPI   C1A 1511  13.838  13.760   9.810  0.0557 -0.2835  0.2011
   95loPI   C2A 1512  13.799  13.880   9.326  0.2544  0.2621  0.1662
   95loPI   C3A 1513  13.851  13.845   8.891 -0.0162 -0.2823 -0.2494
   95loPI   C4A 1514  14.142  13.901   8.473 -0.0131  0.2340  0.1631
   95loPI   C5A 1515  14.347  14.023   8.162 -0.0627 -0.1976  0.1232
   95loPI   C6A 1516  14.243  14.469   7.884 -0.1633 -0.0234 -0.2406
   95loPI   C1B 1517  14.155  13.460   9.578 -0.0018  0.3240  0.0096
   95loPI   C2B 1518  14.300  13.472   9.142 -0.1929 -0.0936  0.1442
   95loPI   C3B 1519  14.362  13.531   8.633  0.0029 -0.0888 -0.1328
   95loPI   C4B 1520  14.401  13.505   8.147  0.0198 -0.4475  0.2047
   96loPI    C1 1521   4.995   3.823  10.526  0.0340  0.3923  0.0350
   96loPI    C2 1522   4.968   3.972  10.896  0.0351 -0.1814  0.2747
   96loPI    C3 1523   5.266   3.722  10.802  0.0082 -0.0761 -0.1033
   96loPI   PO4 1524   5.018   3.960  10.365 -0.2309 -0.1939  0.4257
   96loPI   GL1 1525   4.886   4.169  10.060  0.1435  0.0797  0.0713
   96loPI   GL2 1526   4.669   4.277  10.034  0.2446 -0.1472 -0.2271
   96loPI   C1A 1527   5.088   4.322   9.631 -0.1079 -0.1302  0.0408
   96loPI   C2A 1528   5.071   4.186   9.174  0.0201 -0.0178 -0.0858
   96loPI   C3A 1529   5.007   3.904   8.801  0.0415 -0.1229 -0.0775
   96loPI   C4A 1530   5.062   3.976   8.437 -0.0717 -0.2217  0.0474
   96loPI   C5A 1531   5.070   3.758   8.015 -0.1936 -0.2627 -0.0511
   96loPI   C6A 1532   4.783   3.604   7.790 -0.1063 -0.0123 -0.0082
   96loPI   C1B 1533   4.598   4.257   9.622 -0.0814 -0.0377 -0.0456
   96loPI   C2B 1534   4.610   4.251   9.154 -0.1069 -0.2476  0.1855
   96loPI   C3B 1535   4.653   4.264   8.641 -0.2195 -0.2417  0.0282
   96loPI   C4B 1536   4.473   4.399   8.244  0.3176 -0.0581 -0.0006
   97loPI    C1 1537   3.167  15.315  10.841  0.1812  0.0828  0.0023
   97loPI    C2 1538   2.836  15.526  10.917  0.0844  0.0069 -0.2016
   97loPI    C3 1539   3.060  15.390  11.219 -0.0415  0.1034 -0.0633
   97loPI   PO4 1540   3.202  15.370  10.560  0.2573 -0.0083  0.0039
   97loPI   GL1 1541   3.182  15.380  10.186 -0.2511 -0.0392  0.2183
   97loPI   GL2 1542   3.045  15.068  10.055  0.1779 -0.0107  0.0039
   97loPI   C1A 1543   3.103  15.509   9.667 -0.1356  0.3926  0.3034
   97loPI   C2A 1544   2.989  15.484   9.270  0.1518  0.2530  0.3100
   97loPI   C3A 1545   3.040  15.437   8.905 -0.3731 -0.0467 -0.3698
   97loPI   C4A 1546   2.926  15.565   8.529 -0.0570  0.0956 -0.0841
   97loPI   C5A 1547   2.978  15.744   8.115 -0.0963  0.0774 -0.3077
   97loPI   C6A 1548   2.861  16.005   7.764 -0.1250  0.1838  0.0982
   97loPI   C1B 1549   2.885  15.011   9.669 -0.1117  0.0654 -0.1912
   97loPI   C2B 1550   2.878  14.972   9.234  0.2353 -0.0637  0.0742
   97loPI   C3B 1551   2.860  15.001   8.783 -0.0405  0.0659 -0.0646
   97loPI   C4B 1552   2.819  15.006   8.425  0.3589 -0.0483  0.2971
   98loPI    C1 1553  12.716   5.006  10.755 -0.2614  0.1123  0.0861
   98loPI    C2 1554  12.775   5.378  10.892  0.0974  0.1099 -0.0515
   98loPI    C3 1555  12.926   5.065  11.090 -0.1094  0.0432  0.0038
   98loPI   PO4 1556  12.759   4.971  10.543  0.1433 -0.4247  0.2075
   98loPI   GL1 1557  12.753   4.616  10.243 -0.0870 -0.0141  0.0857
   98loPI   GL2 1558  12.852   4.355  10.244  0.1251 -0.0592 -0.0516
   98loPI   C1A 1559  12.979   4.619   9.808  0.3081 -0.1109 -0.1333
   98loPI   C2A 1560  13.018   4.705   9.313  0.0678 -0.0285 -0.1010
   98loPI   C3A 1561  12.960   4.663   8.867 -0.2609  0.1162  0.1244
   98loPI   C4A 1562  12.895   4.450   8.476 -0.0908 -0.5496  0.0990
   98loPI   C5A 1563  12.826   4.628   8.092 -0.0197  0.3057  0.1694
   98loPI   C6A 1564  13.161   4.478   7.784  0.1431 -0.0261 -0.0254
   98loPI   C1B 1565  12.777   4.211   9.907 -0.0068 -0.2062 -0.1662
   98loPI   C2B 1566  12.903   4.154   9.453 -0.1103 -0.2575  0.3842
   98loPI   C3B 1567  12.875   4.088   9.010  0.1204  0.1740 -0.3245
   98loPI   C4B 1568  12.799   3.936   8.571  0.0810  0.0141 -0.0183
   99loPI    C1 1569  12.628  15.748  10.819 -0.2149 -0.2625 -0.0666
   99loPI    C2 1570  12.770  15.414  10.986 -0.0601 -0.1496  0.0298
   99loPI    C3 1571  12.723  15.744  11.207 -0.1253 -0.0809 -0.0857
   99loPI   PO4 1572  12.480  15.605  10.606 -0.3518 -0.1153 -0.0028
   99loPI   GL1 1573  12.600  15.359  10.105 -0.0027 -0.0111 -0.3597
   99loPI   GL2 1574  12.342  15.518  10.108  0.4445  0.2095 -0.1813
   99loPI   C1A 1575  12.848  15.461   9.786  0.1110 -0.0568 -0.3167
   99loPI   C2A 1576  13.027  15.433   9.417  0.0499 -0.1802 -0.0800
   99loPI   C3A 1577  12.994  15.366   8.945  0.0857  0.0482  0.1163
   99loPI   C4A 1578  13.061  15.447   8.448 -0.1535 -0.1392 -0.0644
   99loPI   C5A 1579  12.872  15.313   8.057  0.1496 -0.0843  0.3493
   99loPI   C6A 1580  12.717  15.095   7.763 -0.0178 -0.1815  0.0632
   99loPI   C1B 1581  12.340  15.374   9.634  0.1215 -0.1174 -0.0148
   99loPI   C2B 1582  12.394  15.181   9.271 -0.1064 -0.2681 -0.2166
   99loPI   C3B 1583  12.517  15.259   8.796  0.1341 -0.2519  0.0682
   99loPI   C4B 1584  12.390  15.263   8.389  0.2110  0.0334  0.1163
  100loPI    C1 1585   7.790  14.945  10.431  0.1100 -0.0546  0.1027
  100loPI    C2 1586   8.103  14.780  10.618  0.0204 -0.0130  0.2907
  100loPI    C3 1587   7.733  14.729  10.762 -0.0659 -0.1025  0.0422
  100loPI   PO4 1588   7.954  14.874  10.139 -0.1130  0.1278 -0.1612
  100loPI   GL1 1589   8.136  15.005   9.714 -0.3820  0.5210  0.0830
  100loPI   GL2 1590   8.209  14.785   9.535 -0.1550 -0.0907  0.0648
  100loPI   C1A 1591   7.840  15.249   9.460 -0.0228  0.0762  0.0318
  100loPI   C2A 1592   7.755  15.364   9.110 -0.0249 -0.3073 -0.3463
  100loPI   C3A 1593   7.700  15.548   8.701 -0.1899  0.2980  0.0612
  100loPI   C4A 1594   7.707  15.465   8.306 -0.1869 -0.0265  0.1460
  100loPI   C5A 1595   7.381  15.303   8.044 -0.4899  0.0961  0.0498
  100loPI   C6A 1596   7.031  15.390   7.961  0.0079 -0.1478  0.2292
  100loPI   C1B 1597   8.179  15.009   9.134 -0.0690 -0.0981  0.3101
  100loPI   C2B 1598   8.028  15.107   8.780  0.0265  0.5392  0.1603
  100loPI   C3B 1599   8.052  15.046   8.312  0.2521 -0.1677 -0.0078
  100loPI   C4B 1600   7.928  15.149   7.887  0.3541  0.1805 -0.0640
  101loPI    C1 1601   6.531  11.528  10.494  0.1167  0.2469  0.0529
  101loPI    C2 1602   6.712  11.778  10.749 -0.1678  0.1269  0.3801
  101loPI    C3 1603   6.427  11.530  10.880 -0.2782  0.0195 -0.0471
  101loPI   PO4 1604   6.649  11.576  10.255  0.1574 -0.2125  0.4142
  101loPI   GL1 1605   6.571  11.843   9.861 -0.0373 -0.1911 -0.0681
  101loPI   GL2 1606   6.410  11.639   9.646 -0.2426  0.0541 -0.0170
  101loPI   C1A 1607   6.604  12.039   9.540  0.1794 -0.2655  0.0421
  101loPI   C2A 1608   6.596  12.466   9.483 -0.1686 -0.1560  0.1689
  101loPI   C3A 1609   6.454  12.729   9.080  0.0274  0.0078 -0.3881
  101loPI   C4A 1610   6.478  12.782   8.613  0.3361  0.2197 -0.1415
  101loPI   C5A 1611   6.290  12.690   8.254  0.0370  0.1779  0.0546
  101loPI   C6A 1612   6.195  12.391   8.089  0.2084 -0.2973 -0.0522
  101loPI   C1B 1613   6.360  11.444   9.214  0.3886 -0.1439 -0.0776
  101loPI   C2B 1614   6.282  11.437   8.804  0.0114 -0.4079 -0.1179
  101loPI   C3B 1615   6.398  11.800   8.552  0.2644 -0.1689  0.0065
  101loPI   C4B 1616   6.292  11.924   8.186 -0.2416 -0.3255 -0.1122
  102loPI    C1 1617   3.566   0.324  10.728  0.0080 -0.2185  0.2177
  102loPI    C2 1618   3.460   0.487  11.077  0.1715  0.3346  0.0193
  102loPI    C3 1619   3.714   0.680  10.836 -0.0031 -0.0001 -0.4450
  102loPI   PO4 1620   3.393   0.234  10.622  0.2949 -0.1815  0.1472
  102loPI   GL1 1621   3.021   0.109  10.450  0.1744 -0.0101 -0.0233
  102loPI   GL2 1622   3.245  -0.059  10.275 -0.0094 -0.2010  0.2391
  102loPI   C1A 1623   2.991   0.292  10.030  0.2894  0.0532  0.2230
  102loPI   C2A 1624   2.876   0.276   9.536  0.3468  0.0102 -0.0055
  102loPI   C3A 1625   2.917   0.378   9.161 -0.0125  0.4234 -0.0595
  102loPI   C4A 1626   2.901   0.372   8.653 -0.0709  0.1125  0.1369
  102loPI   C5A 1627   2.984   0.209   8.244 -0.5778  0.2931 -0.4552
  102loPI   C6A 1628   2.919  -0.177   7.902  0.0808  0.0595  0.0292
  102loPI   C1B 1629   3.287   0.030   9.740  0.2787  0.0747 -0.0348
  102loPI   C2B 1630   3.287   0.057   9.269  0.0162 -0.1848  0.1734
  102loPI   C3B 1631   3.246   0.024   8.795 -0.2375  0.1870  0.4399
  102loPI   C4B 1632   3.475   0.159   8.424  0.1614 -0.1080 -0.1775
  103loPI    C1 1633   6.901  10.735  10.129  0.1859  0.0192 -0.0185
  103loPI    C2 1634   6.846  11.090  10.304  0.0653  0.0785 -0.1739
  103loPI    C3 1635   6.951  10.773  10.524  0.1223  0.1981 -0.0268
  103loPI   PO4 1636   6.691  10.766   9.912  0.0897  0.0241 -0.0810
  103loPI   GL1 1637   6.626  11.072   9.460  0.0797  0.0940  0.1371
  103loPI   GL2 1638   6.994  11.021   9.311  0.0817 -0.0092 -0.3908
  103loPI   C1A 1639   6.205  11.009   9.089 -0.2222 -0.0798  0.3645
  103loPI   C2A 1640   5.948  11.067   8.668  0.4470  0.0459  0.1546
  103loPI   C3A 1641   5.699  10.844   8.371  0.0804 -0.0216  0.2344
  103loPI   C4A 1642   5.530  10.617   7.982  0.0034  0.0921 -0.1959
  103loPI   C5A 1643   5.246  10.334   7.676 -0.0005 -0.1419  0.0404
  103loPI   C6A 1644   4.987  10.011   7.491  0.1537  0.1241  0.0385
  103loPI   C1B 1645   6.697  10.978   8.915 -0.0328  0.1406 -0.0684
  103loPI   C2B 1646   6.434  11.004   8.557  0.1277  0.1032  0.0086
  103loPI   C3B 1647   6.333  11.429   8.246  0.0033  0.1348 -0.0598
  103loPI   C4B 1648   6.376  11.546   7.846 -0.0603 -0.0839 -0.0835
  104loPI    C1 1649  13.775  11.921  10.544 -0.1066 -0.3192  0.1254
  104loPI    C2 1650  13.506  12.136  10.747  0.0152  0.0477 -0.0925
  104loPI    C3 1651  13.719  11.854  10.934 -0.1709  0.0911  0.1908
  104loPI   PO4 1652  13.841  12.138  10.325 -0.3066 -0.0033 -0.0835
  104loPI   GL1 1653  13.730  12.178   9.880  0.0200 -0.0115 -0.0539
  104loPI   GL2 1654  13.813  12.480   9.936  0.0621  0.0697 -0.1026
  104loPI   C1A 1655  13.894  12.118   9.474  0.0628 -0.1171 -0.2709
  104loPI   C2A 1656  14.247  12.159   9.298  0.2175 -0.0175 -0.2269
  104loPI   C3A 1657  14.445  12.152   8.903 -0.1243 -0.0141 -0.0330
  104loPI   C4A 1658  14.523  12.175   8.468 -0.0131 -0.2534 -0.1083
  104loPI   C5A 1659  14.527  12.194   8.046  0.2038 -0.3445 -0.3372
  104loPI   C6A 1660  14.247  12.001   7.747 -0.3728 -0.1304  0.1149
  104loPI   C1B 1661  13.862  12.602   9.501 -0.0762 -0.0312  0.1521
  104loPI   C2B 1662  14.032  12.537   9.103  0.0887 -0.3139 -0.2466
  104loPI   C3B 1663  14.149  12.546   8.659 -0.1059 -0.2069  0.1057
  104loPI   C4B 1664  14.087  12.539   8.300  0.0171  0.2228  0.0835
  105loPI    C1 1665   5.410   4.842  10.484  0.1003 -0.0617 -0.0035
  105loPI    C2 1666   5.458   5.044  10.826  0.2745 -0.0661 -0.0244
  105loPI    C3 1667   5.691   4.729  10.745 -0.0274 -0.3083  0.0300
  105loPI   PO4 1668   5.277   5.053  10.366  0.0406 -0.1965  0.0792
  105loPI   GL1 1669   5.096   5.230   9.998  0.1043  0.0188 -0.2269
  105loPI   GL2 1670   4.915   5.556   9.922 -0.1654 -0.0201 -0.0935
  105loPI   C1A 1671   4.941   5.224   9.477 -0.0956 -0.3181  0.1406
  105loPI   C2A 1672   4.860   5.159   9.038 -0.0702 -0.1669 -0.1003
  105loPI   C3A 1673   4.808   5.217   8.607  0.1861  0.0500  0.1935
  105loPI   C4A 1674   4.869   5.328   8.156 -0.3382  0.1252  0.0822
  105loPI   C5A 1675   4.863   5.567   7.739  0.2189  0.0157 -0.0468
  105loPI   C6A 1676   5.061   5.705   7.449  0.6415  0.2550  0.3257
  105loPI   C1B 1677   4.587   5.739   9.698  0.1481 -0.0522 -0.2793
  105loPI   C2B 1678   4.566   5.636   9.266 -0.0493 -0.1643  0.0080
  105loPI   C3B 1679   4.511   5.544   8.767  0.3017  0.1552 -0.0571
  105loPI   C4B 1680   4.452   5.635   8.224 -0.0611 -0.1788  0.2569
  106loPI    C1 1681   5.181   2.058  10.974 -0.2694 -0.0330  0.1022
  106loPI    C2 1682   5.499   2.031  11.215  0.0304  0.0131 -0.2780
  106loPI    C3 1683   5.193   2.269  11.313  0.1261 -0.0035  0.0745
  106loPI   PO4 1684   5.182   1.809  10.817 -0.1435  0.0729 -0.1417
  106loPI   GL1 1685   5.257   1.764  10.361 -0.3276 -0.2976  0.0637
  106loPI   GL2 1686   5.044   1.457  10.167 -0.1345 -0.2704 -0.2463
  106loPI   C1A 1687   5.180   1.888   9.904 -0.1295 -0.1423 -0.1819
  106loPI   C2A 1688   5.045   1.949   9.506  0.0351 -0.2255  0.0716
  106loPI   C3A 1689   5.059   1.964   9.038  0.3014 -0.1077 -0.0002
  106loPI   C4A 1690   5.079   2.005   8.600  0.1704  0.0745  0.1615
  106loPI   C5A 1691   4.723   2.053   8.394  0.1148 -0.1145  0.1376
  106loPI   C6A 1692   4.501   2.468   8.404 -0.1743 -0.1334 -0.0099
  106loPI   C1B 1693   4.975   1.397   9.746 -0.3454 -0.0376  0.3706
  106loPI   C2B 1694   4.953   1.439   9.327 -0.1850 -0.2311 -0.2827
  106loPI   C3B 1695   4.903   1.370   8.897  0.2193  0.1836 -0.0477
  106loPI   C4B 1696   4.947   1.342   8.480  0.4189  0.1292  0.3577
  107loPI    C1 1697  12.609   6.869  10.453  0.0476  0.1383 -0.1018
  107loPI    C2 1698  12.723   7.239  10.553  0.1922  0.0723 -0.0179
  107loPI    C3 1699  12.594   6.987  10.835  0.0818  0.0622 -0.0766
  107loPI   PO4 1700  12.762   6.892  10.207 -0.2420 -0.3489 -0.3550
  107loPI   GL1 1701  12.877   7.019   9.742  0.3309  0.2690 -0.0145
  107loPI   GL2 1702  12.570   6.848   9.700  0.1192  0.1059  0.0165
  107loPI   C1A 1703  13.085   7.052   9.328 -0.1132  0.0353 -0.0319
  107loPI   C2A 1704  13.142   7.073   8.883 -0.1439  0.2016  0.0746
  107loPI   C3A 1705  13.221   7.040   8.530 -0.0990  0.2331 -0.0930
  107loPI   C4A 1706  13.294   6.911   8.190 -0.2699 -0.0771 -0.2004
  107loPI   C5A 1707  13.431   7.086   7.950  0.1331 -0.0792 -0.0702
  107loPI   C6A 1708  13.553   6.949   7.555 -0.0428  0.2629  0.0761
  107loPI   C1B 1709  12.524   6.924   9.282 -0.2625  0.2096 -0.2791
  107loPI   C2B 1710  12.653   7.072   8.925 -0.1550 -0.0905  0.1445
  107loPI   C3B 1711  12.809   7.308   8.541  0.0012  0.0913  0.2712
  107loPI   C4B 1712  12.907   7.700   8.392  0.2891 -0.0316 -0.0797
  108loPI    C1 1713  14.156   4.870  11.277  0.0917 -0.2358 -0.1531
  108loPI    C2 1714  14.300   4.601  11.535  0.3265 -0.0357 -0.0717
  108loPI    C3 1715  14.360   4.991  11.599  0.1457  0.0287 -0.2844
  108loPI   PO4 1716  14.225   4.685  11.018 -0.0071  0.1374 -0.0467
  108loPI   GL1 1717  13.994   4.590  10.685 -0.2231  0.1828  0.0772
  108loPI   GL2 1718  14.230   4.405  10.439  0.2076  0.0823  0.1266
  108loPI   C1A 1719  13.798   4.567  10.312 -0.1283 -0.2008 -0.1038
  108loPI   C2A 1720  13.880   4.539   9.840 -0.1708  0.0797 -0.0720
  108loPI   C3A 1721  13.746   4.407   9.385  0.1935  0.3420 -0.1147
  108loPI   C4A 1722  13.802   4.413   8.865  0.1595 -0.0687  0.0182
  108loPI   C5A 1723  13.687   4.286   8.384  0.0083  0.0556  0.0293
  108loPI   C6A 1724  13.558   4.615   8.041 -0.1833  0.0608 -0.2476
  108loPI   C1B 1725  14.173   4.192  10.122 -0.0042 -0.1664  0.1612
  108loPI   C2B 1726  14.179   4.108   9.624  0.1743 -0.0367  0.1976
  108loPI   C3B 1727  14.266   4.063   9.242 -0.3507  0.4483  0.2639
  108loPI   C4B 1728  14.117   4.049   8.724  0.1243 -0.0421 -0.1507
  109loPI    C1 1729  13.501   8.597  10.734 -0.2190 -0.0973 -0.3524
  109loPI    C2 1730  13.559   8.321  11.017 -0.0231  0.2293 -0.0654
  109loPI    C3 1731  13.192   8.469  10.955 -0.0815  0.0971 -0.0406
  109loPI   PO4 1732  13.587   8.475  10.475 -0.0154  0.3645 -0.1359
  109loPI   GL1 1733  13.677   8.527  10.058 -0.0193 -0.3743  0.0731
  109loPI   GL2 1734  13.242   8.554  10.007  0.2031 -0.1866 -0.1214
  109loPI   C1A 1735  13.740   8.194   9.691  0.1451 -0.0675 -0.2420
  109loPI   C2A 1736  13.704   8.183   9.280 -0.1509  0.1280  0.2318
  109loPI   C3A 1737  13.850   8.278   8.851  0.1980  0.1208  0.2828
  109loPI   C4A 1738  14.023   8.301   8.396 -0.3153  0.0181  0.3392
  109loPI   C5A 1739  14.254   8.113   7.893  0.0829  0.0269  0.1123
  109loPI   C6A 1740  14.527   8.273   7.641 -0.2432  0.2360  0.1353
  109loPI   C1B 1741  13.347   8.431   9.562  0.3362  0.0301  0.2536
  109loPI   C2B 1742  13.486   8.576   9.124  0.0998 -0.0109  0.2103
  109loPI   C3B 1743  13.526   8.763   8.655  0.1020 -0.4472  0.1132
  109loPI   C4B 1744  13.630   8.624   8.326  0.1934  0.2546  0.0726
  110loPI    C1 1745  11.142   7.274  10.297 -0.1620  0.0309 -0.0178
  110loPI    C2 1746  10.976   7.402  10.637 -0.1509  0.0103 -0.0046
  110loPI    C3 1747  11.301   7.170  10.649 -0.1270  0.0424 -0.0302
  110loPI   PO4 1748  10.948   7.186  10.181 -0.3854  0.0899 -0.1794
  110loPI   GL1 1749  10.920   7.031   9.844 -0.1937 -0.3896 -0.0525
  110loPI   GL2 1750  10.697   7.339   9.769  0.2685  0.1708  0.2573
  110loPI   C1A 1751  11.061   6.745   9.497 -0.0893  0.2161 -0.1038
  110loPI   C2A 1752  11.003   6.551   9.025  0.0203 -0.3235  0.1497
  110loPI   C3A 1753  10.980   6.512   8.603  0.3759 -0.0647 -0.0836
  110loPI   C4A 1754  11.149   6.497   8.245  0.0948 -0.2681 -0.0186
  110loPI   C5A 1755  11.077   6.619   7.732  0.2460 -0.0163 -0.2528
  110loPI   C6A 1756  11.205   6.188   7.432  0.2654 -0.0361  0.2097
  110loPI   C1B 1757  10.629   6.979   9.475  0.0621  0.1122 -0.0285
  110loPI   C2B 1758  10.648   6.939   9.068  0.0253  0.1980  0.0217
  110loPI   C3B 1759  10.681   6.948   8.585 -0.2396 -0.0242 -0.1662
  110loPI   C4B 1760  10.491   7.008   8.228  0.4740 -0.2245 -0.2028
  111loPI    C1 1761  11.229  10.474  10.228  0.1453  0.1777 -0.0225
  111loPI    C2 1762  11.405  10.740  10.469  0.5393  0.0917 -0.2074
  111loPI    C3 1763  11.343  10.366  10.595 -0.0083  0.2590  0.0501
  111loPI   PO4 1764  11.413  10.529  10.014 -0.0170 -0.1763 -0.1009
  111loPI   GL1 1765  11.423  10.125   9.716  0.1447  0.1183 -0.1348
  111loPI   GL2 1766  11.470   9.913   9.622 -0.2074  0.0818 -0.1689
  111loPI   C1A 1767  11.443  10.419   9.292 -0.2388 -0.1672 -0.2849
  111loPI   C2A 1768  11.344  10.678   8.908  0.0895  0.1934 -0.0152
  111loPI   C3A 1769  11.474  10.640   8.428 -0.0021  0.1168  0.1746
  111loPI   C4A 1770  11.276  10.645   7.973 -0.0875  0.0175 -0.1634
  111loPI   C5A 1771  11.363  10.686   7.549  0.0727 -0.3036 -0.1098
  111loPI   C6A 1772  11.681  10.949   7.232 -0.2255 -0.2529  0.3022
  111loPI   C1B 1773  11.327   9.925   9.204  0.0627  0.3784  0.0209
  111loPI   C2B 1774  11.196  10.155   8.733 -0.1283  0.0986 -0.1900
  111loPI   C3B 1775  11.035  10.314   8.415  0.1428 -0.0988  0.2543
  111loPI   C4B 1776  10.864  10.357   8.025 -0.0177 -0.0357  0.1127
  112loPI    C1 1777  18.104   2.499  11.017 -0.1083  0.0242  0.2279
  112loPI    C2 1778  18.003   2.767  11.296 -0.1224  0.1115  0.1396
  112loPI    C3 1779  18.349   2.804  11.100 -0.2780  0.2592 -0.1125
  112loPI   PO4 1780  17.924   2.516  10.815  0.0970  0.1589  0.3071
  112loPI   GL1 1781  17.877   2.834  10.377  0.2028 -0.1536 -0.1097
  112loPI   GL2 1782  17.702   3.021  10.373  0.4748  0.2141 -0.1556
  112loPI   C1A 1783  18.038   2.704   9.986 -0.1744  0.0111  0.1655
  112loPI   C2A 1784  18.174   2.758   9.540  0.0437  0.0433  0.2117
  112loPI   C3A 1785  18.083   2.727   9.097 -0.1651  0.1419  0.0755
  112loPI   C4A 1786  18.120   2.823   8.645 -0.1784  0.4086 -0.3990
  112loPI   C5A 1787  18.242   2.646   8.148  0.2479 -0.0127 -0.0509
  112loPI   C6A 1788  18.525   2.734   7.758 -0.1264 -0.3095  0.0077
  112loPI   C1B 1789  17.659   3.077   9.967 -0.3053 -0.1664 -0.1199
  112loPI   C2B 1790  17.652   3.158   9.502  0.0156  0.0302  0.1033
  112loPI   C3B 1791  17.778   3.225   9.127  0.3622  0.2797  0.1329
  112loPI   C4B 1792  17.690   3.133   8.729  0.1531  0.0681  0.2275
  113loPI    C1 1793  10.012  11.781  10.208  0.1765 -0.0031  0.0335
  113loPI    C2 1794  10.406  11.838  10.169  0.1034  0.4272 -0.1263
  113loPI    C3 1795  10.199  12.051  10.436  0.0524 -0.1480  0.3117
  113loPI   PO4 1796  10.025  11.686   9.948  0.1444 -0.1040 -0.3954
  113loPI   GL1 1797   9.782  11.773   9.608 -0.0356  0.1510 -0.1503
  113loPI   GL2 1798  10.170  11.930   9.494  0.1312  0.1902  0.1667
  113loPI   C1A 1799   9.867  11.935   9.119  0.0014  0.0830  0.1262
  113loPI   C2A 1800   9.751  12.027   8.759 -0.0153  0.0425  0.0586
  113loPI   C3A 1801   9.744  11.986   8.364  0.1334  0.0052  0.0054
  113loPI   C4A 1802   9.993  11.986   8.074 -0.0464  0.1426 -0.1392
  113loPI   C5A 1803  10.431  11.847   7.933  0.2163  0.2318  0.2881
  113loPI   C6A 1804  10.447  11.745   7.506 -0.0410  0.4230  0.2917
  113loPI   C1B 1805  10.457  11.669   9.266  0.1452  0.0618  0.1432
  113loPI   C2B 1806  10.407  11.635   8.809  0.0808  0.3664  0.2755
  113loPI   C3B 1807  10.334  11.931   8.435 -0.3130  0.0477 -0.2358
  113loPI   C4B 1808  10.581  12.339   8.360 -0.2280  0.0424 -0.0053
  114loPI    C1 1809  14.021  10.018  10.737  0.0019  0.0003  0.0492
  114loPI    C2 1810  13.966  10.381  10.896  0.0997  0.0941 -0.1287
  114loPI    C3 1811  13.931  10.055  11.125 -0.1115  0.2082  0.0046
  114loPI   PO4 1812  13.915  10.047  10.583 -0.1967 -0.2265  0.0632
  114loPI   GL1 1813  13.833   9.846  10.177  0.2577  0.0730  0.0301
  114loPI   GL2 1814  14.131   9.897  10.006  0.0037 -0.0955  0.1104
  114loPI   C1A 1815  13.739   9.625   9.771  0.1862  0.0725  0.0253
  114loPI   C2A 1816  13.838   9.579   9.416  0.1443 -0.1748 -0.0532
  114loPI   C3A 1817  13.904   9.668   9.073 -0.5434 -0.0091  0.1843
  114loPI   C4A 1818  13.811   9.736   8.664  0.3008 -0.2447  0.0490
  114loPI   C5A 1819  13.914   9.635   8.202  0.0196 -0.2217 -0.1258
  114loPI   C6A 1820  13.895   9.584   7.806 -0.0705  0.0125  0.2198
  114loPI   C1B 1821  14.092  10.183   9.625  0.4261 -0.1022  0.2531
  114loPI   C2B 1822  14.057  10.187   9.078 -0.0509 -0.0482 -0.0316
  114loPI   C3B 1823  14.085  10.231   8.630  0.3747 -0.0818 -0.2603
  114loPI   C4B 1824  14.120  10.141   8.160  0.1825  0.0008 -0.0338
  115loPI    C1 1825  12.079  10.782  10.142 -0.1578  0.2550  0.2414
  115loPI    C2 1826  11.967  11.054   9.871 -0.2459  0.0576  0.0769
  115loPI    C3 1827  11.704  10.922  10.142 -0.3228 -0.1630 -0.1018
  115loPI   PO4 1828  12.421  10.897  10.103  0.2637  0.0076 -0.0825
  115loPI   GL1 1829  12.619  10.955   9.727 -0.2970  0.2206  0.4511
  115loPI   GL2 1830  12.372  11.190   9.664 -0.1293  0.0859 -0.1881
  115loPI   C1A 1831  12.620  10.717   9.333 -0.0890  0.2227  0.1891
  115loPI   C2A 1832  12.608  10.787   8.835  0.5023 -0.2222 -0.3862
  115loPI   C3A 1833  12.496  10.790   8.495  0.2142  0.0423  0.2154
  115loPI   C4A 1834  12.245  10.805   8.093  0.0025  0.1818  0.1837
  115loPI   C5A 1835  12.250  10.441   7.819  0.1537  0.0748  0.0891
  115loPI   C6A 1836  12.594  10.186   7.774  0.1118  0.0270  0.0036
  115loPI   C1B 1837  12.254  11.041   9.237  0.0954  0.2033  0.1565
  115loPI   C2B 1838  12.215  11.146   8.780 -0.1008  0.1513 -0.4431
  115loPI   C3B 1839  12.224  11.284   8.363  0.0804  0.1337  0.1529
  115loPI   C4B 1840  12.158  11.277   7.956 -0.0414  0.1112 -0.1134
  116loPI    C1 1841   0.097   0.590  11.117 -0.0642  0.0473 -0.0440
  116loPI    C2 1842  -0.213   0.417  11.301 -0.0456  0.0423 -0.0176
  116loPI    C3 1843   0.153   0.397  11.462 -0.0420  0.0995 -0.0184
  116loPI   PO4 1844   0.119   0.507  10.878 -0.1152 -0.2269 -0.0261
  116loPI   GL1 1845   0.304   0.697  10.465  0.1882  0.1775 -0.0206
  116loPI   GL2 1846   0.457   0.918  10.590 -0.1149  0.1951 -0.1056
  116loPI   C1A 1847   0.124   0.545  10.075  0.1349  0.0630  0.2169
  116loPI   C2A 1848   0.111   0.597   9.608  0.1748  0.0198 -0.1056
  116loPI   C3A 1849   0.147   0.562   9.203  0.0610 -0.0568  0.0951
  116loPI   C4A 1850   0.180   0.571   8.738  0.0172 -0.3733  0.0128
  116loPI   C5A 1851   0.111   0.398   8.374 -0.3621  0.0531  0.0112
  116loPI   C6A 1852   0.014   0.092   8.027  0.1334  0.0651 -0.1616
  116loPI   C1B 1853   0.352   1.058  10.137  0.2176  0.0004 -0.0184
  116loPI   C2B 1854   0.243   1.076   9.705  0.2702 -0.3357  0.1534
  116loPI   C3B 1855   0.296   1.067   9.386  0.0535  0.0865 -0.1076
  116loPI   C4B 1856   0.284   1.032   8.927  0.0151 -0.2924  0.1474
  117loPI    C1 1857   4.577   8.156  10.666 -0.0257  0.3580 -0.1044
  117loPI    C2 1858   4.916   8.169  10.878  0.0051  0.0152 -0.1273
  117loPI    C3 1859   4.566   8.246  11.056  0.0471 -0.1101  0.0122
  117loPI   PO4 1860   4.735   8.229  10.414  0.1667  0.2556  0.1251
  117loPI   GL1 1861   4.799   8.045  10.090  0.0241  0.0686 -0.1876
  117loPI   GL2 1862   4.430   8.268   9.930  0.3519  0.2828 -0.2159
  117loPI   C1A 1863   4.753   8.068   9.671  0.0816  0.2148  0.1097
  117loPI   C2A 1864   4.631   7.957   9.243  0.0556  0.0076 -0.1880
  117loPI   C3A 1865   4.518   7.916   8.793  0.3025 -0.1386 -0.1491
  117loPI   C4A 1866   4.363   8.010   8.375  0.2094  0.3231 -0.1592
  117loPI   C5A 1867   3.848   7.990   8.141  0.1034 -0.1981 -0.0370
  117loPI   C6A 1868   3.708   7.945   7.809  0.1578 -0.0861 -0.0709
  117loPI   C1B 1869   4.336   8.392   9.555  0.2353 -0.1296  0.0696
  117loPI   C2B 1870   4.226   8.372   9.227 -0.0536 -0.0741  0.3301
  117loPI   C3B 1871   4.189   8.325   8.763  0.0451 -0.1793  0.0046
  117loPI   C4B 1872   4.212   8.433   8.206 -0.1749 -0.2732 -0.4880
  118loPI    C1 1873  12.453   3.984  10.765 -0.0422  0.0014 -0.2505
  118loPI    C2 1874  12.711   3.876  11.052  0.0143  0.3566 -0.1633
  118loPI    C3 1875  12.326   3.774  11.081  0.1012  0.0077 -0.1878
  118loPI   PO4 1876  12.599   3.968  10.496  0.1479 -0.2828 -0.2287
  118loPI   GL1 1877  12.637   3.822  10.105 -0.1266 -0.0135 -0.1058
  118loPI   GL2 1878  12.858   3.524  10.119  0.1008 -0.1498  0.0734
  118loPI   C1A 1879  12.572   3.667   9.646  0.2513  0.1660 -0.1052
  118loPI   C2A 1880  12.759   3.612   9.254  0.3164 -0.0665  0.0686
  118loPI   C3A 1881  12.789   3.539   8.907  0.1668 -0.3011 -0.0125
  118loPI   C4A 1882  12.786   3.457   8.495 -0.1460  0.0454  0.1206
  118loPI   C5A 1883  13.020   3.321   8.154 -0.0545 -0.1699 -0.3352
  118loPI   C6A 1884  13.196   3.622   7.799 -0.3175 -0.0973 -0.0456
  118loPI   C1B 1885  13.044   3.234   9.821 -0.2969  0.1087  0.0712
  118loPI   C2B 1886  13.109   3.305   9.417 -0.0530 -0.2148 -0.0275
  118loPI   C3B 1887  13.180   3.273   9.017 -0.1387  0.0978 -0.0117
  118loPI   C4B 1888  13.206   3.153   8.607  0.0724 -0.5041 -0.0197
  119loPI    C1 1889   8.924   2.875  10.379  0.0895  0.3488  0.1740
  119loPI    C2 1890   8.920   2.478  10.420  0.1004  0.2883 -0.3485
  119loPI    C3 1891   8.740   2.708  10.693 -0.0704 -0.0828 -0.1403
  119loPI   PO4 1892   9.147   2.889  10.185 -0.1088 -0.0204 -0.1387
  119loPI   GL1 1893   9.358   2.802   9.805  0.0905 -0.4003 -0.0407
  119loPI   GL2 1894   9.219   2.462   9.712 -0.0097  0.2041  0.2549
  119loPI   C1A 1895   9.565   2.758   9.432  0.3898 -0.3189 -0.0461
  119loPI   C2A 1896   9.670   2.735   9.038  0.0705  0.3579  0.1649
  119loPI   C3A 1897   9.639   2.766   8.602  0.1904 -0.1114  0.4119
  119loPI   C4A 1898   9.524   3.010   8.279 -0.0520 -0.3282 -0.1817
  119loPI   C5A 1899   9.737   3.209   7.906 -0.1074  0.0380 -0.1700
  119loPI   C6A 1900   9.814   3.044   7.448 -0.0153 -0.2213  0.2337
  119loPI   C1B 1901   9.530   2.253   9.308  0.1360 -0.4861  0.2369
  119loPI   C2B 1902   9.513   2.183   8.899  0.0855  0.0182  0.0563
  119loPI   C3B 1903   9.493   2.290   8.473 -0.0051  0.2996 -0.0217
  119loPI   C4B 1904   9.382   2.511   8.239  0.0784 -0.0674 -0.3747
  120loPI    C1 1905  16.227  16.886  11.118 -0.0238  0.0985 -0.0850
  120loPI    C2 1906  16.177  16.765  11.496 -0.0173  0.3262 -0.0094
  120loPI    C3 1907  16.358  17.113  11.421  0.3801  0.0783 -0.2387
  120loPI   PO4 1908  16.326  16.669  10.967 -0.2741  0.0458 -0.0007
  120loPI   GL1 1909  16.292  16.586  10.549 -0.1400 -0.0083  0.0410
  120loPI   GL2 1910  16.000  16.363  10.356 -0.0986 -0.0676 -0.1085
  120loPI   C1A 1911  16.147  16.793  10.167  0.1632  0.1013 -0.0821
  120loPI   C2A 1912  16.101  16.822   9.775 -0.1381  0.1780 -0.1815
  120loPI   C3A 1913  16.100  16.859   9.370 -0.2967 -0.2886 -0.0110
  120loPI   C4A 1914  16.020  16.866   8.944  0.1217 -0.2510 -0.0733
  120loPI   C5A 1915  16.047  16.780   8.592 -0.1031  0.0308 -0.2184
  120loPI   C6A 1916  16.085  16.855   8.158 -0.1517  0.0009  0.0727
  120loPI   C1B 1917  15.988  16.307   9.849 -0.2578  0.1462  0.0888
  120loPI   C2B 1918  15.948  16.323   9.403 -0.2653 -0.0535 -0.1149
  120loPI   C3B 1919  15.984  16.382   8.983 -0.1620  0.0478  0.1585
  120loPI   C4B 1920  15.882  16.282   8.605 -0.1715 -0.0754 -0.1066
  121loPI    C1 1921  16.837  18.268  10.683 -0.0732  0.0064  0.0052
  121loPI    C2 1922  16.710  18.389  11.042 -0.0496  0.1576 -0.0367
  121loPI    C3 1923  16.604  18.029  10.904  0.0520  0.0427  0.1786
  121loPI   PO4 1924  16.781  18.519  10.526  0.0399 -0.0298  0.0036
  121loPI   GL1 1925  16.934  18.720  10.227 -0.3847  0.1833  0.1050
  121loPI   GL2 1926  17.229  18.873  10.322 -0.1122  0.0693  0.1389
  121loPI   C1A 1927  16.973  18.459   9.835  0.1843  0.1482  0.1071
  121loPI   C2A 1928  16.919  18.499   9.219  0.1104  0.1933  0.1152
  121loPI   C3A 1929  16.891  18.509   8.695 -0.0208 -0.0479 -0.0717
  121loPI   C4A 1930  16.944  18.718   8.428 -0.1482 -0.1002  0.2241
  121loPI   C5A 1931  16.963  18.431   8.054 -0.1141 -0.0601 -0.2450
  121loPI   C6A 1932  16.609  18.173   8.166 -0.1121  0.0427  0.0714
  121loPI   C1B 1933  17.093  18.972   9.802  0.1919  0.1502  0.1251
  121loPI   C2B 1934  17.149  19.005   9.447  0.1864  0.1327 -0.0013
  121loPI   C3B 1935  17.078  18.941   9.026  0.0081  0.0128 -0.0586
  121loPI   C4B 1936  17.062  19.077   8.686  0.0085 -0.3215 -0.4147
  122loPI    C1 1937   3.547   1.682  11.177 -0.1481  0.0990  0.2705
  122loPI    C2 1938   3.512   1.374  11.429 -0.0801 -0.0026  0.1564
  122loPI    C3 1939   3.827   1.619  11.455  0.0902 -0.1967 -0.0277
  122loPI   PO4 1940   3.475   1.621  10.933 -0.0929  0.1461  0.0329
  122loPI   GL1 1941   3.576   1.330  10.672  0.2473 -0.1328  0.1481
  122loPI   GL2 1942   3.846   1.147  10.608 -0.0021  0.1606 -0.1291
  122loPI   C1A 1943   3.501   1.175  10.234 -0.0434 -0.3703  0.0480
  122loPI   C2A 1944   3.563   1.062   9.807  0.0978  0.0543 -0.4747
  122loPI   C3A 1945   3.470   1.013   9.519  0.0738 -0.3046  0.2937
  122loPI   C4A 1946   3.515   0.957   9.116  0.1694  0.0351  0.0831
  122loPI   C5A 1947   3.494   1.114   8.697  0.0248 -0.0518  0.1621
  122loPI   C6A 1948   3.785   1.206   8.513 -0.2276 -0.0353  0.1688
  122loPI   C1B 1949   4.042   1.229  10.178  0.0785 -0.1952 -0.2856
  122loPI   C2B 1950   4.016   1.208   9.697 -0.0513  0.1225 -0.0286
  122loPI   C3B 1951   3.925   1.124   9.327  0.1054  0.0157  0.0331
  122loPI   C4B 1952   4.086   1.116   8.946  0.2084  0.0547 -0.1898
  123loPI    C1 1953   0.207   5.739  10.935  0.1501 -0.0222 -0.1289
  123loPI    C2 1954  -0.146   5.663  11.108  0.1628 -0.1048 -0.1387
  123loPI    C3 1955   0.194   5.576  11.300  0.1791  0.0809 -0.0819
  123loPI   PO4 1956   0.091   5.609  10.584 -0.0768 -0.0132 -0.0189
  123loPI   GL1 1957   0.305   5.479  10.259  0.0132 -0.0196 -0.0451
  123loPI   GL2 1958   0.435   5.879  10.296  0.0793  0.0597  0.0419
  123loPI   C1A 1959   0.234   5.314   9.929  0.0186 -0.2193  0.1704
  123loPI   C2A 1960   0.255   5.318   9.417 -0.0490 -0.0723 -0.3071
  123loPI   C3A 1961   0.305   5.346   9.019 -0.0441 -0.0816 -0.0292
  123loPI   C4A 1962   0.418   5.241   8.569  0.0876  0.0243 -0.1775
  123loPI   C5A 1963   0.314   5.530   8.254  0.2515 -0.0093 -0.5555
  123loPI   C6A 1964   0.093   5.952   8.233  0.0736 -0.1523 -0.1061
  123loPI   C1B 1965   0.447   5.791   9.935  0.0578 -0.2696 -0.4143
  123loPI   C2B 1966   0.449   5.845   9.545  0.1459  0.1091  0.1220
  123loPI   C3B 1967   0.370   5.820   9.168  0.1231 -0.1313 -0.1469
  123loPI   C4B 1968   0.381   5.786   8.688  0.1158 -0.0470  0.2387
  124loPI    C1 1969  17.865  15.543  10.875 -0.2556  0.1275 -0.1921
  124loPI    C2 1970  17.824  15.146  10.850 -0.1107  0.0965  0.0350
  124loPI    C3 1971  17.853  15.322  11.208 -0.0768  0.3022 -0.0673
  124loPI   PO4 1972  17.906  15.611  10.658 -0.0177  0.2220 -0.0092
  124loPI   GL1 1973  17.705  15.615  10.252 -0.1953  0.1984  0.1018
  124loPI   GL2 1974  17.406  15.374  10.133 -0.2832 -0.0061 -0.1162
  124loPI   C1A 1975  17.676  15.720   9.828 -0.0550  0.0978  0.2647
  124loPI   C2A 1976  17.580  15.835   9.429 -0.0288 -0.1488 -0.1228
  124loPI   C3A 1977  17.640  15.958   8.963  0.1354  0.3660 -0.0860
  124loPI   C4A 1978  17.806  15.837   8.651  0.0970 -0.2108 -0.3504
  124loPI   C5A 1979  17.807  15.626   8.247 -0.1988 -0.0641 -0.2786
  124loPI   C6A 1980  17.798  15.652   7.741 -0.0851 -0.0646  0.1920
  124loPI   C1B 1981  17.502  15.279   9.700 -0.2528 -0.0805  0.3298
  124loPI   C2B 1982  17.562  15.410   9.189 -0.2580  0.2387  0.4123
  124loPI   C3B 1983  17.555  15.357   8.783 -0.2277 -0.0286 -0.2131
  124loPI   C4B 1984  17.413  15.264   8.398 -0.0517  0.0894  0.1325
  125loPI    C1 1985   8.262   6.768  10.465  0.2631 -0.2304  0.1793
  125loPI    C2 1986   8.169   6.459  10.701 -0.0713 -0.0129  0.3408
  125loPI    C3 1987   8.159   6.831  10.847 -0.3978  0.1358 -0.0435
  125loPI   PO4 1988   8.063   6.774  10.203 -0.1994  0.1061 -0.0128
  125loPI   GL1 1989   7.916   6.679   9.802 -0.3160 -0.1324 -0.3405
  125loPI   GL2 1990   8.153   6.956   9.732  0.1661  0.0430  0.0360
  125loPI   C1A 1991   7.593   6.676   9.541 -0.1307 -0.0785 -0.0545
  125loPI   C2A 1992   7.476   6.763   9.153  0.0319 -0.0709 -0.0893
  125loPI   C3A 1993   7.535   6.640   8.712  0.1421  0.0374 -0.0786
  125loPI   C4A 1994   7.698   6.541   8.328  0.1534 -0.1028 -0.1945
  125loPI   C5A 1995   7.819   6.537   7.902  0.0357 -0.1523 -0.2962
  125loPI   C6A 1996   8.203   6.494   7.562 -0.2401 -0.0533 -0.1695
  125loPI   C1B 1997   7.988   6.948   9.279  0.4337 -0.2372 -0.1217
  125loPI   C2B 1998   7.842   7.007   8.917 -0.2038 -0.0131  0.1728
  125loPI   C3B 1999   7.509   7.102   8.670 -0.0095 -0.1245 -0.2911
  125loPI   C4B 2000   7.300   7.089   8.286 -0.3388  0.0113  0.0719
  126loPI    C1 2001   6.054   9.241  10.333  0.0580 -0.1232 -0.0006
  126loPI    C2 2002   5.907   8.949  10.563  0.0219  0.0960  0.2604
  126loPI    C3 2003   5.878   9.330  10.681  0.0632  0.2079 -0.0790
  126loPI   PO4 2004   6.023   9.141  10.084 -0.0133  0.6207 -0.1253
  126loPI   GL1 2005   5.830   8.996   9.667 -0.0613 -0.2596  0.1723
  126loPI   GL2 2006   5.486   9.089   9.783 -0.0136 -0.0272 -0.2843
  126loPI   C1A 2007   5.751   8.910   9.251 -0.0801 -0.0008  0.1905
  126loPI   C2A 2008   5.574   8.994   8.842 -0.0674  0.0275 -0.0327
  126loPI   C3A 2009   5.275   8.843   8.545 -0.0385  0.0394  0.2429
  126loPI   C4A 2010   5.052   8.585   8.265  0.0129  0.2483 -0.1697
  126loPI   C5A 2011   4.692   8.794   8.111  0.1072  0.2894  0.2260
  126loPI   C6A 2012   4.493   8.659   7.755 -0.1573  0.1261  0.3420
  126loPI   C1B 2013   5.294   8.962   9.464 -0.1308 -0.1491 -0.0069
  126loPI   C2B 2014   5.151   8.816   9.117  0.4244  0.1128  0.1434
  126loPI   C3B 2015   4.866   8.859   8.784 -0.2990  0.0227  0.0138
  126loPI   C4B 2016   4.651   8.452   8.531 -0.1697  0.0803 -0.1734
  127loPI    C1 2017   0.099   3.270  10.902 -0.0817 -0.0505 -0.0394
  127loPI    C2 2018  -0.219   3.099  10.731 -0.0758 -0.1068  0.0055
  127loPI    C3 2019  -0.251   3.259  11.096 -0.2087  0.4210 -0.2289
  127loPI   PO4 2020   0.310   3.076  10.779  0.0603 -0.0620  0.1992
  127loPI   GL1 2021   0.689   2.964  10.621 -0.0385  0.1091  0.0962
  127loPI   GL2 2022   0.469   2.643  10.597  0.1205 -0.0935 -0.2484
  127loPI   C1A 2023   0.765   3.032  10.155  0.0204 -0.2222  0.2198
  127loPI   C2A 2024   0.764   3.116   9.784  0.2257 -0.1802  0.1098
  127loPI   C3A 2025   0.636   3.082   9.309  0.0743 -0.0880  0.2029
  127loPI   C4A 2026   0.672   3.130   8.892  0.0752  0.1085 -0.1822
  127loPI   C5A 2027   0.583   3.126   8.466 -0.3750  0.0317 -0.0827
  127loPI   C6A 2028   0.188   3.107   8.248 -0.2721  0.1455  0.2069
  127loPI   C1B 2029   0.527   2.567  10.192 -0.0987  0.0416  0.0078
  127loPI   C2B 2030   0.604   2.613   9.783  0.0337 -0.0063  0.3816
  127loPI   C3B 2031   0.524   2.595   9.432 -0.2279 -0.3900  0.0693
  127loPI   C4B 2032   0.493   2.563   8.991  0.0579  0.1573  0.2286
  128loPI    C1 2033   9.223   0.164  10.362 -0.0557 -0.1239 -0.1258
  128loPI    C2 2034   9.353   0.303  10.714  0.0189 -0.4213 -0.0331
  128loPI    C3 2035   9.180   0.551  10.452  0.1233 -0.1632  0.1388
  128loPI   PO4 2036   9.065  -0.032  10.411 -0.2766 -0.0028 -0.0631
  128loPI   GL1 2037   8.828  -0.310  10.161 -0.1719  0.0630  0.1338
  128loPI   GL2 2038   8.784  -0.634  10.121  0.0743 -0.3347  0.3470
  128loPI   C1A 2039   8.517  -0.129   9.822  0.1151 -0.6414 -0.1864
  128loPI   C2A 2040   8.494   0.016   9.384  0.0587 -0.1053 -0.0808
  128loPI   C3A 2041   8.443   0.059   9.007  0.0098 -0.2936 -0.1429
  128loPI   C4A 2042   8.581   0.046   8.545  0.0645 -0.0824 -0.1257
  128loPI   C5A 2043   8.598  -0.029   8.113  0.1953  0.0854 -0.2316
  128loPI   C6A 2044   8.538  -0.240   7.788  0.1258 -0.0550 -0.1468
  128loPI   C1B 2045   8.818  -0.540   9.684 -0.4079 -0.0165 -0.1239
  128loPI   C2B 2046   8.930  -0.324   9.313  0.2477 -0.2532  0.0348
  128loPI   C3B 2047   8.837  -0.188   8.859 -0.0857  0.0975  0.3195
  128loPI   C4B 2048   9.040  -0.239   8.313 -0.1534 -0.0663 -0.1439
  129loPI    C1 2049  17.300   3.097  11.197 -0.0903  0.0664  0.2733
  129loPI    C2 2050  17.216   3.387  11.459  0.1434  0.1064  0.3066
  129loPI    C3 2051  17.080   3.016  11.522 -0.1622  0.2072  0.2604
  129loPI   PO4 2052  17.198   3.145  10.994  0.0457  0.2817 -0.0238
  129loPI   GL1 2053  17.319   3.348  10.576 -0.1466  0.3276 -0.2573
  129loPI   GL2 2054  17.019   3.659  10.550  0.1275  0.1143 -0.0134
  129loPI   C1A 2055  17.341   3.447  10.188 -0.2704  0.2861 -0.1647
  129loPI   C2A 2056  17.227   3.628   9.698  0.0057 -0.1525 -0.0995
  129loPI   C3A 2057  17.226   3.588   9.317  0.1051 -0.0469  0.0458
  129loPI   C4A 2058  17.403   3.454   9.002  0.2615 -0.2786 -0.1430
  129loPI   C5A 2059  17.449   3.556   8.637 -0.4232  0.1232 -0.2589
  129loPI   C6A 2060  17.488   4.007   8.617 -0.0111 -0.0249  0.1101
  129loPI   C1B 2061  16.906   3.787  10.085  0.0535  0.3227 -0.0797
  129loPI   C2B 2062  16.887   3.982   9.678  0.3501 -0.0243 -0.1453
  129loPI   C3B 2063  16.902   3.973   9.283 -0.2751  0.0343 -0.1709
  129loPI   C4B 2064  17.025   3.971   8.831 -0.3395 -0.0832  0.1134
  130loPI    C1 2065   5.069   5.686  10.857  0.2358 -0.2797  0.0522
  130loPI    C2 2066   4.674   5.688  10.795  0.2682 -0.0485 -0.1621
  130loPI    C3 2067   4.820   5.592  11.155 -0.0003  0.2371  0.0277
  130loPI   PO4 2068   5.113   5.878  10.704  0.0001  0.2258 -0.5413
  130loPI   GL1 2069   4.761   5.894  10.366 -0.3424  0.1480 -0.2201
  130loPI   GL2 2070   4.325   5.903  10.499  0.1321  0.1257 -0.4455
  130loPI   C1A 2071   4.791   6.140   9.956 -0.0692  0.0092  0.0483
  130loPI   C2A 2072   4.725   6.204   9.515  0.2399 -0.1224 -0.0344
  130loPI   C3A 2073   4.686   6.095   9.157 -0.0290  0.1939 -0.2751
  130loPI   C4A 2074   4.672   6.038   8.744 -0.1557  0.2510 -0.2044
  130loPI   C5A 2075   4.478   6.114   8.391 -0.0407 -0.1082  0.2213
  130loPI   C6A 2076   3.968   6.022   8.281  0.4758 -0.0175 -0.1201
  130loPI   C1B 2077   4.341   5.956  10.091  0.2589  0.2318 -0.0353
  130loPI   C2B 2078   4.219   6.060   9.673  0.3699  0.1393  0.0304
  130loPI   C3B 2079   4.203   5.976   9.325  0.1517  0.2003  0.2102
  130loPI   C4B 2080   4.230   5.947   8.914  0.0389 -0.1528 -0.1205
  131loPI    C1 2081  15.555  16.114  10.887  0.0563  0.3050  0.2994
  131loPI    C2 2082  15.791  15.912  11.138 -0.1183 -0.1159  0.1345
  131loPI    C3 2083  15.394  15.879  11.168 -0.1434 -0.0187 -0.0756
  131loPI   PO4 2084  15.684  16.064  10.615  0.1421 -0.1924 -0.0518
  131loPI   GL1 2085  15.528  16.098  10.214 -0.2327 -0.0289  0.0189
  131loPI   GL2 2086  15.834  15.941  10.149  0.0649  0.1822 -0.2293
  131loPI   C1A 2087  15.486  16.234   9.748 -0.0559  0.1571  0.0632
  131loPI   C2A 2088  15.503  16.205   9.290  0.2262  0.1245  0.2195
  131loPI   C3A 2089  15.392  16.160   8.811  0.0549  0.3253 -0.1008
  131loPI   C4A 2090  15.438  16.128   8.414 -0.0282 -0.1019  0.1216
  131loPI   C5A 2091  15.612  15.940   8.020  0.0388  0.2534 -0.1210
  131loPI   C6A 2092  15.593  15.647   7.781 -0.0366 -0.1285  0.1099
  131loPI   C1B 2093  15.770  15.773   9.773 -0.3463 -0.0188 -0.1359
  131loPI   C2B 2094  15.805  15.748   9.271  0.1308 -0.4220 -0.1865
  131loPI   C3B 2095  15.811  15.793   8.857 -0.0502  0.0162 -0.1441
  131loPI   C4B 2096  15.898  15.826   8.358 -0.2159 -0.2032 -0.0083
  132loPI    C1 2097   4.451  11.546  10.687  0.3298  0.3764 -0.2548
  132loPI    C2 2098   4.416  11.823  10.973  0.3074  0.1330 -0.0177
  132loPI    C3 2099   4.193  11.491  10.987  0.3309  0.1025 -0.3014
  132loPI   PO4 2100   4.386  11.702  10.421  0.2512  0.0169  0.3060
  132loPI   GL1 2101   4.349  11.886  10.122 -0.1161 -0.1711  0.1690
  132loPI   GL2 2102   4.599  11.702   9.927 -0.0308 -0.2038  0.0763
  132loPI   C1A 2103   4.047  11.847   9.833 -0.2147  0.0716 -0.0317
  132loPI   C2A 2104   3.951  12.007   9.435  0.2084  0.1349 -0.1582
  132loPI   C3A 2105   3.896  12.058   8.987  0.4182  0.1438  0.1396
  132loPI   C4A 2106   4.007  11.934   8.580  0.1156 -0.3626 -0.0421
  132loPI   C5A 2107   4.109  11.675   8.234 -0.2571 -0.1135  0.0503
  132loPI   C6A 2108   4.230  11.624   7.774  0.0979 -0.0599 -0.3703
  132loPI   C1B 2109   4.437  11.622   9.494 -0.3143  0.0706 -0.0479
  132loPI   C2B 2110   4.477  11.675   9.052  0.1303  0.1364  0.1666
  132loPI   C3B 2111   4.508  11.580   8.566 -0.0846  0.1588 -0.3887
  132loPI   C4B 2112   4.548  11.420   8.165  0.4753 -0.0610 -0.1332
  133loPI    C1 2113  12.650  16.011  10.369  0.2058  0.2417  0.0958
  133loPI    C2 2114  12.268  15.942  10.275  0.2668  0.1199 -0.0681
  133loPI    C3 2115  12.389  16.314  10.358  0.1548  0.1894 -0.2118
  133loPI   PO4 2116  12.769  15.911  10.246 -0.3574  0.0146 -0.2724
  133loPI   GL1 2117  12.944  16.179   9.896 -0.0630  0.1072 -0.1769
  133loPI   GL2 2118  12.601  15.951   9.802  0.0371 -0.0350  0.1276
  133loPI   C1A 2119  13.101  15.969   9.583  0.1049 -0.0282  0.0144
  133loPI   C2A 2120  13.060  15.984   9.228  0.0169 -0.1287 -0.0558
  133loPI   C3A 2121  13.033  15.901   8.773 -0.2552  0.3131 -0.0611
  133loPI   C4A 2122  13.143  16.008   8.339 -0.2207 -0.1166  0.3230
  133loPI   C5A 2123  13.352  15.801   8.109  0.1145 -0.1283  0.2218
  133loPI   C6A 2124  13.204  15.588   7.738  0.1376 -0.0069  0.0200
  133loPI   C1B 2125  12.636  15.725   9.336  0.1326 -0.0959  0.0979
  133loPI   C2B 2126  12.633  15.724   8.919  0.1618 -0.4436 -0.0901
  133loPI   C3B 2127  12.604  15.721   8.499  0.2828 -0.3061  0.2425
  133loPI   C4B 2128  12.732  15.819   8.114  0.1771  0.2529  0.2993
  134loPI    C1 2129   5.909   6.159  10.272  0.2439  0.2119 -0.0209
  134loPI    C2 2130   5.914   5.768  10.357 -0.2569  0.2048  0.0020
  134loPI    C3 2131   6.194   5.924  10.118  0.0091 -0.1450  0.0776
  134loPI   PO4 2132   5.729   6.220  10.151  0.1428  0.1492 -0.2710
  134loPI   GL1 2133   5.612   6.415   9.862  0.2747  0.3726 -0.0103
  134loPI   GL2 2134   5.675   6.652   9.714 -0.3245 -0.3468 -0.0267
  134loPI   C1A 2135   5.169   6.392   9.676 -0.1568  0.3291  0.1587
  134loPI   C2A 2136   5.113   6.316   9.270 -0.0721 -0.0947  0.0832
  134loPI   C3A 2137   5.118   6.264   8.832 -0.0983  0.2116  0.0156
  134loPI   C4A 2138   5.317   6.029   8.575 -0.2000  0.0974 -0.1996
  134loPI   C5A 2139   5.437   6.101   8.136 -0.1735  0.1427  0.2762
  134loPI   C6A 2140   5.396   6.055   7.707  0.1591 -0.1787  0.0814
  134loPI   C1B 2141   5.596   6.545   9.272  0.0634 -0.1021  0.1197
  134loPI   C2B 2142   5.700   6.470   8.841 -0.2435 -0.1689 -0.4111
  134loPI   C3B 2143   5.896   6.232   8.419 -0.0245 -0.0733  0.2427
  134loPI   C4B 2144   5.791   5.858   8.341 -0.3236 -0.2552 -0.0354
  135loPI    C1 2145   4.873  13.757  10.997  0.0539  0.0741  0.1965
  135loPI    C2 2146   5.270  13.712  11.010  0.0363 -0.1198  0.0951
  135loPI    C3 2147   5.036  13.497  11.253 -0.0052  0.0265  0.1860
  135loPI   PO4 2148   4.751  13.664  10.694  0.1170  0.1758 -0.4208
  135loPI   GL1 2149   4.709  13.770  10.260 -0.1810 -0.0648 -0.0121
  135loPI   GL2 2150   4.678  14.049  10.042  0.1171  0.0364  0.1658
  135loPI   C1A 2151   4.898  13.632   9.853  0.0912  0.0384 -0.2281
  135loPI   C2A 2152   4.875  13.614   9.426  0.0920 -0.3618 -0.1727
  135loPI   C3A 2153   4.840  13.525   9.004 -0.0553  0.2884 -0.1221
  135loPI   C4A 2154   4.746  13.659   8.668  0.0505 -0.0358 -0.0542
  135loPI   C5A 2155   4.736  13.647   8.263 -0.2628  0.1056  0.0292
  135loPI   C6A 2156   4.611  13.736   7.839 -0.2071  0.1088  0.0587
  135loPI   C1B 2157   4.501  14.066   9.655 -0.1054 -0.1738  0.3204
  135loPI   C2B 2158   4.414  13.947   9.272 -0.3478  0.0732 -0.3528
  135loPI   C3B 2159   4.543  14.032   8.945 -0.0706  0.0565  0.4098
  135loPI   C4B 2160   4.502  14.025   8.507  0.2359 -0.3866  0.0117
  136loPI    C1 2161  14.519   4.040  10.933 -0.0859  0.1218  0.1920
  136loPI    C2 2162  14.609   4.352  11.166  0.2377  0.2581 -0.1073
  136loPI    C3 2163  14.828   4.018  11.186  0.0520  0.1427  0.0271
  136loPI   PO4 2164  14.593   4.094  10.617 -0.0923 -0.0841 -0.0133
  136loPI   GL1 2165  14.722   3.922  10.274  0.1870  0.2918  0.2272
  136loPI   GL2 2166  14.498   3.774  10.044 -0.0030 -0.1112 -0.0727
  136loPI   C1A 2167  15.100   3.934   9.941 -0.1955 -0.2065  0.0109
  136loPI   C2A 2168  15.151   3.970   9.570 -0.0788 -0.1025 -0.1060
  136loPI   C3A 2169  15.092   3.736   9.136 -0.1230  0.1004  0.1493
  136loPI   C4A 2170  15.079   3.768   8.703 -0.1349  0.0294  0.0862
  136loPI   C5A 2171  15.013   3.924   8.344 -0.1225 -0.1815  0.1300
  136loPI   C6A 2172  14.770   3.741   8.118  0.2752  0.0470  0.1530
  136loPI   C1B 2173  14.576   3.634   9.495  0.1045  0.0310  0.4571
  136loPI   C2B 2174  14.618   3.649   9.025 -0.0831  0.0456 -0.5616
  136loPI   C3B 2175  14.559   3.680   8.633 -0.0827  0.0392 -0.1980
  136loPI   C4B 2176  14.300   3.839   8.361  0.0964  0.0830 -0.2729
  137loPI    C1 2177   2.685   8.919  10.312  0.0506 -0.2181 -0.1593
  137loPI    C2 2178   2.735   8.959  10.707 -0.2049  0.0705 -0.1527
  137loPI    C3 2179   3.052   8.965  10.464 -0.0565  0.0099  0.0368
  137loPI   PO4 2180   2.518   8.791  10.336  0.1522 -0.0233  0.2215
  137loPI   GL1 2181   2.426   8.528   9.988  0.1603 -0.2034 -0.0488
  137loPI   GL2 2182   2.579   8.811   9.842 -0.1270 -0.0680 -0.1198
  137loPI   C1A 2183   2.318   8.308   9.748 -0.1600  0.1417  0.0361
  137loPI   C2A 2184   2.285   8.280   9.375 -0.0350 -0.3219 -0.2011
  137loPI   C3A 2185   2.395   8.227   9.007  0.2128  0.2531  0.1223
  137loPI   C4A 2186   2.388   8.425   8.627  0.0595 -0.0002 -0.1136
  137loPI   C5A 2187   2.323   8.142   8.276 -0.0679  0.4362 -0.1020
  137loPI   C6A 2188   2.393   8.053   7.877  0.0408  0.2738  0.2228
  137loPI   C1B 2189   2.422   8.742   9.467 -0.1989 -0.1482  0.0680
  137loPI   C2B 2190   2.351   8.691   9.078  0.0218  0.2593  0.0916
  137loPI   C3B 2191   2.309   8.900   8.539 -0.0751 -0.2304 -0.2994
  137loPI   C4B 2192   2.232   9.002   8.146  0.0896  0.0961 -0.0488
  138loPI    C1 2193   3.707  13.342  10.667 -0.0822  0.1618 -0.0218
  138loPI    C2 2194   3.394  13.240  10.894  0.0817 -0.3213 -0.0015
  138loPI    C3 2195   3.698  13.445  11.054 -0.0607 -0.1611  0.0674
  138loPI   PO4 2196   3.702  13.356  10.458  0.0825 -0.1091 -0.0059
  138loPI   GL1 2197   3.462  13.416  10.095  0.0161  0.1881  0.0203
  138loPI   GL2 2198   3.444  13.744   9.999  0.1016  0.1102 -0.2075
  138loPI   C1A 2199   3.363  13.291   9.714 -0.1319 -0.3613 -0.1792
  138loPI   C2A 2200   3.286  13.201   9.243 -0.0696 -0.2496 -0.3423
  138loPI   C3A 2201   3.374  13.289   8.766 -0.0145 -0.3754 -0.1015
  138loPI   C4A 2202   3.320  13.317   8.371 -0.0377  0.1660  0.0034
  138loPI   C5A 2203   3.253  13.265   7.974 -0.1172  0.3112  0.0801
  138loPI   C6A 2204   3.142  12.800   7.810  0.0093  0.0135 -0.2056
  138loPI   C1B 2205   3.402  13.827   9.670  0.0661  0.1482 -0.2274
  138loPI   C2B 2206   3.433  13.839   9.284  0.1067 -0.2421  0.1542
  138loPI   C3B 2207   3.530  13.738   8.820 -0.0470 -0.1360 -0.2489
  138loPI   C4B 2208   3.527  13.771   8.325 -0.1936  0.1943 -0.3855
  139loPI    C1 2209  13.037  12.183  10.779  0.0383  0.3617  0.0115
  139loPI    C2 2210  12.778  12.324  11.049 -0.0369  0.0407  0.1117
  139loPI    C3 2211  13.167  12.300  11.138 -0.0210  0.1969  0.0875
  139loPI   PO4 2212  13.028  12.306  10.584 -0.0766  0.0277  0.1209
  139loPI   GL1 2213  12.953  12.475  10.165  0.1040  0.1742  0.1159
  139loPI   GL2 2214  12.855  12.205  10.036 -0.1337 -0.1079  0.1882
  139loPI   C1A 2215  12.643  12.535   9.674  0.0153  0.1794 -0.2871
  139loPI   C2A 2216  12.526  12.572   9.279 -0.2449  0.1328 -0.1376
  139loPI   C3A 2217  12.665  12.650   8.847 -0.0020  0.2142 -0.2528
  139loPI   C4A 2218  12.436  12.812   8.535 -0.2133 -0.2914  0.2990
  139loPI   C5A 2219  12.216  12.874   8.085 -0.2804 -0.0655 -0.1552
  139loPI   C6A 2220  12.173  13.154   7.769  0.1257 -0.0242  0.0116
  139loPI   C1B 2221  13.033  12.176   9.686 -0.0635  0.0478  0.0525
  139loPI   C2B 2222  12.959  12.338   9.261  0.4353  0.4846  0.1806
  139loPI   C3B 2223  13.101  12.255   8.774  0.2863 -0.1398 -0.2313
  139loPI   C4B 2224  13.222  12.274   8.427 -0.0146 -0.0741 -0.2285
  140loPI    C1 2225   3.295  16.404  10.794  0.1867 -0.1874  0.1632
  140loPI    C2 2226   3.023  16.267  11.053 -0.2771  0.0455 -0.1842
  140loPI    C3 2227   3.145  16.648  11.074 -0.2971  0.0579 -0.2918
  140loPI   PO4 2228   3.232  16.311  10.540  0.2477 -0.0984 -0.0729
  140loPI   GL1 2229   3.077  16.357  10.215 -0.2196 -0.1344  0.3140
  140loPI   GL2 2230   3.266  16.707  10.182  0.2526  0.1927  0.1282
  140loPI   C1A 2231   2.745  16.311   9.799  0.1696 -0.1064 -0.2678
  140loPI   C2A 2232   2.787  16.372   9.420 -0.0800 -0.1477 -0.3849
  140loPI   C3A 2233   2.787  16.373   8.972  0.1313  0.0799  0.0077
  140loPI   C4A 2234   2.679  16.392   8.485  0.0358 -0.2898 -0.1184
  140loPI   C5A 2235   2.854  16.418   8.065 -0.1517  0.0914 -0.1742
  140loPI   C6A 2236   3.156  16.736   8.018  0.0267  0.1520 -0.3506
  140loPI   C1B 2237   3.192  16.522   9.781  0.2905  0.0075 -0.1130
  140loPI   C2B 2238   3.285  16.443   9.385  0.1837 -0.3248  0.1379
  140loPI   C3B 2239   3.348  16.547   8.882  0.2002 -0.2059 -0.1479
  140loPI   C4B 2240   3.355  16.601   8.543 -0.1856  0.3417 -0.2384
  141loPI    C1 2241  13.975   6.457  10.640 -0.1213 -0.2040 -0.2429
  141loPI    C2 2242  13.814   6.212  10.912 -0.0990 -0.0066 -0.0494
  141loPI    C3 2243  13.623   6.548  10.808 -0.0840 -0.0572 -0.2423
  141loPI   PO4 2244  14.083   6.344  10.420  0.0789  0.2024  0.2060
  141loPI   GL1 2245  14.160   6.045  10.150  0.1137  0.0823 -0.0058
  141loPI   GL2 2246  13.970   5.981   9.937 -0.1054  0.3540  0.1113
  141loPI   C1A 2247  14.472   6.101   9.793  0.3197 -0.1299  0.2107
  141loPI   C2A 2248  14.265   5.945   9.454  0.1260  0.0044  0.1795
  141loPI   C3A 2249  14.190   5.922   9.040  0.1705  0.0403  0.1096
  141loPI   C4A 2250  14.290   5.968   8.581 -0.1923 -0.1088  0.2735
  141loPI   C5A 2251  14.263   5.964   8.122  0.0123 -0.0485 -0.2173
  141loPI   C6A 2252  14.466   6.149   7.672  0.0858  0.0483 -0.0027
  141loPI   C1B 2253  13.721   5.900   9.580 -0.1697  0.0023  0.1159
  141loPI   C2B 2254  13.645   5.851   9.192 -0.1694  0.0977 -0.0662
  141loPI   C3B 2255  13.580   5.802   8.769  0.1189 -0.3364 -0.0512
  141loPI   C4B 2256  13.818   5.823   8.429 -0.0745  0.1708  0.1789
  142loPI    C1 2257  14.092  16.801  10.963 -0.0077  0.0906 -0.2235
  142loPI    C2 2258  14.149  17.120  11.198 -0.1277 -0.0179 -0.0449
  142loPI    C3 2259  14.277  16.760  11.315 -0.2152 -0.0780 -0.1326
  142loPI   PO4 2260  14.101  17.009  10.646  0.5161  0.1403 -0.0414
  142loPI   GL1 2261  14.266  17.164  10.196 -0.1385 -0.0079 -0.1929
  142loPI   GL2 2262  14.474  17.432  10.311 -0.2752  0.0693 -0.1556
  142loPI   C1A 2263  14.364  17.262   9.776 -0.1460 -0.0553 -0.0271
  142loPI   C2A 2264  14.263  17.297   9.362 -0.0327 -0.2119  0.3486
  142loPI   C3A 2265  14.282  17.311   8.906 -0.0718 -0.1396  0.0209
  142loPI   C4A 2266  14.442  17.244   8.540  0.0020  0.1713 -0.0031
  142loPI   C5A 2267  14.766  17.294   8.227 -0.0138  0.1829 -0.0319
  142loPI   C6A 2268  14.737  17.506   7.842  0.1631 -0.0858  0.1791
  142loPI   C1B 2269  14.770  17.467   9.919  0.1075  0.2302  0.1193
  142loPI   C2B 2270  14.824  17.443   9.452 -0.0774 -0.2843 -0.1032
  142loPI   C3B 2271  14.746  17.366   9.082  0.1210 -0.0805  0.1237
  142loPI   C4B 2272  14.908  17.466   8.634 -0.2430 -0.0182 -0.0081
  143loPI    C1 2273   9.579   7.396  10.294 -0.1080 -0.1586  0.0013
  143loPI    C2 2274   9.567   7.771  10.434 -0.1654 -0.1090 -0.1350
  143loPI    C3 2275   9.465   7.465  10.671 -0.1260 -0.0381 -0.0258
  143loPI   PO4 2276   9.492   7.370  10.127 -0.2492 -0.1036  0.2160
  143loPI   GL1 2277   9.191   7.485   9.672 -0.1506  0.1032  0.2931
  143loPI   GL2 2278   9.417   7.297   9.561  0.1429  0.1170  0.3078
  143loPI   C1A 2279   8.956   7.366   9.255  0.1870  0.0659  0.1835
  143loPI   C2A 2280   8.869   7.111   8.868  0.0035  0.1271 -0.1977
  143loPI   C3A 2281   9.079   7.035   8.404 -0.3810 -0.1905 -0.0907
  143loPI   C4A 2282   9.208   6.603   8.148  0.0886 -0.2685  0.1605
  143loPI   C5A 2283   9.186   6.206   7.961  0.0586  0.0053  0.0909
  143loPI   C6A 2284   8.800   6.190   7.602 -0.1460 -0.0825 -0.0513
  143loPI   C1B 2285   9.433   7.422   9.165  0.2956  0.3419  0.2641
  143loPI   C2B 2286   9.273   7.447   8.814 -0.0464 -0.0195 -0.1824
  143loPI   C3B 2287   8.959   7.597   8.508  0.1850 -0.0053  0.0181
  143loPI   C4B 2288   8.814   7.819   8.127 -0.0008  0.2115 -0.0625
  144loPI    C1 2289   1.618  12.887  10.842 -0.1112  0.0458 -0.1070
  144loPI    C2 2290   1.454  12.544  10.964  0.0078 -0.0421 -0.1905
  144loPI    C3 2291   1.304  12.893  11.089 -0.1752 -0.1220 -0.1826
  144loPI   PO4 2292   1.650  12.903  10.581 -0.0596  0.1157  0.0228
  144loPI   GL1 2293   1.471  13.153  10.214  0.3265 -0.1724 -0.0819
  144loPI   GL2 2294   1.439  12.824  10.128  0.2783  0.2654  0.0625
  144loPI   C1A 2295   1.350  13.235   9.807 -0.2486 -0.0324 -0.2545
  144loPI   C2A 2296   1.381  13.167   9.369 -0.3182 -0.0391  0.0585
  144loPI   C3A 2297   1.530  13.241   8.954  0.2740  0.0562  0.3446
  144loPI   C4A 2298   1.452  13.218   8.551  0.3787 -0.0711  0.0960
  144loPI   C5A 2299   1.564  13.188   8.084  0.1002 -0.0488  0.1802
  144loPI   C6A 2300   1.483  12.916   7.801  0.1732 -0.1820  0.2143
  144loPI   C1B 2301   1.671  12.835   9.772 -0.1404  0.1287  0.2464
  144loPI   C2B 2302   1.820  12.900   9.320 -0.2815 -0.2856  0.4474
  144loPI   C3B 2303   1.872  12.865   8.924  0.1282  0.0626  0.0589
  144loPI   C4B 2304   1.841  12.967   8.437  0.1158  0.1537 -0.2037
  145loPI    C1 2305   4.037  10.577  10.793  0.3556  0.1952  0.2460
  145loPI    C2 2306   3.790  10.591  11.107  0.2627  0.2170  0.1726
  145loPI    C3 2307   4.110  10.352  11.115  0.1249  0.0305  0.1867
  145loPI   PO4 2308   3.884  10.696  10.540 -0.1956 -0.1422  0.0967
  145loPI   GL1 2309   3.946  10.761  10.081 -0.0073  0.1368  0.0966
  145loPI   GL2 2310   3.872  11.027  10.125 -0.1880  0.0551  0.2519
  145loPI   C1A 2311   3.765  10.862   9.666 -0.1588 -0.0200 -0.0531
  145loPI   C2A 2312   3.744  10.868   9.241 -0.1864 -0.1773 -0.5591
  145loPI   C3A 2313   3.797  10.963   8.758 -0.0898 -0.1068  0.0217
  145loPI   C4A 2314   3.526  11.090   8.434 -0.2708  0.0180 -0.1403
  145loPI   C5A 2315   3.764  11.156   7.985  0.1140 -0.0896  0.2726
  145loPI   C6A 2316   3.723  11.522   7.810 -0.1489 -0.2524  0.3680
  145loPI   C1B 2317   3.823  11.348   9.826 -0.0544  0.0280 -0.2425
  145loPI   C2B 2318   3.822  11.467   9.486 -0.4109  0.1505 -0.1615
  145loPI   C3B 2319   3.803  11.551   9.075 -0.0104 -0.0008  0.0377
  145loPI   C4B 2320   3.756  11.482   8.661 -0.3710 -0.0790  0.1548
  146loPI    C1 2321   1.378   5.815  11.008  0.0845 -0.0981 -0.0321
  146loPI    C2 2322   1.445   6.088  10.723 -0.1954  0.0225  0.0147
  146loPI    C3 2323   1.508   6.180  11.107 -0.1009 -0.0437  0.0152
  146loPI   PO4 2324   1.464   5.620  10.887  0.0579  0.1027 -0.0596
  146loPI   GL1 2325   1.622   5.647  10.486  0.2521 -0.1093 -0.2630
  146loPI   GL2 2326   1.531   5.275  10.329  0.1131  0.2637  0.4201
  146loPI   C1A 2327   1.771   5.836  10.093 -0.0038 -0.1834 -0.1015
  146loPI   C2A 2328   1.777   5.747   9.614  0.1145 -0.1592 -0.0554
  146loPI   C3A 2329   1.806   5.652   9.134 -0.0102  0.0097  0.0340
  146loPI   C4A 2330   1.901   5.708   8.705 -0.3051  0.0433  0.2833
  146loPI   C5A 2331   2.225   5.711   8.425  0.1418 -0.1684  0.1375
  146loPI   C6A 2332   2.452   5.296   8.222  0.1485 -0.3622 -0.1545
  146loPI   C1B 2333   1.663   5.332   9.899  0.2777 -0.1452 -0.2884
  146loPI   C2B 2334   1.586   5.226   9.474  0.2589 -0.0293  0.1928
  146loPI   C3B 2335   1.675   5.216   8.960 -0.4570 -0.2968  0.2370
  146loPI   C4B 2336   1.707   5.172   8.597  0.0760 -0.0383  0.2148
  147loPI    C1 2337   8.947   6.733  10.542  0.0818 -0.0256 -0.1827
  147loPI    C2 2338   9.122   7.091  10.505  0.0124  0.0441  0.1323
  147loPI    C3 2339   9.237   6.841  10.795 -0.1508 -0.0635  0.1058
  147loPI   PO4 2340   8.870   6.652  10.220 -0.1071 -0.4186  0.2966
  147loPI   GL1 2341   8.720   6.651   9.670  0.2516 -0.2635  0.3277
  147loPI   GL2 2342   9.007   6.599   9.758  0.0008  0.2042 -0.5040
  147loPI   C1A 2343   8.563   6.787   9.213  0.1938  0.3385  0.1086
  147loPI   C2A 2344   8.320   6.922   8.875  0.3103 -0.0403  0.1422
  147loPI   C3A 2345   8.258   7.089   8.440 -0.2921  0.2908 -0.1151
  147loPI   C4A 2346   7.849   7.090   8.312  0.0606 -0.1520 -0.1830
  147loPI   C5A 2347   7.604   6.976   7.897  0.0882 -0.0826 -0.0343
  147loPI   C6A 2348   7.283   7.080   7.549 -0.0262 -0.1494  0.2470
  147loPI   C1B 2349   9.055   6.844   9.394 -0.0494 -0.1090 -0.1449
  147loPI   C2B 2350   9.408   6.747   9.166  0.1473  0.0836  0.0238
  147loPI   C3B 2351   9.686   6.991   8.977 -0.1467  0.2444 -0.2696
  147loPI   C4B 2352   9.676   7.323   8.664 -0.3887 -0.0974 -0.2176
  148loPI    C1 2353   9.198  17.156  10.732  0.0175 -0.0717  0.1199
  148loPI    C2 2354   8.983  17.370  10.993  0.2376  0.2343  0.0550
  148loPI    C3 2355   9.352  17.249  11.090  0.1438 -0.0526  0.0610
  148loPI   PO4 2356   9.189  17.290  10.497 -0.0835  0.0591 -0.1201
  148loPI   GL1 2357   8.955  17.302  10.194 -0.0376 -0.0461  0.1114
  148loPI   GL2 2358   8.850  17.079  10.037  0.2091  0.0583 -0.0308
  148loPI   C1A 2359   9.135  17.516   9.708 -0.1778  0.0538  0.1358
  148loPI   C2A 2360   9.253  17.715   9.353  0.2444 -0.3182 -0.1361
  148loPI   C3A 2361   9.258  17.828   8.954  0.4023  0.1610 -0.1483
  148loPI   C4A 2362   9.371  17.768   8.495  0.1175  0.0216  0.0359
  148loPI   C5A 2363   9.389  17.484   8.257  0.1433 -0.1603  0.3773
  148loPI   C6A 2364   9.295  17.179   7.978 -0.0255 -0.0702  0.2155
  148loPI   C1B 2365   8.676  17.355   9.692 -0.0461  0.2820  0.0490
  148loPI   C2B 2366   8.681  17.560   9.305  0.0670  0.2012 -0.0167
  148loPI   C3B 2367   8.689  17.647   8.964  0.0966 -0.1384 -0.0211
  148loPI   C4B 2368   8.830  17.769   8.588 -0.2208 -0.0327  0.3357
  149loPI    C1 2369  11.944  17.443  10.543  0.0140 -0.1065 -0.1154
  149loPI    C2 2370  12.316  17.382  10.676 -0.0222 -0.1507 -0.0339
  149loPI    C3 2371  12.013  17.165  10.822 -0.1585  0.2433  0.2881
  149loPI   PO4 2372  11.997  17.648  10.385  0.0678  0.1080 -0.2665
  149loPI   GL1 2373  12.096  17.623  10.076 -0.1455 -0.0411  0.4303
  149loPI   GL2 2374  12.257  17.278  10.124 -0.2182  0.4377  0.1992
  149loPI   C1A 2375  11.968  17.631   9.668 -0.4702  0.1556  0.2397
  149loPI   C2A 2376  12.170  17.577   9.182 -0.0147  0.0907 -0.1918
  149loPI   C3A 2377  12.041  17.620   8.755 -0.0208  0.0230 -0.2024
  149loPI   C4A 2378  12.007  17.485   8.304  0.1503 -0.3463 -0.1620
  149loPI   C5A 2379  12.251  17.183   8.186 -0.0019 -0.0758 -0.4294
  149loPI   C6A 2380  12.194  16.777   8.198 -0.0591  0.2509  0.2748
  149loPI   C1B 2381  12.401  17.361   9.641  0.2723  0.0586  0.2079
  149loPI   C2B 2382  12.526  17.245   9.327  0.0821  0.0208 -0.0235
  149loPI   C3B 2383  12.385  17.221   8.881 -0.2103  0.2592  0.0822
  149loPI   C4B 2384  12.461  16.935   8.700  0.1620  0.0928 -0.1291
  150loPI    C1 2385  15.760  15.442  10.953  0.0574 -0.2453 -0.3283
  150loPI    C2 2386  15.504  15.562  10.670 -0.1194 -0.0279 -0.0811
  150loPI    C3 2387  15.365  15.413  11.015  0.0853  0.0989  0.0582
  150loPI   PO4 2388  15.904  15.279  10.815 -0.0431  0.0600 -0.0491
  150loPI   GL1 2389  16.009  15.297  10.417  0.1566  0.0206  0.0870
  150loPI   GL2 2390  16.302  15.385  10.419  0.0891  0.1664 -0.3807
  150loPI   C1A 2391  15.721  15.438  10.160  0.2506  0.0871 -0.0789
  150loPI   C2A 2392  15.586  15.261   9.859  0.0567 -0.1350  0.1522
  150loPI   C3A 2393  15.583  15.279   9.499 -0.0405 -0.3404 -0.2005
  150loPI   C4A 2394  15.624  15.298   9.031 -0.0997  0.0786 -0.5405
  150loPI   C5A 2395  15.773  15.386   8.594 -0.0408  0.0476  0.1453
  150loPI   C6A 2396  15.809  15.355   8.146 -0.1186  0.0094 -0.2047
  150loPI   C1B 2397  16.189  15.351   9.967  0.3458 -0.0094 -0.0262
  150loPI   C2B 2398  16.127  15.326   9.579  0.2194  0.0994  0.4104
  150loPI   C3B 2399  16.216  15.462   9.301  0.2251 -0.2181  0.1760
  150loPI   C4B 2400  16.135  15.418   8.949 -0.0581  0.1272  0.2130
  151loPI    C1 2401  12.262   5.235  10.909  0.0182  0.0284 -0.0419
  151loPI    C2 2402  12.363   4.885  11.075  0.1872  0.0793 -0.0351
  151loPI    C3 2403  12.402   5.225  11.284 -0.2671  0.0749  0.0688
  151loPI   PO4 2404  12.205   5.154  10.630 -0.1155 -0.2816 -0.1306
  151loPI   GL1 2405  12.090   5.389  10.237  0.2262 -0.1077 -0.1649
  151loPI   GL2 2406  12.225   5.518  10.009  0.2554 -0.4110 -0.0595
  151loPI   C1A 2407  11.844   5.109   9.904 -0.0085 -0.0647 -0.1957
  151loPI   C2A 2408  11.886   5.095   9.484 -0.1326  0.2226  0.0383
  151loPI   C3A 2409  11.686   5.283   9.113 -0.1538  0.0146  0.1665
  151loPI   C4A 2410  11.613   5.379   8.710  0.0537  0.1709 -0.0346
  151loPI   C5A 2411  11.365   5.500   8.373  0.3518 -0.0312  0.3065
  151loPI   C6A 2412  11.031   5.344   8.139 -0.1970 -0.1602 -0.2419
  151loPI   C1B 2413  12.153   5.406   9.663 -0.0606  0.0844  0.2397
  151loPI   C2B 2414  12.217   5.415   9.177 -0.2008  0.3424  0.1524
  151loPI   C3B 2415  12.126   5.313   8.659  0.1901 -0.0348  0.1202
  151loPI   C4B 2416  11.961   5.250   8.279 -0.2997  0.0670  0.0080
  152loPI    C1 2417  12.660   0.168  10.859  0.0338  0.3576  0.1556
  152loPI    C2 2418  12.620   0.051  11.240  0.1360  0.1369  0.1004
  152loPI    C3 2419  12.422   0.372  11.107 -0.2211 -0.0229  0.2345
  152loPI   PO4 2420  12.549  -0.008  10.676  0.0534 -0.2098 -0.0746
  152loPI   GL1 2421  12.708   0.090  10.350 -0.0986  0.1481 -0.0413
  152loPI   GL2 2422  12.426   0.019  10.201 -0.1516  0.3047  0.1074
  152loPI   C1A 2423  12.825   0.313  10.012 -0.0979 -0.0130  0.3397
  152loPI   C2A 2424  12.799   0.316   9.564  0.3869 -0.0120 -0.1148
  152loPI   C3A 2425  12.788   0.317   9.103 -0.0145  0.2292 -0.1088
  152loPI   C4A 2426  12.964   0.472   8.661  0.1085  0.0496 -0.0447
  152loPI   C5A 2427  12.948   0.488   8.230 -0.0396  0.1549 -0.1504
  152loPI   C6A 2428  12.993   0.150   7.891 -0.0645  0.0314 -0.2794
  152loPI   C1B 2429  12.693  -0.125   9.871 -0.3292  0.1207 -0.2470
  152loPI   C2B 2430  12.716  -0.119   9.471  0.2906  0.0371 -0.0043
  152loPI   C3B 2431  12.744  -0.162   9.014  0.1041  0.0019 -0.0512
  152loPI   C4B 2432  12.638   0.094   8.678 -0.1759 -0.1933  0.1516
  153loPI    C1 2433  15.939   7.567  10.560 -0.0516  0.0338  0.0165
  153loPI    C2 2434  16.307   7.721  10.528 -0.1314  0.1764 -0.2389
  153loPI    C3 2435  16.102   7.763  10.869  0.1120  0.0392 -0.0723
  153loPI   PO4 2436  15.976   7.317  10.398 -0.0559 -0.1394 -0.0281
  153loPI   GL1 2437  15.877   7.243  10.026 -0.1964 -0.0054  0.3475
  153loPI   GL2 2438  16.101   6.996   9.953 -0.0266 -0.0940 -0.1727
  153loPI   C1A 2439  15.821   7.024   9.544  0.0666  0.1444  0.1192
  153loPI   C2A 2440  15.875   6.954   9.175  0.2117 -0.0160 -0.0711
  153loPI   C3A 2441  15.859   6.884   8.715  0.0371  0.1088 -0.0959
  153loPI   C4A 2442  15.689   6.907   8.349 -0.1396  0.1600 -0.1973
  153loPI   C5A 2443  15.536   6.878   7.843  0.2229 -0.1135 -0.0147
  153loPI   C6A 2444  15.617   6.804   7.491 -0.1177  0.1682  0.1055
  153loPI   C1B 2445  16.249   6.651   9.648 -0.3599 -0.1523  0.2361
  153loPI   C2B 2446  16.307   6.571   9.270 -0.2234 -0.5805 -0.0395
  153loPI   C3B 2447  16.170   6.421   8.844 -0.0088  0.1723  0.0047
  153loPI   C4B 2448  16.231   6.369   8.436  0.0896 -0.1599  0.0866
  154loPI    C1 2449  13.649  12.557  10.382  0.1106 -0.0477 -0.1162
  154loPI    C2 2450  13.718  12.912  10.211 -0.2564  0.1979  0.2273
  154loPI    C3 2451  13.873  12.830  10.571 -0.0638 -0.0457  0.0920
  154loPI   PO4 2452  13.432  12.504  10.323 -0.1061  0.0821  0.1547
  154loPI   GL1 2453  13.339  12.510   9.854  0.4951  0.1112 -0.0593
  154loPI   GL2 2454  13.430  12.779   9.837 -0.2560  0.3142  0.0485
  154loPI   C1A 2455  13.425  12.386   9.425 -0.0063 -0.2095  0.0938
  154loPI   C2A 2456  13.543  12.458   8.996 -0.0763  0.1340  0.1470
  154loPI   C3A 2457  13.637  12.381   8.579  0.0440 -0.2978  0.1520
  154loPI   C4A 2458  13.723  12.237   8.094  0.0164 -0.0388  0.0679
  154loPI   C5A 2459  13.485  12.296   7.705  0.1284  0.0464 -0.0477
  154loPI   C6A 2460  13.074  12.348   7.937 -0.1470  0.0057 -0.0591
  154loPI   C1B 2461  13.499  12.913   9.381 -0.2177  0.2971 -0.2129
  154loPI   C2B 2462  13.711  12.896   8.983 -0.0294 -0.0238  0.0956
  154loPI   C3B 2463  13.832  12.930   8.508  0.3314 -0.1744  0.3028
  154loPI   C4B 2464  13.638  12.748   8.112  0.2011 -0.0498  0.1636
  155loPI    C1 2465   7.672   6.251   9.957  0.1617 -0.0226 -0.0508
  155loPI    C2 2466   7.899   6.244  10.286  0.1055  0.1266 -0.0078
  155loPI    C3 2467   7.508   6.323  10.315  0.0213 -0.2501 -0.0675
  155loPI   PO4 2468   7.950   6.070   9.745  0.1346 -0.1643  0.0406
  155loPI   GL1 2469   7.911   5.939   9.427 -0.1186 -0.0723 -0.0181
  155loPI   GL2 2470   7.564   5.826   9.428 -0.1026  0.1222  0.2364
  155loPI   C1A 2471   8.007   5.816   9.025 -0.0256  0.2730  0.0008
  155loPI   C2A 2472   7.862   5.592   8.626 -0.0684  0.0887 -0.0158
  155loPI   C3A 2473   7.817   5.575   8.161 -0.1816 -0.0009  0.0084
  155loPI   C4A 2474   7.659   5.495   7.706 -0.5744 -0.0594 -0.1124
  155loPI   C5A 2475   7.513   5.331   7.368 -0.2179 -0.0984 -0.6290
  155loPI   C6A 2476   7.424   5.334   6.982  0.2665  0.0414 -0.0731
  155loPI   C1B 2477   7.845   5.439   9.296 -0.1286 -0.2775  0.0301
  155loPI   C2B 2478   7.954   5.147   9.008 -0.2757 -0.2288  0.1655
  155loPI   C3B 2479   8.097   4.923   8.730  0.2223 -0.3090  0.0800
  155loPI   C4B 2480   8.073   5.179   8.365  0.1058 -0.0444 -0.0457
  156loPI    C1 2481   9.738  15.807  10.714 -0.1926 -0.0603  0.0039
  156loPI    C2 2482   9.943  16.095  10.902  0.0213 -0.2123  0.0059
  156loPI    C3 2483  10.047  15.711  10.950  0.0070 -0.2611 -0.3317
  156loPI   PO4 2484   9.669  15.908  10.498 -0.0378  0.0835  0.1912
  156loPI   GL1 2485   9.693  16.017  10.102 -0.1797 -0.1079  0.2471
  156loPI   GL2 2486   9.976  15.901   9.926  0.2000  0.0472  0.2643
  156loPI   C1A 2487   9.444  16.224   9.715  0.1282 -0.0164  0.2097
  156loPI   C2A 2488   9.451  16.241   9.260  0.0100 -0.0673 -0.3466
  156loPI   C3A 2489   9.245  16.223   8.953  0.1458 -0.3973 -0.1220
  156loPI   C4A 2490   9.215  16.355   8.518  0.2287 -0.0450 -0.3042
  156loPI   C5A 2491   9.471  16.436   8.163  0.1518 -0.2051 -0.2706
  156loPI   C6A 2492   9.432  16.642   7.812 -0.0585 -0.0685  0.1533
  156loPI   C1B 2493   9.901  15.901   9.593  0.2069 -0.3979  0.0099
  156loPI   C2B 2494   9.910  16.024   9.101 -0.0560 -0.1661  0.4220
  156loPI   C3B 2495   9.641  16.006   8.773  0.0388 -0.1031 -0.0842
  156loPI   C4B 2496   9.502  15.989   8.379 -0.1870 -0.0990 -0.0202
  157loPI    C1 2497   3.849   9.736  10.600 -0.0712 -0.0049  0.1235
  157loPI    C2 2498   3.765   9.353  10.676  0.0111 -0.0469  0.0053
  157loPI    C3 2499   4.146   9.473  10.654 -0.0148  0.0522  0.0933
  157loPI   PO4 2500   3.690   9.785  10.430  0.0725 -0.1187  0.0319
  157loPI   GL1 2501   3.642   9.589  10.013 -0.1348 -0.0718 -0.3656
  157loPI   GL2 2502   3.300   9.608   9.988 -0.1187 -0.0476  0.1050
  157loPI   C1A 2503   3.584   9.429   9.661 -0.1036 -0.4290  0.1799
  157loPI   C2A 2504   3.782   9.204   9.283  0.0705 -0.1258  0.1610
  157loPI   C3A 2505   3.881   9.264   8.773 -0.1876  0.3138 -0.0648
  157loPI   C4A 2506   3.834   9.307   8.336  0.2557 -0.2030  0.0749
  157loPI   C5A 2507   3.719   9.624   8.159 -0.0117  0.0544  0.4078
  157loPI   C6A 2508   3.882   9.842   7.782 -0.2848  0.0298  0.0147
  157loPI   C1B 2509   2.995   9.589   9.615 -0.1321 -0.0192  0.0120
  157loPI   C2B 2510   3.129   9.769   9.188  0.0342  0.0543 -0.1092
  157loPI   C3B 2511   3.263   9.622   8.703  0.2624  0.1438 -0.1449
  157loPI   C4B 2512   3.193   9.586   8.235 -0.1498 -0.1168 -0.2453
  158loPI    C1 2513  16.918   9.165  10.490 -0.0825 -0.1435 -0.1990
  158loPI    C2 2514  17.027   9.242  10.867 -0.1745 -0.0033 -0.2004
  158loPI    C3 2515  16.718   8.999  10.794 -0.1515 -0.0370 -0.1855
  158loPI   PO4 2516  16.843   9.355  10.383  0.1132  0.2738 -0.0310
  158loPI   GL1 2517  16.939   9.390   9.968 -0.0438 -0.0362 -0.1035
  158loPI   GL2 2518  16.851   9.656   9.881 -0.0513 -0.4886  0.1050
  158loPI   C1A 2519  17.230   9.481   9.646 -0.1649  0.1144 -0.2391
  158loPI   C2A 2520  17.290   9.583   9.253 -0.1817 -0.1647  0.0786
  158loPI   C3A 2521  17.559   9.705   8.857 -0.4167 -0.2107  0.2460
  158loPI   C4A 2522  17.230   9.617   8.604  0.0128  0.0813 -0.0264
  158loPI   C5A 2523  16.791   9.551   8.375  0.1737  0.1984 -0.1739
  158loPI   C6A 2524  16.817   9.775   7.970  0.1651  0.1251  0.3075
  158loPI   C1B 2525  16.778   9.409   9.497 -0.0117  0.0472  0.1259
  158loPI   C2B 2526  16.794   9.365   8.948 -0.1652 -0.0370  0.0508
  158loPI   C3B 2527  16.537   9.187   8.745 -0.0012 -0.2713 -0.0381
  158loPI   C4B 2528  16.480   9.081   8.295  0.3380  0.1973 -0.1431
  159loPI    C1 2529  15.176  11.551  10.682  0.2094 -0.0061  0.1121
  159loPI    C2 2530  14.960  11.346  10.950  0.1304 -0.2257 -0.1152
  159loPI    C3 2531  15.270  11.569  11.070 -0.1247 -0.0313  0.1975
  159loPI   PO4 2532  15.032  11.423  10.461 -0.2051 -0.1719 -0.1153
  159loPI   GL1 2533  15.101  11.560  10.034 -0.0113 -0.3060 -0.2310
  159loPI   GL2 2534  15.155  11.277  10.014  0.2833  0.0538  0.0846
  159loPI   C1A 2535  15.319  11.723   9.637 -0.2270  0.1915  0.1519
  159loPI   C2A 2536  15.299  11.863   9.262  0.1955  0.0471  0.0822
  159loPI   C3A 2537  15.345  11.918   8.822  0.0147 -0.3929 -0.1675
  159loPI   C4A 2538  15.435  12.000   8.377  0.0307  0.0835  0.4713
  159loPI   C5A 2539  15.366  11.976   8.006  0.1651  0.0384 -0.2454
  159loPI   C6A 2540  15.157  11.674   7.761  0.2036 -0.1206 -0.0590
  159loPI   C1B 2541  15.262  11.225   9.614 -0.0382  0.1966  0.2730
  159loPI   C2B 2542  15.255  11.369   9.244  0.0339  0.0445 -0.2159
  159loPI   C3B 2543  15.155  11.399   8.759  0.0085  0.0940  0.2169
  159loPI   C4B 2544  15.201  11.418   8.241 -0.3105 -0.2661 -0.5041
  160loPI    C1 2545  15.665   5.420  10.999  0.0091 -0.1891  0.1206
  160loPI    C2 2546  15.461   5.576  11.306  0.1645  0.0199  0.1202
  160loPI    C3 2547  15.652   5.227  11.350 -0.1056 -0.1273  0.1509
  160loPI   PO4 2548  15.771   5.612  10.889  0.3130 -0.2120  0.1446
  160loPI   GL1 2549  15.777   5.551  10.389 -0.4361  0.1300 -0.1856
  160loPI   GL2 2550  15.730   5.265  10.176 -0.3168  0.1499 -0.1180
  160loPI   C1A 2551  16.004   5.589   9.976 -0.0152  0.0570  0.4950
  160loPI   C2A 2552  15.992   5.622   9.554 -0.1656  0.0372 -0.0608
  160loPI   C3A 2553  15.939   5.365   9.188 -0.0926  0.0377 -0.2266
  160loPI   C4A 2554  15.900   5.450   8.738 -0.1275 -0.3211  0.1801
  160loPI   C5A 2555  16.014   5.511   8.235 -0.3278 -0.0406  0.2853
  160loPI   C6A 2556  16.372   5.341   7.911 -0.1823 -0.0717  0.0639
  160loPI   C1B 2557  15.875   5.101   9.706  0.1747  0.4227 -0.0249
  160loPI   C2B 2558  15.779   4.884   9.284  0.0835  0.2318 -0.2098
  160loPI   C3B 2559  15.751   4.940   8.810  0.0426  0.2374  0.1696
  160loPI   C4B 2560  15.780   5.059   8.335 -0.0518  0.2509 -0.1232
  161loPI    C1 2561  12.311   6.313  10.543 -0.0460  0.1302  0.0803
  161loPI    C2 2562  12.544   6.505  10.806  0.1146 -0.1786  0.1690
  161loPI    C3 2563  12.286   6.227  10.933  0.0067 -0.1461  0.0248
  161loPI   PO4 2564  12.256   6.410  10.310  0.2248 -0.1297  0.2055
  161loPI   GL1 2565  12.370   6.430   9.952 -0.0592  0.1525  0.0911
  161loPI   GL2 2566  12.649   6.414   9.909 -0.0056  0.0726  0.1993
  161loPI   C1A 2567  12.442   6.333   9.455 -0.0006 -0.0293  0.0538
  161loPI   C2A 2568  12.483   6.328   9.023 -0.2934 -0.1161 -0.0284
  161loPI   C3A 2569  12.395   6.630   8.867 -0.3452 -0.2940 -0.1270
  161loPI   C4A 2570  12.356   6.798   8.426 -0.2275 -0.2534 -0.1316
  161loPI   C5A 2571  12.635   7.008   8.185 -0.0760 -0.2680  0.2773
  161loPI   C6A 2572  12.992   7.296   8.015  0.2988 -0.2548  0.0129
  161loPI   C1B 2573  12.821   6.063   9.587 -0.1494 -0.2844 -0.0340
  161loPI   C2B 2574  12.873   6.022   9.279 -0.1874 -0.4583 -0.1391
  161loPI   C3B 2575  12.834   6.029   8.821  0.2486 -0.3717  0.1251
  161loPI   C4B 2576  12.805   5.894   8.312 -0.1694 -0.2433  0.1797
  162loPI    C1 2577   3.109  11.458  11.100  0.0541 -0.0479  0.0593
  162loPI    C2 2578   2.733  11.460  10.964  0.1219 -0.1359 -0.1320
  162loPI    C3 2579   2.863  11.155  11.187  0.0398 -0.0389  0.0505
  162loPI   PO4 2580   3.322  11.594  10.811  0.1810 -0.0742 -0.2276
  162loPI   GL1 2581   3.438  11.522  10.379  0.2466 -0.0324  0.0718
  162loPI   GL2 2582   3.300  11.733  10.198 -0.0343 -0.0775 -0.1170
  162loPI   C1A 2583   3.306  11.282   9.864  0.2334 -0.2023  0.1257
  162loPI   C2A 2584   3.412  11.233   9.475  0.1294  0.0546  0.0557
  162loPI   C3A 2585   3.407  11.257   9.032 -0.1274 -0.4527  0.0344
  162loPI   C4A 2586   3.198  11.479   8.614  0.0352 -0.1109 -0.0650
  162loPI   C5A 2587   3.399  11.520   8.253 -0.1717  0.0146  0.1881
  162loPI   C6A 2588   3.098  11.328   7.951 -0.2770 -0.0756 -0.3812
  162loPI   C1B 2589   3.507  11.748   9.851  0.0345  0.0541  0.4584
  162loPI   C2B 2590   3.429  11.749   9.378  0.0048  0.4127  0.0363
  162loPI   C3B 2591   3.361  11.867   8.932  0.2428 -0.1199  0.4016
  162loPI   C4B 2592   3.388  12.001   8.525 -0.2814 -0.0811  0.1997
  163loPI    C1 2593  18.011   3.885  10.856  0.3848 -0.1863 -0.0759
  163loPI    C2 2594  18.255   4.136  11.048 -0.0477 -0.0269  0.2825
  163loPI    C3 2595  17.958   4.280  10.822 -0.0870 -0.2168  0.2116
  163loPI   PO4 2596  18.121   3.673  10.864  0.1077  0.1007  0.1801
  163loPI   GL1 2597  18.515   3.552  10.550 -0.0864  0.0969  0.1202
  163loPI   GL2 2598  18.720   3.394  10.333 -0.0097  0.1496  0.4476
  163loPI   C1A 2599  18.213   3.306  10.319 -0.0818 -0.0994 -0.1642
  163loPI   C2A 2600  18.163   3.258   9.820 -0.0943  0.2411 -0.0218
  163loPI   C3A 2601  18.244   3.309   9.405 -0.0365  0.2529  0.0842
  163loPI   C4A 2602  18.213   3.306   8.917 -0.1838  0.0396 -0.1586
  163loPI   C5A 2603  18.127   3.284   8.546  0.1034  0.3408 -0.3287
  163loPI   C6A 2604  17.950   3.049   8.184 -0.4006 -0.2494 -0.1579
  163loPI   C1B 2605  18.563   3.533   9.956  0.0597  0.1424 -0.0119
  163loPI   C2B 2606  18.665   3.518   9.447  0.0001 -0.0637  0.0912
  163loPI   C3B 2607  18.665   3.416   9.116  0.3665 -0.3097  0.2571
  163loPI   C4B 2608  18.630   3.459   8.615 -0.0132 -0.0423  0.0999
  164loPI    C1 2609   8.579   7.835  10.036 -0.0884 -0.0179 -0.0678
  164loPI    C2 2610   8.556   7.555  10.321 -0.0949 -0.2017 -0.2464
  164loPI    C3 2611   8.306   7.867  10.326 -0.1097 -0.2155 -0.0646
  164loPI   PO4 2612   8.721   7.661   9.792 -0.2200 -0.4996  0.1374
  164loPI   GL1 2613   8.653   8.092   9.481  0.1572  0.2430  0.0463
  164loPI   GL2 2614   8.340   7.800   9.480 -0.0933  0.1361  0.3422
  164loPI   C1A 2615   8.771   8.226   9.063 -0.3858 -0.1758 -0.1212
  164loPI   C2A 2616   8.497   8.193   8.655 -0.3564 -0.1400 -0.3656
  164loPI   C3A 2617   8.480   8.110   8.233  0.1619 -0.1970  0.0276
  164loPI   C4A 2618   8.384   7.812   7.841  0.0670  0.3229  0.2939
  164loPI   C5A 2619   8.239   7.408   7.547 -0.0514  0.0172  0.0651
  164loPI   C6A 2620   7.882   7.135   7.540 -0.1734  0.1139 -0.0998
  164loPI   C1B 2621   8.252   7.944   9.015  0.0450  0.1997  0.1761
  164loPI   C2B 2622   8.227   7.747   8.596  0.1079 -0.0087 -0.0415
  164loPI   C3B 2623   8.449   7.515   8.299  0.0232 -0.0085  0.2682
  164loPI   C4B 2624   8.661   7.372   7.917  0.1306  0.0646 -0.0535
  165loPI    C1 2625  11.196   8.765  10.548 -0.1205  0.1300 -0.0206
  165loPI    C2 2626  10.893   8.983  10.402 -0.0054  0.2866 -0.0273
  165loPI    C3 2627  10.844   8.772  10.739 -0.1197  0.3164 -0.0248
  165loPI   PO4 2628  11.299   8.691  10.285  0.0516 -0.4313  0.0355
  165loPI   GL1 2629  11.263   8.532   9.792  0.0372 -0.0530 -0.2899
  165loPI   GL2 2630  11.356   8.882   9.617 -0.1115 -0.1270 -0.3150
  165loPI   C1A 2631  11.226   8.312   9.405  0.1092 -0.1180  0.2145
  165loPI   C2A 2632  11.051   8.271   8.940 -0.1924  0.1736 -0.3098
  165loPI   C3A 2633  11.072   8.432   8.520 -0.1150  0.0939 -0.0307
  165loPI   C4A 2634  11.021   8.399   8.082 -0.2316 -0.2073 -0.1335
  165loPI   C5A 2635  11.351   8.429   7.904 -0.1277  0.1022 -0.1256
  165loPI   C6A 2636  11.754   8.581   7.931  0.4457  0.0665  0.1724
  165loPI   C1B 2637  11.448   8.797   9.162 -0.1042 -0.1969 -0.0587
  165loPI   C2B 2638  11.408   8.821   8.734  0.0220  0.2719 -0.0497
  165loPI   C3B 2639  11.236   8.823   8.294  0.3742  0.1765 -0.1811
  165loPI   C4B 2640  11.420   8.988   7.946 -0.0185  0.0427  0.0293
  166loPI    C1 2641   5.890  17.588  10.586  0.1921 -0.1231  0.0667
  166loPI    C2 2642   5.777  17.692  10.955 -0.1454 -0.2585  0.0053
  166loPI    C3 2643   5.903  17.320  10.882 -0.0660 -0.2280 -0.0135
  166loPI   PO4 2644   5.686  17.780  10.404 -0.0871  0.0203 -0.0368
  166loPI   GL1 2645   5.852  17.887  10.027  0.5981  0.3492  0.1910
  166loPI   GL2 2646   6.035  17.721   9.828  0.3904 -0.3058 -0.2487
  166loPI   C1A 2647   5.691  18.082   9.591  0.1403  0.1650  0.1099
  166loPI   C2A 2648   5.608  18.054   9.106  0.0352  0.2226  0.3045
  166loPI   C3A 2649   5.475  18.068   8.687 -0.0618  0.1014 -0.2378
  166loPI   C4A 2650   5.513  18.105   8.236  0.1707 -0.0903 -0.0007
  166loPI   C5A 2651   5.607  18.485   7.950 -0.1276 -0.0001 -0.0962
  166loPI   C6A 2652   5.472  18.946   7.829  0.2015  0.2695  0.1609
  166loPI   C1B 2653   6.001  17.635   9.406 -0.0509  0.0376  0.1166
  166loPI   C2B 2654   5.939  17.678   9.039 -0.0528  0.0357  0.2473
  166loPI   C3B 2655   5.877  17.744   8.607  0.1689 -0.0848 -0.1747
  166loPI   C4B 2656   5.875  17.674   8.147 -0.0885 -0.2711 -0.0322
  167loPI    C1 2657  13.539  15.546  10.910 -0.2415 -0.0894  0.0114
  167loPI    C2 2658  13.227  15.695  11.112 -0.2002 -0.2838  0.2235
  167loPI    C3 2659  13.555  15.579  11.309  0.0412 -0.0059 -0.0047
  167loPI   PO4 2660  13.460  15.553  10.659  0.2332  0.2470  0.1415
  167loPI   GL1 2661  13.635  15.543  10.143 -0.0600 -0.0303 -0.0129
  167loPI   GL2 2662  13.863  15.648  10.071  0.1713 -0.0317  0.1173
  167loPI   C1A 2663  13.454  15.562   9.723  0.2811 -0.1233 -0.0203
  167loPI   C2A 2664  13.501  15.574   9.277  0.4730  0.0855  0.0453
  167loPI   C3A 2665  13.449  15.616   8.856  0.0040  0.0749 -0.0630
  167loPI   C4A 2666  13.555  15.600   8.501 -0.1433 -0.0630 -0.0530
  167loPI   C5A 2667  13.847  15.587   8.120  0.0423 -0.0960 -0.1381
  167loPI   C6A 2668  13.659  15.279   7.884 -0.1517  0.3185 -0.3282
  167loPI   C1B 2669  13.943  15.712   9.678  0.2858  0.0480  0.1525
  167loPI   C2B 2670  13.964  15.766   9.334 -0.3944 -0.0374  0.0038
  167loPI   C3B 2671  14.001  15.773   8.955  0.2509 -0.2010  0.0815
  167loPI   C4B 2672  14.025  15.798   8.510  0.1593  0.2213  0.0358
  168loPI    C1 2673  14.846   7.031  10.741 -0.0428  0.1395 -0.2424
  168loPI    C2 2674  14.679   7.332  10.943  0.2880  0.2982 -0.1992
  168loPI    C3 2675  14.961   7.107  11.116 -0.1369 -0.2080 -0.1387
  168loPI   PO4 2676  14.996   7.108  10.529 -0.3427  0.0652  0.0441
  168loPI   GL1 2677  14.857   7.060  10.180 -0.0937  0.1263  0.1370
  168loPI   GL2 2678  14.506   7.089  10.105  0.2456  0.0314 -0.4108
  168loPI   C1A 2679  14.897   6.947   9.722  0.0807 -0.1434  0.1479
  168loPI   C2A 2680  14.867   6.693   9.288  0.2802  0.2321 -0.2232
  168loPI   C3A 2681  14.914   6.520   8.902 -0.0286 -0.0424 -0.0697
  168loPI   C4A 2682  14.737   6.481   8.390 -0.1777  0.1929  0.1567
  168loPI   C5A 2683  14.777   6.446   7.952 -0.1642 -0.0061  0.1484
  168loPI   C6A 2684  15.002   6.577   7.641 -0.2103 -0.1767 -0.1271
  168loPI   C1B 2685  14.352   7.117   9.694 -0.1879 -0.0393  0.1403
  168loPI   C2B 2686  14.519   7.049   9.320 -0.1635 -0.0871 -0.1263
  168loPI   C3B 2687  14.466   7.074   8.849 -0.2403  0.0445 -0.0296
  168loPI   C4B 2688  14.364   6.989   8.358 -0.1015 -0.1090 -0.3760
  169loPI    C1 2689   7.701   8.398  10.154  0.2409 -0.0892 -0.0046
  169loPI    C2 2690   7.557   8.771  10.173  0.2607 -0.0877  0.1229
  169loPI    C3 2691   7.882   8.672  10.383  0.2157 -0.1946  0.1428
  169loPI   PO4 2692   7.741   8.377   9.923 -0.1308  0.1559 -0.1185
  169loPI   GL1 2693   7.615   8.506   9.520  0.1427 -0.0842 -0.0096
  169loPI   GL2 2694   7.658   8.803   9.653  0.3688  0.0004  0.0391
  169loPI   C1A 2695   7.637   8.521   9.004 -0.3173 -0.0901  0.1455
  169loPI   C2A 2696   7.643   8.579   8.546 -0.3309  0.4098 -0.2911
  169loPI   C3A 2697   7.816   8.619   8.102  0.1691 -0.0352 -0.0985
  169loPI   C4A 2698   8.095   8.256   7.915 -0.1118 -0.2269  0.4175
  169loPI   C5A 2699   8.393   8.260   7.585 -0.0027 -0.0050  0.1015
  169loPI   C6A 2700   8.729   8.300   7.314 -0.0154  0.0724 -0.0684
  169loPI   C1B 2701   7.408   8.906   9.299 -0.1517 -0.2083 -0.0190
  169loPI   C2B 2702   7.008   8.742   9.014 -0.0088 -0.0834 -0.1376
  169loPI   C3B 2703   6.955   8.490   8.712  0.0942 -0.0671  0.1369
  169loPI   C4B 2704   7.070   8.252   8.299 -0.0245 -0.2799 -0.0265
  170loPI    C1 2705  15.324   4.048  11.149  0.2622  0.1805  0.0914
  170loPI    C2 2706  15.480   4.151  11.502  0.1725  0.0626  0.1663
  170loPI    C3 2707  15.188   3.878  11.484  0.0260  0.2254  0.0209
  170loPI   PO4 2708  15.568   4.058  10.933  0.0416  0.1701  0.1655
  170loPI   GL1 2709  15.612   4.018  10.540  0.1522  0.0919 -0.2629
  170loPI   GL2 2710  15.603   3.803  10.314  0.0593 -0.0495 -0.0488
  170loPI   C1A 2711  15.671   4.307  10.164 -0.1992  0.0412  0.0528
  170loPI   C2A 2712  15.284   4.429   9.940 -0.0786 -0.1404  0.0006
  170loPI   C3A 2713  15.154   4.434   9.447  0.1124 -0.0647  0.2258
  170loPI   C4A 2714  15.137   4.239   9.082 -0.1644 -0.0011  0.0191
  170loPI   C5A 2715  15.192   4.281   8.645  0.1919  0.2801  0.0970
  170loPI   C6A 2716  15.257   4.355   8.233 -0.1872 -0.2779  0.0548
  170loPI   C1B 2717  15.602   3.981   9.783 -0.0285 -0.0339 -0.2572
  170loPI   C2B 2718  15.594   3.941   9.410  0.1511  0.1964  0.0869
  170loPI   C3B 2719  15.587   4.012   8.976 -0.1800  0.1946  0.0678
  170loPI   C4B 2720  15.671   3.972   8.551 -0.1641  0.0546  0.0652
  171loPI    C1 2721   9.180  16.233  10.532 -0.2982  0.2882 -0.0331
  171loPI    C2 2722   9.466  16.287  10.806  0.0039  0.1833 -0.3206
  171loPI    C3 2723   9.138  16.517  10.811  0.0191  0.2048  0.1034
  171loPI   PO4 2724   9.235  16.298  10.316  0.0560 -0.0956  0.1562
  171loPI   GL1 2725   9.036  16.109  10.004 -0.1321 -0.0613  0.2268
  171loPI   GL2 2726   9.040  16.501   9.893  0.0431  0.2220 -0.0863
  171loPI   C1A 2727   8.996  15.985   9.669 -0.1069 -0.0558 -0.1897
  171loPI   C2A 2728   8.857  16.030   9.238 -0.1048 -0.0464 -0.3391
  171loPI   C3A 2729   8.772  16.130   8.847  0.0732  0.1727  0.0659
  171loPI   C4A 2730   8.671  16.176   8.494 -0.0441 -0.0992 -0.0842
  171loPI   C5A 2731   8.902  16.236   8.096  0.1663 -0.0201 -0.0286
  171loPI   C6A 2732   9.317  15.994   7.891  0.0009 -0.2105 -0.1189
  171loPI   C1B 2733   9.090  16.556   9.434  0.2159 -0.1138  0.0106
  171loPI   C2B 2734   9.055  16.702   9.092  0.1572  0.1606  0.3190
  171loPI   C3B 2735   8.998  16.796   8.602  0.1961  0.0143  0.1190
  171loPI   C4B 2736   9.046  16.750   8.097  0.1317 -0.0160  0.1681
  172loPI    C1 2737  14.546   5.075  10.873  0.0769  0.0667  0.2100
  172loPI    C2 2738  14.293   5.330  11.048 -0.0849  0.0679 -0.0208
  172loPI    C3 2739  14.665   5.447  10.959 -0.0858  0.1496  0.0806
  172loPI   PO4 2740  14.429   4.981  10.611 -0.1365  0.0035  0.2017
  172loPI   GL1 2741  14.444   4.825  10.200 -0.1863 -0.0102 -0.2551
  172loPI   GL2 2742  14.522   5.102  10.090 -0.1835 -0.1513 -0.1582
  172loPI   C1A 2743  14.384   4.624   9.817  0.0153  0.2895  0.2408
  172loPI   C2A 2744  14.244   4.598   9.378 -0.2593 -0.1148  0.0832
  172loPI   C3A 2745  14.286   4.535   8.878  0.0926  0.1988 -0.0670
  172loPI   C4A 2746  14.245   4.531   8.439 -0.3303  0.2681  0.0039
  172loPI   C5A 2747  14.416   4.714   8.048 -0.0344  0.1179  0.0871
  172loPI   C6A 2748  14.667   4.808   7.683  0.1364 -0.3520  0.1876
  172loPI   C1B 2749  14.480   5.104   9.709  0.0419  0.0800  0.0389
  172loPI   C2B 2750  14.381   5.181   9.320 -0.1078 -0.2601 -0.0946
  172loPI   C3B 2751  14.417   4.971   8.926  0.2158  0.1695  0.1239
  172loPI   C4B 2752  14.497   4.974   8.533  0.0107 -0.2875  0.0129
  173loPI    C1 2753   5.164   1.111  11.073  0.2230  0.1419  0.0561
  173loPI    C2 2754   4.892   1.386  10.969  0.1353  0.0234 -0.0297
  173loPI    C3 2755   5.204   1.490  11.196 -0.0106  0.1489  0.1154
  173loPI   PO4 2756   5.126   0.927  10.734  0.2125  0.2018  0.2645
  173loPI   GL1 2757   4.821   0.820  10.461  0.1459 -0.2195  0.1549
  173loPI   GL2 2758   5.023   0.546  10.392 -0.0488 -0.1134  0.2794
  173loPI   C1A 2759   4.885   0.950   9.988 -0.1695 -0.2254 -0.1275
  173loPI   C2A 2760   5.035   0.881   9.674  0.2144 -0.3249 -0.1697
  173loPI   C3A 2761   4.837   0.914   9.334  0.1053 -0.1852  0.0115
  173loPI   C4A 2762   4.914   0.854   8.912  0.0434 -0.0129  0.0322
  173loPI   C5A 2763   4.820   0.799   8.527 -0.0709  0.0151 -0.3711
  173loPI   C6A 2764   4.959   1.057   8.093 -0.1724  0.0698 -0.1438
  173loPI   C1B 2765   4.636   0.554  10.087 -0.1018 -0.0094 -0.3196
  173loPI   C2B 2766   4.473   0.832   9.740  0.1405 -0.0849  0.0440
  173loPI   C3B 2767   4.366   0.808   9.299 -0.1165 -0.1218  0.1932
  173loPI   C4B 2768   4.430   0.701   8.916  0.1258  0.2531  0.0326
  174loPI    C1 2769   5.393   4.178  10.615 -0.0265  0.0569 -0.1755
  174loPI    C2 2770   5.765   4.281  10.719 -0.0703 -0.1026  0.1524
  174loPI    C3 2771   5.497   4.188  11.001 -0.3466 -0.0369 -0.0834
  174loPI   PO4 2772   5.405   4.350  10.294  0.0149 -0.1431 -0.1280
  174loPI   GL1 2773   5.154   4.652   9.949  0.1049  0.3461 -0.2373
  174loPI   GL2 2774   5.460   4.746   9.961 -0.2299 -0.2527  0.0191
  174loPI   C1A 2775   4.798   4.778   9.690 -0.1786 -0.1132  0.0218
  174loPI   C2A 2776   4.745   4.723   9.317 -0.2537  0.1285 -0.0188
  174loPI   C3A 2777   4.740   4.660   8.955  0.0799  0.0585 -0.2781
  174loPI   C4A 2778   4.685   4.782   8.471  0.1197  0.4468 -0.4243
  174loPI   C5A 2779   4.926   4.744   8.142 -0.0672  0.0550 -0.0905
  174loPI   C6A 2780   5.269   4.609   8.040 -0.1553 -0.2408  0.1451
  174loPI   C1B 2781   5.372   4.971   9.654 -0.3282 -0.4757  0.2696
  174loPI   C2B 2782   5.281   4.864   9.272  0.0843  0.0491  0.1130
  174loPI   C3B 2783   5.179   4.824   8.808 -0.2447  0.2219 -0.0107
  174loPI   C4B 2784   5.072   4.496   8.522  0.1814 -0.2331 -0.1101
  175loPI    C1 2785   8.736   2.086  10.076  0.3362  0.1406 -0.1163
  175loPI    C2 2786   8.795   1.705  10.185  0.2956  0.1599 -0.0255
  175loPI    C3 2787   8.704   1.981  10.461 -0.0038  0.1722 -0.1323
  175loPI   PO4 2788   8.522   2.019   9.879 -0.2503  0.0464  0.0167
  175loPI   GL1 2789   8.599   1.933   9.489  0.0219 -0.2017 -0.0234
  175loPI   GL2 2790   8.974   2.019   9.655  0.1305 -0.1624 -0.1810
  175loPI   C1A 2791   8.539   1.960   9.096 -0.1534 -0.0728 -0.0017
  175loPI   C2A 2792   8.566   1.989   8.666 -0.3704  0.1352 -0.1782
  175loPI   C3A 2793   8.471   2.038   8.276 -0.2221 -0.2367 -0.1280
  175loPI   C4A 2794   8.407   2.301   7.836  0.2395 -0.2072 -0.3559
  175loPI   C5A 2795   8.253   2.657   7.566 -0.2335  0.3925  0.0443
  175loPI   C6A 2796   8.201   3.119   7.634  0.2332  0.0281 -0.2035
  175loPI   C1B 2797   8.936   2.163   9.291 -0.0743 -0.2121  0.2213
  175loPI   C2B 2798   9.005   2.058   8.823 -0.0986 -0.1629 -0.1881
  175loPI   C3B 2799   8.989   2.162   8.464 -0.0854  0.3470 -0.0166
  175loPI   C4B 2800   9.014   2.044   7.993  0.0622 -0.0171 -0.0973
  176loPI    C1 2801   3.601   4.907  11.420  0.0302 -0.1575 -0.1121
  176loPI    C2 2802   3.498   5.215  11.653  0.3848 -0.2352  0.1565
  176loPI    C3 2803   3.527   4.848  11.809  0.0061 -0.4029 -0.1524
  176loPI   PO4 2804   3.549   5.051  11.190 -0.1819  0.2835  0.1131
  176loPI   GL1 2805   3.653   5.094  10.622 -0.2124  0.1288  0.1607
  176loPI   GL2 2806   3.454   4.863  10.509 -0.0649 -0.0564 -0.1512
  176loPI   C1A 2807   3.442   5.431  10.362 -0.0784 -0.0515  0.0529
  176loPI   C2A 2808   3.434   5.351   9.802  0.1257 -0.0289 -0.4801
  176loPI   C3A 2809   3.444   5.329   9.299 -0.1115 -0.3053  0.1790
  176loPI   C4A 2810   3.567   5.305   8.836  0.0585  0.0769 -0.0644
  176loPI   C5A 2811   3.542   5.538   8.396 -0.0625  0.0385  0.0366
  176loPI   C6A 2812   3.519   5.530   8.016 -0.0327  0.1939 -0.0818
  176loPI   C1B 2813   3.498   4.931  10.147 -0.1162 -0.1755 -0.1475
  176loPI   C2B 2814   3.403   4.931   9.604  0.0269 -0.2694  0.1121
  176loPI   C3B 2815   3.333   4.812   9.256  0.4708 -0.1370  0.1531
  176loPI   C4B 2816   3.385   4.624   8.815  0.1475  0.1354  0.2207
  177loPI    C1 2817  16.946   6.775  10.895 -0.1306 -0.2678  0.0991
  177loPI    C2 2818  16.715   7.065  11.045 -0.2860 -0.3804  0.0797
  177loPI    C3 2819  16.979   6.878  11.280  0.3067  0.2381 -0.0613
  177loPI   PO4 2820  16.772   6.724  10.694  0.2721 -0.1411  0.2809
  177loPI   GL1 2821  16.796   6.706  10.225  0.2962  0.2824 -0.0906
  177loPI   GL2 2822  16.443   6.634  10.142  0.0551 -0.0486 -0.2650
  177loPI   C1A 2823  16.856   6.739   9.822 -0.1953  0.0672 -0.1971
  177loPI   C2A 2824  16.816   6.743   9.366 -0.5092  0.0292 -0.2016
  177loPI   C3A 2825  16.751   6.601   8.919  0.0083 -0.1965  0.1406
  177loPI   C4A 2826  16.511   6.794   8.787  0.0053 -0.1923 -0.2739
  177loPI   C5A 2827  16.444   7.079   8.469  0.1633 -0.1587  0.4756
  177loPI   C6A 2828  16.200   7.004   8.072 -0.3106 -0.2776  0.0720
  177loPI   C1B 2829  16.647   6.298   9.888 -0.1626 -0.1166  0.2949
  177loPI   C2B 2830  16.659   6.234   9.427 -0.0043  0.0500 -0.3595
  177loPI   C3B 2831  16.451   6.085   9.075 -0.0166 -0.3575  0.1288
  177loPI   C4B 2832  16.590   6.111   8.687  0.0690 -0.2597 -0.2507
  178loPI    C1 2833  10.751  10.251  10.335  0.0757 -0.2225  0.2091
  178loPI    C2 2834  10.409  10.253  10.128  0.0950  0.3231  0.1675
  178loPI    C3 2835  10.400  10.240  10.527  0.0391  0.0120  0.1589
  178loPI   PO4 2836  10.919  10.146  10.070 -0.3723 -0.1748  0.1279
  178loPI   GL1 2837  10.878  10.093   9.629 -0.1558 -0.0215 -0.2416
  178loPI   GL2 2838  10.636  10.336   9.598 -0.0298 -0.0350 -0.2422
  178loPI   C1A 2839  10.864   9.646   9.375 -0.2396  0.1610  0.1442
  178loPI   C2A 2840  10.935   9.647   8.923  0.0753  0.0409  0.1128
  178loPI   C3A 2841  10.986   9.751   8.489 -0.0405 -0.3073 -0.1865
  178loPI   C4A 2842  10.990   9.793   8.039 -0.0145 -0.1168  0.1485
  178loPI   C5A 2843  10.772   9.715   7.610  0.0234 -0.4203  0.0903
  178loPI   C6A 2844  10.616   9.474   7.336  0.1103  0.2128  0.3652
  178loPI   C1B 2845  10.418  10.492   9.212 -0.1099  0.0892  0.0768
  178loPI   C2B 2846  10.292  10.617   8.877 -0.0024 -0.0421  0.3184
  178loPI   C3B 2847  10.266  11.074   8.690  0.1353  0.0487  0.3631
  178loPI   C4B 2848  10.405  11.315   8.403 -0.0969 -0.0164  0.0106
  179loPI    C1 2849  17.017   6.287  11.029 -0.0950  0.0588  0.1136
  179loPI    C2 2850  16.670   6.407  11.187 -0.1382 -0.0495  0.1013
  179loPI    C3 2851  16.964   6.278  11.426 -0.0749  0.1228  0.1179
  179loPI   PO4 2852  16.944   6.151  10.757  0.2833  0.3776 -0.1372
  179loPI   GL1 2853  16.788   6.174  10.360 -0.2605  0.1054 -0.1332
  179loPI   GL2 2854  16.464   5.946  10.187  0.0752 -0.1850 -0.1402
  179loPI   C1A 2855  17.100   6.349  10.067 -0.1643 -0.0449 -0.2594
  179loPI   C2A 2856  17.168   6.369   9.648 -0.1482 -0.0975  0.0400
  179loPI   C3A 2857  17.143   6.351   9.276 -0.2023  0.1453 -0.0673
  179loPI   C4A 2858  17.055   6.226   8.845  0.1140  0.0734 -0.1885
  179loPI   C5A 2859  17.057   6.392   8.402  0.6243 -0.0461  0.0355
  179loPI   C6A 2860  16.757   6.505   8.176 -0.1837  0.0706  0.2393
  179loPI   C1B 2861  16.410   5.853   9.760  0.3459  0.1113 -0.1009
  179loPI   C2B 2862  16.484   5.557   9.414 -0.0781  0.2210 -0.2547
  179loPI   C3B 2863  16.435   5.543   8.974  0.0597 -0.1176 -0.0650
  179loPI   C4B 2864  16.459   5.579   8.499 -0.1539  0.1586 -0.0403
  180loPI    C1 2865  11.493  13.757  10.579  0.0367  0.0792 -0.0119
  180loPI    C2 2866  11.720  13.452  10.704 -0.0904  0.0063  0.0425
  180loPI    C3 2867  11.821  13.828  10.797  0.1639 -0.0058 -0.1727
  180loPI   PO4 2868  11.464  13.612  10.287 -0.1591  0.1127 -0.1074
  180loPI   GL1 2869  11.462  13.728   9.820 -0.0229  0.0831 -0.1823
  180loPI   GL2 2870  11.681  13.440   9.854 -0.0085  0.3978  0.0734
  180loPI   C1A 2871  11.612  13.584   9.378 -0.0617 -0.1278  0.0425
  180loPI   C2A 2872  11.869  13.549   8.907 -0.2652  0.2840  0.1973
  180loPI   C3A 2873  11.796  13.407   8.534  0.3141  0.0605  0.0170
  180loPI   C4A 2874  11.836  13.296   8.095  0.1700  0.2331  0.0530
  180loPI   C5A 2875  11.893  13.618   7.808  0.1102 -0.1883 -0.0907
  180loPI   C6A 2876  12.270  13.982   7.805  0.1862 -0.0946 -0.2089
  180loPI   C1B 2877  12.016  13.308   9.638  0.0719  0.2549  0.0231
  180loPI   C2B 2878  12.114  13.172   9.197 -0.2391 -0.1871 -0.2431
  180loPI   C3B 2879  12.309  13.225   8.794 -0.4639 -0.1788 -0.1647
  180loPI   C4B 2880  12.264  13.245   8.395  0.0972 -0.1494  0.2746
  181loPI    C1 2881   4.093   8.241  10.468  0.1723  0.0239  0.0071
  181loPI    C2 2882   3.754   8.217  10.255  0.2069 -0.0469 -0.0407
  181loPI    C3 2883   3.740   8.306  10.645  0.1258 -0.1482 -0.0202
  181loPI   PO4 2884   4.193   8.470  10.340 -0.0838  0.1521  0.0139
  181loPI   GL1 2885   4.144   8.623  10.015 -0.2666  0.1080  0.0771
  181loPI   GL2 2886   4.256   8.870   9.947  0.1643  0.2277  0.0651
  181loPI   C1A 2887   3.891   8.231   9.776  0.1886  0.0673  0.0541
  181loPI   C2A 2888   3.775   8.238   9.333  0.2226 -0.3507  0.1855
  181loPI   C3A 2889   3.661   8.360   8.868 -0.2245 -0.0671  0.0724
  181loPI   C4A 2890   3.510   8.317   8.379  0.1004  0.0055 -0.0234
  181loPI   C5A 2891   3.347   8.058   8.126  0.0365  0.2794  0.0939
  181loPI   C6A 2892   3.383   7.629   8.095  0.1558 -0.0945  0.2437
  181loPI   C1B 2893   4.359   8.933   9.522  0.0661 -0.1404 -0.1612
  181loPI   C2B 2894   4.311   9.236   9.247  0.0636 -0.0857 -0.0523
  181loPI   C3B 2895   4.486   9.200   8.938 -0.0063 -0.0689  0.3065
  181loPI   C4B 2896   4.542   9.198   8.405  0.0596  0.1618  0.0189
  182loPI    C1 2897   4.073  16.929  11.213 -0.2324 -0.0350 -0.0117
  182loPI    C2 2898   4.237  17.187  11.470  0.0340 -0.3036  0.0942
  182loPI    C3 2899   4.092  16.838  11.602 -0.0360 -0.3450 -0.0899
  182loPI   PO4 2900   3.915  16.988  10.978  0.0942 -0.1299  0.1089
  182loPI   GL1 2901   3.947  16.764  10.491  0.2801  0.2875 -0.0800
  182loPI   GL2 2902   3.761  16.902  10.256  0.3086  0.4647 -0.3264
  182loPI   C1A 2903   4.201  17.030  10.164  0.0743  0.2349 -0.1436
  182loPI   C2A 2904   4.262  16.891   9.713 -0.1896 -0.0156 -0.0009
  182loPI   C3A 2905   4.249  16.799   9.320  0.1240 -0.0144  0.0021
  182loPI   C4A 2906   4.402  16.781   9.002 -0.3047 -0.1314  0.1247
  182loPI   C5A 2907   4.319  16.722   8.573  0.0003  0.2169 -0.1572
  182loPI   C6A 2908   4.224  16.692   8.186  0.1775  0.0036 -0.2917
  182loPI   C1B 2909   3.774  16.708   9.908  0.0723 -0.1964 -0.0051
  182loPI   C2B 2910   3.824  16.624   9.504 -0.0105  0.0887  0.0945
  182loPI   C3B 2911   3.878  16.634   9.079  0.1977  0.0817 -0.1238
  182loPI   C4B 2912   3.797  16.665   8.597 -0.1172 -0.0415 -0.2794
  183loPI    C1 2913   1.035   4.822  10.925  0.2501  0.0437  0.0178
  183loPI    C2 2914   1.378   4.895  11.119  0.2891 -0.1594  0.0279
  183loPI    C3 2915   1.314   4.537  10.954  0.1308 -0.0837 -0.0782
  183loPI   PO4 2916   1.066   5.094  10.802  0.1970  0.1844  0.0901
  183loPI   GL1 2917   1.030   5.194  10.409  0.1682  0.0434 -0.0442
  183loPI   GL2 2918   1.129   5.511  10.511  0.0647 -0.1876  0.0842
  183loPI   C1A 2919   1.134   5.102   9.948  0.1157  0.1920  0.1252
  183loPI   C2A 2920   1.077   5.138   9.508  0.2372 -0.2468 -0.2676
  183loPI   C3A 2921   1.135   5.072   9.068  0.0710 -0.3918 -0.0205
  183loPI   C4A 2922   1.214   5.056   8.531 -0.2624  0.0668 -0.1428
  183loPI   C5A 2923   1.459   5.488   8.333  0.0592  0.0948 -0.2282
  183loPI   C6A 2924   1.608   5.882   7.995 -0.1329 -0.0853  0.0289
  183loPI   C1B 2925   1.256   5.571  10.064  0.0800  0.1951  0.1171
  183loPI   C2B 2926   1.280   5.553   9.699 -0.2110  0.2111 -0.1633
  183loPI   C3B 2927   1.239   5.586   9.182  0.0005 -0.0881  0.0369
  183loPI   C4B 2928   1.264   5.540   8.770  0.2505  0.1421 -0.1574
  184loPI    C1 2929  14.885  12.009  10.655  0.2444 -0.0955 -0.0357
  184loPI    C2 2930  14.667  11.675  10.642 -0.0755  0.1093 -0.0442
  184loPI    C3 2931  14.769  11.833  10.994 -0.0834  0.1044 -0.0396
  184loPI   PO4 2932  15.066  11.955  10.376  0.0566 -0.2099  0.0683
  184loPI   GL1 2933  15.123  12.071  10.011  0.0122 -0.5199  0.2325
  184loPI   GL2 2934  14.890  12.382   9.976  0.1722  0.2541  0.2500
  184loPI   C1A 2935  15.283  12.238   9.647 -0.0304  0.1099 -0.1532
  184loPI   C2A 2936  15.377  12.350   9.339  0.1084  0.0067  0.0276
  184loPI   C3A 2937  15.473  12.381   9.004 -0.2886 -0.3686 -0.2189
  184loPI   C4A 2938  15.458  12.433   8.647  0.0944 -0.0931  0.2753
  184loPI   C5A 2939  15.522  12.463   8.236 -0.0729  0.0194  0.0739
  184loPI   C6A 2940  15.346  12.629   7.882 -0.0911 -0.2055 -0.2975
  184loPI   C1B 2941  14.841  12.699   9.652  0.0591 -0.0720  0.3364
  184loPI   C2B 2942  14.991  12.739   9.237 -0.0169  0.0299  0.0580
  184loPI   C3B 2943  15.074  12.759   8.849 -0.1220 -0.3301 -0.2476
  184loPI   C4B 2944  15.147  12.842   8.336 -0.1438 -0.0916 -0.1238
  185loPI    C1 2945  11.496   3.624  10.840 -0.2645 -0.2396  0.0410
  185loPI    C2 2946  11.693   3.854  11.102 -0.0934  0.1352 -0.4037
  185loPI    C3 2947  11.490   3.533  11.230 -0.0918  0.3602  0.1929
  185loPI   PO4 2948  11.502   3.951  10.645  0.1771 -0.4471  0.3987
  185loPI   GL1 2949  11.724   4.051  10.256  0.0536  0.0123 -0.0405
  185loPI   GL2 2950  11.513   4.286  10.018  0.1988 -0.4470  0.3158
  185loPI   C1A 2951  11.766   3.855   9.905 -0.1508 -0.4305 -0.3525
  185loPI   C2A 2952  11.837   3.914   9.482 -0.3422  0.1519  0.1324
  185loPI   C3A 2953  11.773   3.870   9.036 -0.4352 -0.1528 -0.2320
  185loPI   C4A 2954  11.774   3.846   8.543 -0.0660 -0.1345 -0.2042
  185loPI   C5A 2955  11.915   3.732   8.176  0.1105  0.0150  0.1341
  185loPI   C6A 2956  12.309   3.664   7.937 -0.1452 -0.3369  0.0313
  185loPI   C1B 2957  11.837   4.566   9.881 -0.2684 -0.0618  0.3169
  185loPI   C2B 2958  11.984   4.524   9.522 -0.2208 -0.0533 -0.1221
  185loPI   C3B 2959  12.018   4.387   9.151 -0.0865  0.1873  0.1588
  185loPI   C4B 2960  11.984   4.277   8.734 -0.1762  0.1518 -0.0953
  186loPI    C1 2961   2.248   2.941  11.128  0.2267  0.0028 -0.0154
  186loPI    C2 2962   2.056   3.291  11.143  0.1690 -0.0355  0.1718
  186loPI    C3 2963   1.865   2.965  11.013  0.1799 -0.0265  0.1328
  186loPI   PO4 2964   2.470   2.977  11.022 -0.0214 -0.3842 -0.2750
  186loPI   GL1 2965   2.713   3.097  10.640 -0.0657  0.1495 -0.0459
  186loPI   GL2 2966   3.137   2.949  10.609  0.1058  0.1205 -0.0601
  186loPI   C1A 2967   2.722   3.115  10.215 -0.0820  0.0767 -0.2127
  186loPI   C2A 2968   2.563   3.258   9.827  0.1794  0.2508 -0.0326
  186loPI   C3A 2969   2.561   3.093   9.410 -0.0248  0.1121 -0.1557
  186loPI   C4A 2970   2.578   3.195   8.926  0.1714 -0.1708 -0.2176
  186loPI   C5A 2971   2.488   3.079   8.464 -0.1099  0.0236  0.0386
  186loPI   C6A 2972   2.507   2.986   8.058  0.1391 -0.1212  0.0782
  186loPI   C1B 2973   3.210   2.793  10.252  0.0786  0.0535 -0.2155
  186loPI   C2B 2974   3.007   2.841   9.831  0.2619 -0.1091 -0.1429
  186loPI   C3B 2975   2.990   2.733   9.432  0.3003  0.1784 -0.1488
  186loPI   C4B 2976   2.979   2.781   9.041 -0.2832 -0.0696 -0.1789
  187loPI    C1 2977  14.494  15.282  11.079 -0.0225 -0.1339  0.1474
  187loPI    C2 2978  14.217  15.003  11.152  0.0278 -0.2071  0.0599
  187loPI    C3 2979  14.474  15.111  11.440 -0.0481 -0.1878  0.1204
  187loPI   PO4 2980  14.586  15.205  10.844  0.0136  0.0311 -0.0931
  187loPI   GL1 2981  14.469  15.284  10.429  0.0977  0.0533 -0.0277
  187loPI   GL2 2982  14.686  15.079  10.365  0.3693  0.0629 -0.5737
  187loPI   C1A 2983  14.300  15.376  10.016  0.1590  0.2945 -0.1718
  187loPI   C2A 2984  14.303  15.262   9.646  0.0327  0.0561 -0.1320
  187loPI   C3A 2985  14.342  15.298   9.143 -0.4616 -0.2776  0.1138
  187loPI   C4A 2986  14.403  15.451   8.718  0.1411  0.4685 -0.2214
  187loPI   C5A 2987  14.417  15.515   8.281 -0.1188 -0.1298 -0.0578
  187loPI   C6A 2988  14.226  15.921   8.046  0.0715  0.1666 -0.1851
  187loPI   C1B 2989  14.677  14.957   9.944  0.0920  0.1340  0.2869
  187loPI   C2B 2990  14.633  14.902   9.504 -0.2394  0.1768  0.0188
  187loPI   C3B 2991  14.647  14.943   9.076 -0.2093 -0.0494  0.0213
  187loPI   C4B 2992  14.722  15.014   8.600  0.0626  0.1979 -0.0863
  188loPI    C1 2993   6.370   6.297  10.388 -0.1341  0.1512 -0.0598
  188loPI    C2 2994   6.451   6.489  10.729  0.0623  0.0194 -0.0305
  188loPI    C3 2995   6.378   6.096  10.734  0.0254  0.0247 -0.1353
  188loPI   PO4 2996   6.321   6.443  10.179 -0.1518 -0.0888 -0.2740
  188loPI   GL1 2997   6.113   6.475   9.886 -0.0978  0.0066  0.3037
  188loPI   GL2 2998   6.253   6.658   9.682  0.0361  0.1229 -0.0544
  188loPI   C1A 2999   5.973   6.265   9.590 -0.1060 -0.1118  0.1158
  188loPI   C2A 3000   5.623   6.039   9.486  0.0323  0.0379  0.2401
  188loPI   C3A 3001   5.461   6.031   9.123  0.1168 -0.2730  0.2560
  188loPI   C4A 3002   5.561   5.723   8.851 -0.1024 -0.3923 -0.2113
  188loPI   C5A 3003   5.439   5.536   8.341 -0.0985  0.1604 -0.0128
  188loPI   C6A 3004   5.370   5.577   7.904 -0.0222 -0.2000  0.2722
  188loPI   C1B 3005   6.051   6.729   9.321 -0.0831  0.2395 -0.3041
  188loPI   C2B 3006   6.167   6.752   8.895  0.1155 -0.0614 -0.0572
  188loPI   C3B 3007   6.197   6.615   8.585 -0.0007 -0.4165  0.2000
  188loPI   C4B 3008   6.150   6.640   8.168  0.0869  0.0899 -0.0100
  189loPI    C1 3009  16.352  12.210  10.748 -0.1573 -0.2000 -0.0451
  189loPI    C2 3010  15.984  12.182  10.903 -0.1257  0.3564  0.1550
  189loPI    C3 3011  16.304  12.095  11.128 -0.1289 -0.2538 -0.0577
  189loPI   PO4 3012  16.382  12.339  10.555  0.0245 -0.1630  0.1206
  189loPI   GL1 3013  16.153  12.344  10.120 -0.3216 -0.2044  0.2002
  189loPI   GL2 3014  16.265  12.644  10.071 -0.1187 -0.1562 -0.2539
  189loPI   C1A 3015  16.336  12.303   9.648 -0.0339  0.0528  0.1703
  189loPI   C2A 3016  16.387  12.218   9.291 -0.0220  0.0429  0.1519
  189loPI   C3A 3017  16.290  12.095   8.921  0.0272  0.0039 -0.0810
  189loPI   C4A 3018  16.284  12.157   8.517  0.0787  0.0373  0.0910
  189loPI   C5A 3019  16.363  12.232   8.181  0.2060 -0.2607  0.1037
  189loPI   C6A 3020  16.277  12.292   7.738  0.2139 -0.2062  0.1865
  189loPI   C1B 3021  16.376  12.786   9.660 -0.5471 -0.2132 -0.1800
  189loPI   C2B 3022  16.457  12.673   9.279  0.2502  0.0713  0.0564
  189loPI   C3B 3023  16.451  12.729   8.844 -0.0111 -0.0552 -0.0532
  189loPI   C4B 3024  16.433  12.655   8.473 -0.2268  0.0706  0.0177
  190loPI    C1 3025  10.404  12.362   9.986 -0.0679 -0.0207 -0.0786
  190loPI    C2 3026  10.590  12.360  10.341  0.1023 -0.1235 -0.1668
  190loPI    C3 3027  10.509  12.707  10.159 -0.3077 -0.0528  0.1364
  190loPI   PO4 3028  10.468  12.242   9.866  0.3969 -0.1008  0.0208
  190loPI   GL1 3029  10.272  12.404   9.489 -0.2293  0.0384  0.0986
  190loPI   GL2 3030  10.005  12.531   9.337 -0.3037  0.3376  0.1865
  190loPI   C1A 3031  10.447  12.199   9.127  0.2179  0.1257  0.0275
  190loPI   C2A 3032  10.693  12.028   8.759  0.2358 -0.0137 -0.2287
  190loPI   C3A 3033  10.903  11.891   8.342  0.1891  0.0072 -0.1476
  190loPI   C4A 3034  10.876  11.658   8.020  0.2137  0.1526  0.1173
  190loPI   C5A 3035  11.064  11.517   7.734  0.2043  0.1166 -0.1002
  190loPI   C6A 3036  10.774  11.224   7.506 -0.0600 -0.4032 -0.0416
  190loPI   C1B 3037   9.997  12.427   8.964  0.2815 -0.0336  0.0050
  190loPI   C2B 3038  10.058  12.375   8.576 -0.1507  0.2599  0.2336
  190loPI   C3B 3039   9.988  12.451   8.166 -0.1490 -0.1337  0.3760
  190loPI   C4B 3040  10.012  12.716   7.769  0.1303 -0.4244  0.0216
  191loPI    C1 3041  14.207  11.425  10.584  0.2776 -0.0474 -0.2814
  191loPI    C2 3042  13.996  11.416  10.924  0.0230  0.0795 -0.4334
  191loPI    C3 3043  14.395  11.386  10.936  0.0137  0.0444 -0.1275
  191loPI   PO4 3044  14.167  11.570  10.380 -0.1762 -0.0221 -0.1120
  191loPI   GL1 3045  14.242  11.457   9.922  0.0142 -0.0677 -0.0510
  191loPI   GL2 3046  14.178  11.100   9.819 -0.0571 -0.0105  0.1543
  191loPI   C1A 3047  14.360  11.614   9.578  0.2611  0.0576 -0.0073
  191loPI   C2A 3048  14.329  11.666   9.135 -0.1396 -0.0539 -0.2208
  191loPI   C3A 3049  14.364  11.648   8.653 -0.0258 -0.1722  0.0316
  191loPI   C4A 3050  14.127  11.188   8.487 -0.1183  0.0049  0.1497
  191loPI   C5A 3051  13.927  10.986   8.013 -0.1543  0.1481  0.1157
  191loPI   C6A 3052  13.617  11.099   7.648 -0.3577 -0.0089  0.1397
  191loPI   C1B 3053  14.033  11.147   9.352  0.0115  0.0479  0.1943
  191loPI   C2B 3054  14.017  11.293   8.938 -0.0795 -0.2233  0.0099
  191loPI   C3B 3055  13.821  11.559   8.542  0.0386 -0.0270  0.0881
  191loPI   C4B 3056  13.672  11.432   8.164 -0.5065 -0.1931 -0.0724
  192loPI    C1 3057   2.501  16.209  11.108 -0.0622  0.1824  0.1156
  192loPI    C2 3058   2.744  15.904  11.196 -0.2499  0.0342  0.1268
  192loPI    C3 3059   2.703  16.208  11.453  0.1419  0.2024 -0.0028
  192loPI   PO4 3060   2.538  16.406  10.875  0.2474  0.1938  0.2265
  192loPI   GL1 3061   2.223  16.529  10.507 -0.1417 -0.0253  0.1294
  192loPI   GL2 3062   2.201  16.723  10.243  0.2100 -0.2736  0.2375
  192loPI   C1A 3063   2.242  16.348   9.991 -0.1546  0.3557 -0.1259
  192loPI   C2A 3064   2.318  16.280   9.452  0.0645 -0.1094  0.2892
  192loPI   C3A 3065   2.302  16.269   8.991 -0.0106  0.2464 -0.3371
  192loPI   C4A 3066   2.140  16.379   8.645 -0.0640  0.0524  0.2577
  192loPI   C5A 3067   2.225  16.336   8.196  0.3280 -0.4708 -0.1739
  192loPI   C6A 3068   2.052  16.083   7.987 -0.0331  0.0209  0.2120
  192loPI   C1B 3069   2.410  16.765   9.751 -0.0214  0.0685 -0.3262
  192loPI   C2B 3070   2.472  16.737   9.312 -0.1543  0.0833  0.0983
  192loPI   C3B 3071   2.334  16.773   8.915 -0.0286 -0.0412 -0.0475
  192loPI   C4B 3072   2.320  16.839   8.488 -0.1331  0.2351  0.2870
  193loPI    C1 3073  14.525  13.997  10.752 -0.1063 -0.3889  0.0004
  193loPI    C2 3074  14.691  13.899  11.103 -0.0753 -0.1632  0.0501
  193loPI    C3 3075  14.339  14.089  11.094  0.0878  0.1419 -0.0281
  193loPI   PO4 3076  14.679  13.998  10.628 -0.0737 -0.2861 -0.0812
  193loPI   GL1 3077  14.869  14.001  10.293 -0.2566 -0.1630 -0.2765
  193loPI   GL2 3078  14.474  13.945  10.201  0.1102  0.2337 -0.1109
  193loPI   C1A 3079  14.892  14.069   9.918 -0.1544 -0.0204  0.1025
  193loPI   C2A 3080  14.810  14.029   9.576  0.1825 -0.0895 -0.0808
  193loPI   C3A 3081  14.915  14.201   9.157 -0.1252 -0.2649 -0.0377
  193loPI   C4A 3082  15.028  14.148   8.771  0.2217  0.0472  0.0525
  193loPI   C5A 3083  14.938  14.222   8.329  0.0220 -0.0233 -0.0023
  193loPI   C6A 3084  14.688  14.306   7.890  0.1118  0.0666  0.2496
  193loPI   C1B 3085  14.406  13.908   9.854  0.2086 -0.0707  0.3794
  193loPI   C2B 3086  14.293  13.943   9.504  0.1962 -0.1493  0.1794
  193loPI   C3B 3087  14.329  14.021   9.076 -0.0715 -0.1172 -0.2766
  193loPI   C4B 3088  14.509  13.989   8.744 -0.1312 -0.1824  0.2183
  194loPI    C1 3089   6.017   7.288  10.500  0.2266  0.0318 -0.1996
  194loPI    C2 3090   6.371   7.473  10.478  0.2335  0.0320 -0.0931
  194loPI    C3 3091   6.249   7.315  10.825  0.0041  0.2812 -0.0573
  194loPI   PO4 3092   5.970   7.228  10.243 -0.0727  0.2779 -0.1800
  194loPI   GL1 3093   5.942   7.066   9.820 -0.1330  0.2022  0.1764
  194loPI   GL2 3094   6.181   7.197   9.569  0.0192  0.3497  0.0237
  194loPI   C1A 3095   5.666   7.035   9.388  0.0747  0.1419  0.0439
  194loPI   C2A 3096   5.775   7.023   9.009 -0.1256 -0.0093 -0.3788
  194loPI   C3A 3097   5.737   6.913   8.603 -0.1033 -0.1755  0.3651
  194loPI   C4A 3098   5.637   6.678   8.347  0.0867 -0.3242  0.0550
  194loPI   C5A 3099   5.590   6.509   7.878 -0.2310  0.0675 -0.2561
  194loPI   C6A 3100   5.317   6.604   7.502 -0.1460  0.2084 -0.1260
  194loPI   C1B 3101   5.944   7.458   9.329  0.1016 -0.2457 -0.1605
  194loPI   C2B 3102   5.817   7.623   8.921 -0.0889  0.1918 -0.1318
  194loPI   C3B 3103   5.800   7.596   8.517  0.2866 -0.0063  0.0090
  194loPI   C4B 3104   5.842   7.541   8.004  0.2102 -0.0562 -0.1875
  195loPI    C1 3105  14.300   0.799  11.197 -0.0538  0.0760 -0.4262
  195loPI    C2 3106  14.104   0.453  11.151  0.0990 -0.1313  0.3511
  195loPI    C3 3107  13.908   0.779  11.275  0.0555 -0.0713  0.1278
  195loPI   PO4 3108  14.413   0.800  11.012  0.1517 -0.2522  0.2179
  195loPI   GL1 3109  14.334   0.794  10.582  0.0071  0.3276  0.2488
  195loPI   GL2 3110  13.983   0.700  10.641  0.1329  0.0555  0.2400
  195loPI   C1A 3111  14.261   0.819  10.071 -0.1320  0.1709  0.2293
  195loPI   C2A 3112  14.340   0.796   9.695  0.4776 -0.0711  0.3664
  195loPI   C3A 3113  14.293   0.819   9.330  0.2014  0.3745  0.0751
  195loPI   C4A 3114  14.327   0.859   8.928 -0.0076 -0.0800 -0.0251
  195loPI   C5A 3115  14.613   0.733   8.571 -0.1516  0.1008 -0.0092
  195loPI   C6A 3116  14.799   1.028   8.236 -0.0099 -0.0910 -0.3311
  195loPI   C1B 3117  13.759   0.414  10.430 -0.0154  0.2421  0.2641
  195loPI   C2B 3118  13.599   0.081  10.055 -0.0433  0.0616  0.3467
  195loPI   C3B 3119  13.712   0.072   9.656  0.1608 -0.0026  0.0981
  195loPI   C4B 3120  13.754   0.156   9.180  0.0922 -0.2958  0.2428
  196loPI    C1 3121  17.172  16.492  10.866 -0.1406 -0.1451 -0.2009
  196loPI    C2 3122  17.353  16.214  11.090 -0.0369  0.0965  0.0208
  196loPI    C3 3123  17.023  16.395  11.224 -0.0413  0.1591 -0.0733
  196loPI   PO4 3124  17.400  16.400  10.612 -0.2125 -0.0048 -0.1701
  196loPI   GL1 3125  17.212  16.161  10.196 -0.1653  0.1360  0.1585
  196loPI   GL2 3126  17.287  15.855  10.156 -0.0807  0.0266  0.0578
  196loPI   C1A 3127  17.250  16.177   9.729  0.2116 -0.4163  0.1463
  196loPI   C2A 3128  17.274  16.233   9.306  0.2593 -0.3638 -0.0003
  196loPI   C3A 3129  17.282  16.262   8.770 -0.0102  0.1109  0.0469
  196loPI   C4A 3130  17.509  16.133   8.313 -0.0688 -0.1768 -0.0121
  196loPI   C5A 3131  17.898  16.178   8.041 -0.1610 -0.2864 -0.0483
  196loPI   C6A 3132  18.219  16.445   7.790 -0.2531 -0.0755 -0.1172
  196loPI   C1B 3133  17.153  15.641   9.740  0.3399 -0.0966  0.2528
  196loPI   C2B 3134  17.155  15.683   9.291  0.0774 -0.1019  0.3775
  196loPI   C3B 3135  17.146  15.709   8.879 -0.2510  0.2314  0.1640
  196loPI   C4B 3136  17.103  15.829   8.429  0.0696  0.2803 -0.2260
  197loPI    C1 3137  16.926  11.484  10.488 -0.0913 -0.2641  0.1033
  197loPI    C2 3138  17.049  11.640  10.835 -0.0729 -0.0337 -0.0048
  197loPI    C3 3139  17.257  11.346  10.664  0.1015  0.0756  0.0170
  197loPI   PO4 3140  16.818  11.714  10.374 -0.1663  0.2119 -0.2989
  197loPI   GL1 3141  16.900  11.896  10.047  0.0657  0.1100  0.0885
  197loPI   GL2 3142  17.093  11.974   9.871 -0.1554 -0.0107 -0.0561
  197loPI   C1A 3143  16.687  11.913   9.614 -0.1319  0.0020  0.0924
  197loPI   C2A 3144  16.701  11.829   9.228 -0.4124 -0.5792  0.2743
  197loPI   C3A 3145  16.664  11.835   8.736 -0.1123  0.0037 -0.0507
  197loPI   C4A 3146  16.725  11.899   8.234  0.0605  0.3241  0.1641
  197loPI   C5A 3147  16.726  11.685   7.779  0.1711 -0.1037  0.1237
  197loPI   C6A 3148  16.631  11.600   7.359 -0.1955  0.3099  0.0518
  197loPI   C1B 3149  17.202  12.010   9.408 -0.3092 -0.0487 -0.1021
  197loPI   C2B 3150  17.209  12.070   8.942  0.0065  0.1669 -0.1864
  197loPI   C3B 3151  17.186  12.008   8.506 -0.3915  0.4201 -0.0374
  197loPI   C4B 3152  17.194  11.635   8.224  0.1592 -0.2267 -0.0295
  198loPI    C1 3153   1.690  17.817  11.220 -0.0074  0.0824 -0.0188
  198loPI    C2 3154   1.908  17.757  11.550  0.2072 -0.2104 -0.2087
  198loPI    C3 3155   1.541  17.601  11.522  0.0686  0.0689  0.0093
  198loPI   PO4 3156   1.928  17.685  11.043 -0.1026  0.0788  0.2007
  198loPI   GL1 3157   2.045  17.689  10.648 -0.3968  0.2172 -0.2430
  198loPI   GL2 3158   2.318  17.926  10.780 -0.0383  0.0987  0.2668
  198loPI   C1A 3159   2.082  17.643  10.215  0.0608 -0.1710 -0.3185
  198loPI   C2A 3160   2.066  17.578   9.747 -0.0654 -0.1387  0.0475
  198loPI   C3A 3161   2.091  17.543   9.252  0.0158  0.2734  0.0969
  198loPI   C4A 3162   2.095  17.655   8.775  0.1026 -0.2494  0.3175
  198loPI   C5A 3163   1.675  17.664   8.593  0.2219 -0.2333  0.0442
  198loPI   C6A 3164   1.291  17.358   8.711  0.1555 -0.0133  0.0468
  198loPI   C1B 3165   2.281  18.079  10.357  0.0747 -0.1111 -0.2971
  198loPI   C2B 3166   2.216  18.119   9.941 -0.0506 -0.0690 -0.1157
  198loPI   C3B 3167   2.266  18.058   9.565  0.3399 -0.3238  0.0996
  198loPI   C4B 3168   2.240  18.186   9.161 -0.1774  0.3625  0.1812
  199loPI    C1 3169   6.467   9.811  10.541 -0.0538 -0.0639  0.0343
  199loPI    C2 3170   6.109   9.753  10.709 -0.0857  0.0606  0.0102
  199loPI    C3 3171   6.428   9.828  10.939  0.0071 -0.4560  0.0607
  199loPI   PO4 3172   6.405   9.644  10.328  0.3382  0.2236 -0.1293
  199loPI   GL1 3173   6.399   9.530   9.974  0.0945  0.2384  0.0294
  199loPI   GL2 3174   6.594   9.761   9.859  0.1970 -0.3844 -0.2994
  199loPI   C1A 3175   6.416   9.440   9.555  0.1677 -0.2011  0.1981
  199loPI   C2A 3176   6.375   9.478   9.136 -0.1369  0.1870 -0.0359
  199loPI   C3A 3177   6.279   9.511   8.698 -0.0795  0.0024  0.1055
  199loPI   C4A 3178   6.391   9.547   8.355  0.2688  0.2310  0.0416
  199loPI   C5A 3179   6.768   9.583   8.178  0.1418  0.0664  0.1512
  199loPI   C6A 3180   7.044   9.431   7.963 -0.0157  0.0360  0.0818
  199loPI   C1B 3181   6.163   9.856   9.566  0.2167  0.2850 -0.1562
  199loPI   C2B 3182   6.180   9.936   9.211 -0.2093 -0.0902  0.1973
  199loPI   C3B 3183   6.570   9.983   9.052 -0.1257  0.2095 -0.2881
  199loPI   C4B 3184   6.598   9.960   8.650  0.0832 -0.0514 -0.1659
  200loPI    C1 3185  13.059   2.642  10.813  0.0701 -0.2089 -0.0156
  200loPI    C2 3186  12.899   2.442  11.121  0.0288 -0.0388  0.0746
  200loPI    C3 3187  13.114   2.773  11.187  0.1587 -0.0933 -0.0684
  200loPI   PO4 3188  12.911   2.715  10.652 -0.0083 -0.1721 -0.4483
  200loPI   GL1 3189  12.798   2.628  10.328 -0.2655  0.3359 -0.0500
  200loPI   GL2 3190  12.907   2.349  10.296 -0.2030  0.1862  0.0360
  200loPI   C1A 3191  12.895   2.697   9.937 -0.0524  0.0445  0.0739
  200loPI   C2A 3192  12.829   2.847   9.543 -0.0757 -0.0718  0.1743
  200loPI   C3A 3193  12.929   2.705   9.246 -0.0243  0.1416  0.0973
  200loPI   C4A 3194  13.061   2.712   8.863 -0.0201 -0.0135  0.1288
  200loPI   C5A 3195  13.437   2.532   8.574  0.0764 -0.0440 -0.2293
  200loPI   C6A 3196  13.490   2.320   8.241  0.1040 -0.0595 -0.0787
  200loPI   C1B 3197  12.660   2.233  10.010  0.3004  0.3149 -0.0464
  200loPI   C2B 3198  12.717   2.224   9.529 -0.2446 -0.1286  0.0123
  200loPI   C3B 3199  12.730   2.251   9.187  0.0231 -0.0588  0.3372
  200loPI   C4B 3200  12.962   2.177   8.846 -0.1013 -0.0406  0.0789
  201loPI    C1 3201  16.697  14.695  10.855  0.2456 -0.2684  0.0654
  201loPI    C2 3202  16.936  14.967  11.024  0.0855 -0.0701 -0.0234
  201loPI    C3 3203  16.816  14.648  11.234  0.1859 -0.0167  0.1169
  201loPI   PO4 3204  16.792  14.711  10.562 -0.5491 -0.0280  0.1996
  201loPI   GL1 3205  16.875  14.534  10.156  0.2067  0.1493  0.1192
  201loPI   GL2 3206  17.134  14.346  10.246  0.1217 -0.3240  0.1177
  201loPI   C1A 3207  16.928  14.730   9.788 -0.0353 -0.0729 -0.0790
  201loPI   C2A 3208  16.875  14.729   9.395  0.2914  0.0696 -0.0231
  201loPI   C3A 3209  16.920  14.692   9.000 -0.1071 -0.0228 -0.0960
  201loPI   C4A 3210  16.918  14.722   8.595  0.0602 -0.1688 -0.1020
  201loPI   C5A 3211  16.952  14.591   8.145  0.2230  0.2271 -0.2731
  201loPI   C6A 3212  17.161  14.785   7.866 -0.1038 -0.2713 -0.1292
  201loPI   C1B 3213  17.282  14.395   9.831  0.3313 -0.0530 -0.0922
  201loPI   C2B 3214  17.233  14.414   9.396 -0.1863  0.2272  0.0480
  201loPI   C3B 3215  17.309  14.367   8.931  0.0992 -0.2766  0.0427
  201loPI   C4B 3216  17.289  14.358   8.401 -0.0496  0.1987 -0.2028
  202loPI    C1 3217  11.468  17.009  10.520 -0.2360  0.2742 -0.0982
  202loPI    C2 3218  11.495  17.273  10.819  0.2210  0.2985 -0.1545
  202loPI    C3 3219  11.547  16.883  10.891 -0.1705  0.2495 -0.1202
  202loPI   PO4 3220  11.376  17.223  10.311 -0.4500  0.1131  0.1436
  202loPI   GL1 3221  11.621  17.405  10.051 -0.0543  0.0612  0.1087
  202loPI   GL2 3222  11.536  17.811  10.049  0.1556 -0.0909  0.1445
  202loPI   C1A 3223  11.502  17.515   9.551 -0.0450 -0.3757  0.3278
  202loPI   C2A 3224  11.549  17.437   9.168 -0.0494  0.2004 -0.0814
  202loPI   C3A 3225  11.599  17.507   8.667 -0.0542 -0.0035 -0.0747
  202loPI   C4A 3226  11.533  17.500   8.235  0.0494  0.4264 -0.2061
  202loPI   C5A 3227  11.163  17.311   8.079 -0.0970 -0.2660  0.0042
  202loPI   C6A 3228  10.908  16.954   7.986  0.0975  0.0067  0.1584
  202loPI   C1B 3229  11.645  17.970   9.638  0.1285 -0.0947  0.1953
  202loPI   C2B 3230  11.718  17.974   9.184  0.1310  0.4298 -0.1829
  202loPI   C3B 3231  11.792  17.998   8.748 -0.1958 -0.1934  0.1019
  202loPI   C4B 3232  11.872  17.929   8.255  0.2283 -0.1757  0.2242
  203loPI    C1 3233  13.179  15.133  10.857  0.0101  0.2023  0.0178
  203loPI    C2 3234  13.307  14.854  11.113 -0.0782  0.0957 -0.0533
  203loPI    C3 3235  13.210  15.218  11.246  0.0790  0.1065  0.0337
  203loPI   PO4 3236  13.118  14.989  10.668 -0.0315  0.2348 -0.1659
  203loPI   GL1 3237  13.097  14.947  10.167 -0.4620  0.4164 -0.0705
  203loPI   GL2 3238  13.277  15.119   9.921 -0.0796 -0.0965 -0.2041
  203loPI   C1A 3239  13.141  14.649   9.783  0.0993 -0.1786  0.3664
  203loPI   C2A 3240  13.217  14.578   9.336 -0.0289  0.0029  0.0552
  203loPI   C3A 3241  13.231  14.583   8.890  0.0110 -0.1450 -0.1217
  203loPI   C4A 3242  13.294  14.629   8.463 -0.1884 -0.2443 -0.4104
  203loPI   C5A 3243  13.218  14.941   7.930  0.2303 -0.1369  0.0204
  203loPI   C6A 3244  13.162  15.091   7.520  0.0336  0.0701 -0.0569
  203loPI   C1B 3245  13.330  15.045   9.551 -0.0082  0.1279 -0.1285
  203loPI   C2B 3246  13.370  15.114   9.181  0.0064 -0.2336  0.0791
  203loPI   C3B 3247  13.417  15.125   8.749  0.3860  0.0234  0.0694
  203loPI   C4B 3248  13.441  15.207   8.293  0.1414  0.2051  0.0539
  204loPI    C1 3249   6.800   3.336  10.503 -0.0478 -0.0436 -0.1644
  204loPI    C2 3250   7.013   3.234  10.826 -0.1499 -0.2627 -0.1646
  204loPI    C3 3251   6.619   3.162  10.815 -0.2036  0.0262 -0.2145
  204loPI   PO4 3252   6.833   3.204  10.319  0.0765  0.1070 -0.0669
  204loPI   GL1 3253   6.752   3.293   9.818 -0.1051  0.2505 -0.2364
  204loPI   GL2 3254   7.033   3.483   9.932 -0.0134 -0.3349  0.2812
  204loPI   C1A 3255   6.559   3.230   9.497 -0.2546 -0.0166  0.1514
  204loPI   C2A 3256   6.483   2.847   9.186  0.2532  0.0363  0.0205
  204loPI   C3A 3257   6.283   2.841   8.791  0.0436  0.1338 -0.1939
  204loPI   C4A 3258   6.365   2.809   8.367 -0.0822 -0.0986 -0.0477
  204loPI   C5A 3259   6.255   2.933   7.930  0.1944  0.3428 -0.2549
  204loPI   C6A 3260   5.907   2.998   7.610  0.0348 -0.0030 -0.0782
  204loPI   C1B 3261   6.905   3.653   9.500 -0.3714  0.1281 -0.1361
  204loPI   C2B 3262   6.755   3.554   9.009 -0.2184 -0.0640 -0.1388
  204loPI   C3B 3263   6.409   3.321   8.872  0.1313 -0.4145  0.0807
  204loPI   C4B 3264   6.130   3.296   8.468 -0.0111 -0.0474 -0.0072
  205loPI    C1 3265   4.264  13.264  10.748 -0.0861 -0.0528 -0.2236
  205loPI    C2 3266   4.321  13.502  10.432 -0.0655 -0.0338 -0.2057
  205loPI    C3 3267   4.121  13.638  10.750  0.0040 -0.0183 -0.1685
  205loPI   PO4 3268   4.230  13.031  10.618  0.0775 -0.0935 -0.1515
  205loPI   GL1 3269   4.180  13.136  10.096  0.0332  0.0290  0.0120
  205loPI   GL2 3270   3.964  13.422  10.050  0.2001 -0.3923 -0.0335
  205loPI   C1A 3271   4.153  13.124   9.618 -0.0582 -0.0125 -0.4719
  205loPI   C2A 3272   4.260  12.997   9.255 -0.0543 -0.1799 -0.2087
  205loPI   C3A 3273   4.272  12.959   8.833  0.1265 -0.0196  0.2351
  205loPI   C4A 3274   4.187  12.962   8.420  0.0414  0.2008 -0.1115
  205loPI   C5A 3275   3.954  12.731   8.095 -0.1757 -0.0740  0.0057
  205loPI   C6A 3276   3.509  12.806   8.171 -0.2337  0.0770  0.0203
  205loPI   C1B 3277   3.788  13.513   9.731  0.1106  0.3831  0.0724
  205loPI   C2B 3278   3.860  13.469   9.343  0.1918 -0.0331 -0.1016
  205loPI   C3B 3279   3.856  13.243   8.901  0.0215  0.5004  0.0420
  205loPI   C4B 3280   3.831  13.303   8.440  0.1175 -0.1856 -0.1265
  206loPI    C1 3281  12.267  13.862  10.504 -0.0680 -0.0934  0.0731
  206loPI    C2 3282  12.224  13.520  10.708  0.1408 -0.1853 -0.0341
  206loPI    C3 3283  12.494  13.545  10.414  0.0254  0.0282 -0.1240
  206loPI   PO4 3284  11.978  13.968  10.364 -0.1277 -0.3536  0.2971
  206loPI   GL1 3285  11.776  13.960  10.071  0.2037 -0.0703 -0.0236
  206loPI   GL2 3286  11.570  14.220  10.154 -0.0427 -0.0250  0.1411
  206loPI   C1A 3287  11.854  14.022   9.610  0.1512 -0.0588  0.0902
  206loPI   C2A 3288  11.898  13.978   9.130  0.1743 -0.1052  0.1894
  206loPI   C3A 3289  12.015  14.135   8.658  0.2474  0.1411  0.1248
  206loPI   C4A 3290  12.058  14.314   8.279 -0.0012 -0.0192  0.2313
  206loPI   C5A 3291  11.900  14.220   8.017 -0.0815 -0.1483  0.2549
  206loPI   C6A 3292  11.483  13.990   7.969  0.1706 -0.0769 -0.3884
  206loPI   C1B 3293  11.624  14.404   9.745  0.2298 -0.0342 -0.2629
  206loPI   C2B 3294  11.569  14.312   9.350 -0.1734  0.0057 -0.0421
  206loPI   C3B 3295  11.470  14.340   8.977  0.1254 -0.1304  0.2198
  206loPI   C4B 3296  11.119  14.262   8.828 -0.0842  0.1768 -0.0439
  207loPI    C1 3297  15.152  10.448  10.371 -0.0929  0.1431  0.2051
  207loPI    C2 3298  15.451  10.697  10.279 -0.0775  0.0207 -0.0860
  207loPI    C3 3299  15.439  10.523  10.639  0.1119  0.1533 -0.0143
  207loPI   PO4 3300  14.940  10.376  10.191 -0.1489  0.2863  0.3066
  207loPI   GL1 3301  14.913  10.378   9.792  0.0796 -0.1260 -0.0112
  207loPI   GL2 3302  14.580  10.316   9.767  0.1910  0.0479  0.5090
  207loPI   C1A 3303  15.016  10.309   9.343 -0.1556 -0.1150 -0.5101
  207loPI   C2A 3304  14.987  10.354   8.811  0.0339  0.1826 -0.0479
  207loPI   C3A 3305  14.995  10.419   8.395  0.1091  0.1156  0.0133
  207loPI   C4A 3306  15.063  10.504   7.934  0.3601  0.1636 -0.1634
  207loPI   C5A 3307  15.382  10.683   7.699  0.1744 -0.0383 -0.1635
  207loPI   C6A 3308  15.791  10.701   7.665 -0.0346 -0.1175 -0.0486
  207loPI   C1B 3309  14.534  10.227   9.382  0.0707 -0.0115 -0.1347
  207loPI   C2B 3310  14.526  10.240   8.913  0.1712  0.0698  0.3048
  207loPI   C3B 3311  14.563  10.283   8.512 -0.1325 -0.3894  0.0195
  207loPI   C4B 3312  14.549  10.379   8.078  0.1882 -0.0303 -0.0659
  208loPI    C1 3313   6.386  17.420  10.752 -0.0326 -0.1612  0.1456
  208loPI    C2 3314   6.404  17.136  11.033  0.2628 -0.0478  0.2454
  208loPI    C3 3315   6.332  17.516  11.136 -0.0569 -0.0713  0.1200
  208loPI   PO4 3316   6.324  17.274  10.535 -0.2764 -0.1329 -0.1836
  208loPI   GL1 3317   6.125  17.346  10.116  0.0626 -0.2464  0.0807
  208loPI   GL2 3318   6.341  17.286   9.975  0.1315 -0.2000  0.2201
  208loPI   C1A 3319   5.918  17.253   9.698  0.3643  0.0574 -0.0610
  208loPI   C2A 3320   5.825  17.151   9.248 -0.0828 -0.0652 -0.0989
  208loPI   C3A 3321   5.755  17.220   8.916  0.0877  0.5767 -0.2678
  208loPI   C4A 3322   5.783  17.209   8.524 -0.0978  0.0499  0.2072
  208loPI   C5A 3323   5.712  17.225   8.158 -0.3228  0.1657  0.2667
  208loPI   C6A 3324   5.379  17.599   8.026  0.3079 -0.0386 -0.2739
  208loPI   C1B 3325   6.395  17.263   9.556 -0.2264 -0.0769 -0.2200
  208loPI   C2B 3326   6.310  17.338   9.140  0.1361 -0.1382 -0.1876
  208loPI   C3B 3327   6.287  17.346   8.648 -0.0680  0.0100  0.0259
  208loPI   C4B 3328   6.399  17.440   8.179  0.0761 -0.0557  0.1322
  209loPI    C1 3329  13.972   6.955  10.945 -0.1083  0.1607  0.0648
  209loPI    C2 3330  14.183   7.249  11.114 -0.0135  0.0574  0.1272
  209loPI    C3 3331  13.809   7.176  11.236 -0.0076  0.0975  0.1701
  209loPI   PO4 3332  13.957   7.007  10.710 -0.0692  0.1342 -0.3610
  209loPI   GL1 3333  13.963   7.136  10.309  0.0047  0.2170  0.2884
  209loPI   GL2 3334  14.117   6.809  10.158 -0.0188  0.1899  0.4326
  209loPI   C1A 3335  13.951   7.327   9.844  0.2217 -0.0800 -0.4845
  209loPI   C2A 3336  14.006   7.340   9.372  0.4405 -0.2958 -0.0224
  209loPI   C3A 3337  14.121   7.349   8.951  0.1864  0.2893  0.2012
  209loPI   C4A 3338  14.118   7.441   8.500 -0.1391  0.1456  0.1335
  209loPI   C5A 3339  13.966   7.797   8.194  0.1179  0.0913 -0.1404
  209loPI   C6A 3340  13.665   8.058   8.067 -0.0535  0.0107  0.0055
  209loPI   C1B 3341  13.930   6.819   9.758  0.0816 -0.0408 -0.1794
  209loPI   C2B 3342  14.029   6.858   9.300 -0.0183  0.1241 -0.0862
  209loPI   C3B 3343  13.971   6.849   8.832  0.0135 -0.1663 -0.1616
  209loPI   C4B 3344  13.897   6.761   8.377  0.1001  0.3336  0.1365
  210loPI    C1 3345   7.204  15.512  10.799 -0.2385 -0.3733  0.3614
  210loPI    C2 3346   7.499  15.249  10.743  0.1222  0.1368 -0.2805
  210loPI    C3 3347   7.538  15.538  11.017  0.0169 -0.0634 -0.0507
  210loPI   PO4 3348   7.172  15.565  10.568 -0.0670  0.0848 -0.2515
  210loPI   GL1 3349   7.144  15.498  10.121  0.3030  0.2469 -0.1954
  210loPI   GL2 3350   7.383  15.220  10.267 -0.0101  0.1922  0.1427
  210loPI   C1A 3351   7.037  15.586   9.718 -0.2420  0.3164 -0.2228
  210loPI   C2A 3352   6.953  15.655   9.263 -0.1452  0.0563  0.0640
  210loPI   C3A 3353   6.783  15.632   8.859  0.0590 -0.2372  0.0180
  210loPI   C4A 3354   6.791  15.666   8.443  0.0781  0.2476 -0.0557
  210loPI   C5A 3355   6.402  15.633   8.144 -0.2192  0.0998 -0.0448
  210loPI   C6A 3356   6.046  15.623   7.985 -0.0737 -0.1862 -0.0675
  210loPI   C1B 3357   7.351  15.058   9.813  0.4433 -0.0518  0.0224
  210loPI   C2B 3358   7.221  15.185   9.476 -0.2057 -0.1942 -0.3259
  210loPI   C3B 3359   7.288  15.330   9.046 -0.0184  0.2033  0.3825
  210loPI   C4B 3360   7.263  15.305   8.567  0.0045  0.2291  0.0002
  211loPI    C1 3361   8.439  16.754  10.533 -0.1539  0.0860 -0.0884
  211loPI    C2 3362   8.759  16.966  10.645 -0.0406 -0.0944 -0.0661
  211loPI    C3 3363   8.487  16.856  10.917  0.1076 -0.3204 -0.0066
  211loPI   PO4 3364   8.427  16.829  10.326 -0.0148 -0.2264  0.3042
  211loPI   GL1 3365   8.373  16.680   9.975 -0.0413 -0.2382  0.0954
  211loPI   GL2 3366   8.075  16.635   9.886 -0.2792  0.1775 -0.1073
  211loPI   C1A 3367   8.623  16.863   9.609  0.1279 -0.0341 -0.1887
  211loPI   C2A 3368   8.517  17.057   9.219  0.3552 -0.2670  0.0086
  211loPI   C3A 3369   8.569  17.090   8.825  0.0909 -0.2597 -0.0406
  211loPI   C4A 3370   8.617  17.348   8.381 -0.1712  0.1599 -0.1126
  211loPI   C5A 3371   8.928  17.688   8.134 -0.1214  0.0787 -0.2832
  211loPI   C6A 3372   8.959  17.868   7.781  0.2314  0.0445  0.0404
  211loPI   C1B 3373   8.126  16.784   9.376 -0.1472  0.0113  0.0342
  211loPI   C2B 3374   8.013  16.870   8.968 -0.2104  0.0213 -0.3244
  211loPI   C3B 3375   8.115  17.069   8.542 -0.0998 -0.2159  0.0444
  211loPI   C4B 3376   8.195  17.247   8.132  0.0330  0.0582  0.2265
  212loPI    C1 3377  15.915   3.785  11.166 -0.0710 -0.1429  0.0140
  212loPI    C2 3378  16.267   3.774  11.354  0.0190 -0.1931 -0.1554
  212loPI    C3 3379  15.949   3.936  11.535  0.1584 -0.0324 -0.0504
  212loPI   PO4 3380  16.004   3.834  10.949 -0.0287  0.0571 -0.2336
  212loPI   GL1 3381  16.074   3.946  10.562 -0.0091 -0.0246  0.3018
  212loPI   GL2 3382  16.062   3.651  10.482  0.1622  0.0178  0.1508
  212loPI   C1A 3383  16.132   4.043  10.103  0.2358 -0.1253  0.1617
  212loPI   C2A 3384  16.073   4.056   9.641 -0.0323  0.3206  0.1566
  212loPI   C3A 3385  16.033   4.109   9.200 -0.0517  0.1283  0.2419
  212loPI   C4A 3386  16.129   4.060   8.718 -0.2793  0.1683  0.2031
  212loPI   C5A 3387  16.454   4.101   8.347  0.3193  0.0895 -0.4631
  212loPI   C6A 3388  16.539   3.993   7.971 -0.1177 -0.1995 -0.0238
  212loPI   C1B 3389  16.407   3.663  10.210  0.2016 -0.1586  0.1081
  212loPI   C2B 3390  16.395   3.699   9.734 -0.2663  0.3777  0.0761
  212loPI   C3B 3391  16.466   3.749   9.459  0.0123 -0.1143  0.0764
  212loPI   C4B 3392  16.421   3.799   9.065 -0.1874  0.1182  0.5689
  213loPI    C1 3393  14.719   0.443  11.237  0.1584  0.0075 -0.0146
  213loPI    C2 3394  14.448   0.435  11.531  0.1830 -0.2373  0.0028
  213loPI    C3 3395  14.711   0.735  11.511 -0.0913  0.0068 -0.0185
  213loPI   PO4 3396  14.595   0.310  11.042 -0.0627  0.2183 -0.0159
  213loPI   GL1 3397  14.330   0.304  10.724 -0.4314 -0.1212  0.0224
  213loPI   GL2 3398  14.383   0.019  10.612 -0.1584 -0.1793  0.1513
  213loPI   C1A 3399  14.248   0.392  10.300  0.2841 -0.3247 -0.0642
  213loPI   C2A 3400  14.177   0.271   9.934 -0.2178 -0.0542 -0.0094
  213loPI   C3A 3401  14.191   0.301   9.419 -0.0761 -0.1738 -0.1366
  213loPI   C4A 3402  14.225   0.362   8.843  0.1300  0.1942 -0.1717
  213loPI   C5A 3403  14.066   0.592   8.483  0.2587  0.0106  0.0043
  213loPI   C6A 3404  14.238   0.706   8.147 -0.2650  0.0599 -0.2311
  213loPI   C1B 3405  14.450  -0.037  10.217  0.1078  0.0470  0.1226
  213loPI   C2B 3406  14.461  -0.073   9.707 -0.1183  0.2043 -0.0091
  213loPI   C3B 3407  14.564  -0.062   9.281  0.0073  0.3281 -0.0344
  213loPI   C4B 3408  14.635  -0.220   8.965  0.0243 -0.1142 -0.0001
  214loPI    C1 3409  13.752   3.391  11.138 -0.0351  0.0432 -0.1557
  214loPI    C2 3410  13.396   3.248  11.251  0.0087  0.1023  0.0607
  214loPI    C3 3411  13.662   3.363  11.527  0.0621  0.3852 -0.1054
  214loPI   PO4 3412  13.839   3.250  10.889  0.0413  0.0542  0.0687
  214loPI   GL1 3413  13.784   3.405  10.427 -0.0356 -0.0813 -0.0347
  214loPI   GL2 3414  13.847   3.112  10.411  0.1138  0.0786  0.0500
  214loPI   C1A 3415  13.968   3.585  10.075 -0.1663  0.1069 -0.1359
  214loPI   C2A 3416  14.103   3.630   9.745 -0.1067 -0.4568  0.0533
  214loPI   C3A 3417  14.092   3.588   9.328  0.1784  0.0640  0.2062
  214loPI   C4A 3418  14.087   3.495   8.907 -0.0187  0.1538  0.1436
  214loPI   C5A 3419  13.993   3.280   8.427 -0.4309  0.2445  0.0119
  214loPI   C6A 3420  13.587   3.316   8.183  0.1534 -0.0256 -0.0842
  214loPI   C1B 3421  13.859   3.094   9.994 -0.2660  0.1703 -0.0734
  214loPI   C2B 3422  14.022   3.024   9.567  0.1875 -0.0971 -0.3694
  214loPI   C3B 3423  13.963   3.013   9.228  0.1632 -0.1523  0.0771
  214loPI   C4B 3424  14.049   2.984   8.826 -0.4683 -0.0454  0.3363
  215loPI    C1 3425  14.510  14.480  10.863  0.1290 -0.0435 -0.0125
  215loPI    C2 3426  14.674  14.776  11.076 -0.0139  0.1809 -0.2091
  215loPI    C3 3427  14.738  14.395  11.181 -0.0699  0.2852  0.2242
  215loPI   PO4 3428  14.594  14.619  10.592 -0.0117  0.1742 -0.2547
  215loPI   GL1 3429  14.687  14.509  10.263 -0.0154  0.1337  0.3532
  215loPI   GL2 3430  15.031  14.577  10.227 -0.3176  0.0312  0.1775
  215loPI   C1A 3431  14.512  14.406   9.831  0.0450  0.0952 -0.0921
  215loPI   C2A 3432  14.566  14.473   9.340 -0.1013 -0.1949  0.1093
  215loPI   C3A 3433  14.526  14.461   8.942  0.3820  0.1286  0.1339
  215loPI   C4A 3434  14.558  14.485   8.461  0.3253  0.0262 -0.0858
  215loPI   C5A 3435  14.583  14.854   8.153  0.0147 -0.1914 -0.1442
  215loPI   C6A 3436  14.738  15.267   7.983 -0.1835  0.1477  0.1227
  215loPI   C1B 3437  14.986  14.564   9.754  0.1905  0.0388  0.3432
  215loPI   C2B 3438  15.064  14.715   9.330  0.0487  0.3643 -0.1424
  215loPI   C3B 3439  15.036  14.687   8.908  0.2292 -0.3175  0.0754
  215loPI   C4B 3440  15.119  14.695   8.460 -0.1121 -0.2678 -0.0304
  216loPI    C1 3441   6.604   1.906  10.524 -0.0403 -0.0140  0.0865
  216loPI    C2 3442   6.443   1.671  10.804  0.2198  0.0949  0.3326
  216loPI    C3 3443   6.781   1.871  10.881  0.2521  0.1883 -0.0340
  216loPI   PO4 3444   6.530   1.818  10.246 -0.1628 -0.3022  0.2591
  216loPI   GL1 3445   6.769   1.822   9.841  0.3148  0.3109 -0.3354
  216loPI   GL2 3446   6.743   1.470  10.034 -0.1388 -0.0224  0.3842
  216loPI   C1A 3447   6.806   1.915   9.416 -0.1846 -0.2237 -0.0980
  216loPI   C2A 3448   6.664   1.977   9.080 -0.2019 -0.1227 -0.1671
  216loPI   C3A 3449   6.580   1.892   8.619  0.5213 -0.0149 -0.2815
  216loPI   C4A 3450   6.378   1.928   8.228  0.4147  0.0245 -0.0068
  216loPI   C5A 3451   5.989   1.844   8.208 -0.1511  0.1427 -0.0770
  216loPI   C6A 3452   5.720   2.071   7.832  0.1893 -0.0395 -0.0678
  216loPI   C1B 3453   6.560   1.235   9.720  0.3748 -0.2956  0.4099
  216loPI   C2B 3454   6.810   1.083   9.340  0.3794 -0.0428 -0.0140
  216loPI   C3B 3455   6.801   0.991   8.953 -0.2670 -0.0856  0.2664
  216loPI   C4B 3456   6.731   0.976   8.577  0.2155 -0.1766 -0.0670
  217loPI    C1 3457   5.366  10.814  10.383 -0.0087  0.1262  0.2005
  217loPI    C2 3458   5.658  10.988  10.593  0.1678  0.1103 -0.0278
  217loPI    C3 3459   5.748  10.733  10.299 -0.0798  0.0103 -0.0193
  217loPI   PO4 3460   5.131  11.055  10.242  0.1790 -0.0748 -0.0080
  217loPI   GL1 3461   5.270  11.383   9.884  0.0649 -0.4425 -0.1933
  217loPI   GL2 3462   5.604  11.473   9.769  0.1112 -0.1963  0.1406
  217loPI   C1A 3463   5.216  11.447   9.388  0.1332  0.0955  0.0975
  217loPI   C2A 3464   5.163  11.472   8.945 -0.2303  0.2229 -0.0410
  217loPI   C3A 3465   5.067  11.604   8.616  0.2320  0.1846  0.0080
  217loPI   C4A 3466   4.902  11.843   8.255 -0.0639 -0.0529 -0.0121
  217loPI   C5A 3467   4.753  11.755   7.939 -0.2897  0.0499  0.1272
  217loPI   C6A 3468   4.669  11.634   7.392 -0.0728  0.0005 -0.2969
  217loPI   C1B 3469   5.913  11.635   9.501 -0.0796  0.1368 -0.1157
  217loPI   C2B 3470   6.000  11.793   9.148 -0.0615 -0.4510  0.2755
  217loPI   C3B 3471   5.926  12.128   8.885 -0.1761 -0.2559 -0.0937
  217loPI   C4B 3472   5.957  12.162   8.467 -0.0366 -0.2122  0.2410
  218loPI    C1 3473  15.039   4.951  10.856  0.0054  0.1051  0.0408
  218loPI    C2 3474  15.329   4.928  11.130  0.2421  0.2978 -0.1889
  218loPI    C3 3475  15.103   5.257  11.106  0.0860  0.1986 -0.0931
  218loPI   PO4 3476  15.110   4.861  10.614 -0.0355  0.2452  0.0089
  218loPI   GL1 3477  14.954   4.714  10.264  0.1717 -0.3122  0.3919
  218loPI   GL2 3478  14.737   4.444  10.253  0.0094 -0.0129  0.0575
  218loPI   C1A 3479  14.836   4.780   9.921 -0.2033 -0.1019 -0.1432
  218loPI   C2A 3480  14.795   4.747   9.540  0.0032 -0.0345 -0.0639
  218loPI   C3A 3481  14.798   4.675   9.168 -0.3120  0.0894  0.2285
  218loPI   C4A 3482  14.881   4.680   8.786  0.2451 -0.0048 -0.0584
  218loPI   C5A 3483  14.864   4.760   8.317 -0.1665  0.2022  0.5506
  218loPI   C6A 3484  14.788   5.148   8.046 -0.1037 -0.0570  0.2657
  218loPI   C1B 3485  14.774   4.257   9.812  0.2001  0.0393  0.0525
  218loPI   C2B 3486  14.749   4.136   9.419 -0.0303  0.0565 -0.0972
  218loPI   C3B 3487  14.614   4.181   8.942 -0.0327  0.0664  0.0935
  218loPI   C4B 3488  14.637   4.221   8.584  0.2100  0.1943 -0.0784
  219loPI    C1 3489   5.252   2.621  10.948 -0.0378  0.1477 -0.1747
  219loPI    C2 3490   5.619   2.762  11.023 -0.0618  0.0961  0.0482
  219loPI    C3 3491   5.573   2.394  10.872 -0.0182  0.1469 -0.0907
  219loPI   PO4 3492   5.130   2.730  10.800  0.1518 -0.1859  0.2935
  219loPI   GL1 3493   4.973   2.796  10.395  0.1429  0.1536  0.1808
  219loPI   GL2 3494   4.729   2.600  10.492 -0.1877 -0.0701 -0.1483
  219loPI   C1A 3495   5.006   2.737   9.936  0.4463 -0.1628 -0.4019
  219loPI   C2A 3496   4.838   2.818   9.414 -0.1912 -0.2583  0.1933
  219loPI   C3A 3497   4.802   2.845   8.966  0.2344  0.0349 -0.2978
  219loPI   C4A 3498   4.904   2.900   8.574  0.1759 -0.0155 -0.0351
  219loPI   C5A 3499   4.670   2.913   8.176 -0.1831  0.0871  0.1710
  219loPI   C6A 3500   4.479   3.153   7.844  0.1533 -0.0481 -0.2368
  219loPI   C1B 3501   4.532   2.666  10.128 -0.0715  0.1581  0.3154
  219loPI   C2B 3502   4.348   2.692   9.685 -0.1036  0.3250 -0.2208
  219loPI   C3B 3503   4.322   2.688   9.277 -0.0807  0.0646  0.1106
  219loPI   C4B 3504   4.255   2.675   8.821 -0.0094 -0.3690  0.1332
  220loPI    C1 3505  10.093   3.462  10.601 -0.0785  0.3297 -0.1051
  220loPI    C2 3506   9.705   3.375  10.558 -0.1530  0.5343  0.1259
  220loPI    C3 3507   9.821   3.636  10.838  0.1836  0.2243  0.2837
  220loPI   PO4 3508  10.191   3.579  10.396 -0.1631 -0.0361  0.0302
  220loPI   GL1 3509  10.419   3.455   9.979  0.2674 -0.1339 -0.1605
  220loPI   GL2 3510  10.147   3.306   9.735 -0.0714 -0.1105  0.0967
  220loPI   C1A 3511  10.593   3.241   9.552 -0.0326 -0.2713  0.1075
  220loPI   C2A 3512  10.582   3.048   9.170 -0.0949  0.4627 -0.0178
  220loPI   C3A 3513  10.709   2.939   8.813  0.0686 -0.1601  0.1259
  220loPI   C4A 3514  10.513   3.080   8.404 -0.1603 -0.0546  0.0883
  220loPI   C5A 3515  10.292   3.255   8.055 -0.0704 -0.1198  0.2271
  220loPI   C6A 3516  10.110   3.749   7.966  0.2135 -0.0703  0.0739
  220loPI   C1B 3517  10.069   3.301   9.305 -0.3447 -0.0374 -0.0055
  220loPI   C2B 3518   9.842   3.195   8.830  0.2299 -0.5541 -0.4444
  220loPI   C3B 3519   9.984   3.387   8.457  0.0884 -0.1352  0.0019
  220loPI   C4B 3520  10.338   3.657   8.424 -0.0201 -0.0844 -0.0023
  221loPI    C1 3521   0.755  15.324  10.826  0.1333  0.0356  0.0382
  221loPI    C2 3522   1.061  15.253  11.074  0.0982  0.1600  0.1180
  221loPI    C3 3523   0.814  15.560  11.143 -0.0200  0.0858  0.0300
  221loPI   PO4 3524   0.879  15.331  10.582 -0.1511 -0.0998  0.4845
  221loPI   GL1 3525   1.003  15.526  10.258 -0.2174 -0.1183 -0.2172
  221loPI   GL2 3526   1.121  15.224  10.136  0.3226  0.0486  0.0125
  221loPI   C1A 3527   0.745  15.765   9.887 -0.0712  0.0509  0.2484
  221loPI   C2A 3528   0.598  15.773   9.514  0.1956  0.0542 -0.0348
  221loPI   C3A 3529   0.662  15.883   8.975  0.1610  0.2131 -0.1200
  221loPI   C4A 3530   0.723  15.849   8.478  0.2399  0.0120 -0.4923
  221loPI   C5A 3531   0.551  16.100   8.161 -0.3030 -0.2269  0.2148
  221loPI   C6A 3532   0.235  16.058   7.742 -0.1914  0.0217 -0.0082
  221loPI   C1B 3533   1.061  15.434   9.768 -0.2650 -0.0241  0.2104
  221loPI   C2B 3534   1.082  15.528   9.353 -0.1938 -0.3495  0.1677
  221loPI   C3B 3535   1.221  15.471   8.908  0.1455 -0.0177  0.2512
  221loPI   C4B 3536   1.073  15.493   8.418  0.1308  0.4734 -0.0593
  222loPI    C1 3537  14.656  16.595  11.013 -0.1271  0.0682  0.0898
  222loPI    C2 3538  14.806  16.841  11.291  0.1711 -0.0104  0.0020
  222loPI    C3 3539  14.783  16.448  11.363 -0.1554  0.0202  0.0799
  222loPI   PO4 3540  14.884  16.667  10.798  0.1255  0.0321  0.1908
  222loPI   GL1 3541  14.893  16.608  10.431 -0.1033  0.3867  0.3829
  222loPI   GL2 3542  14.712  16.878  10.361 -0.0781  0.0718 -0.0367
  222loPI   C1A 3543  15.069  16.584   9.960 -0.3214 -0.1291 -0.0575
  222loPI   C2A 3544  15.158  16.554   9.498 -0.2391 -0.2122 -0.0438
  222loPI   C3A 3545  15.084  16.561   9.056 -0.2369 -0.0601  0.2649
  222loPI   C4A 3546  15.147  16.503   8.600  0.2720 -0.0107 -0.1061
  222loPI   C5A 3547  15.002  16.335   8.237  0.1491  0.1793 -0.1303
  222loPI   C6A 3548  14.730  16.274   7.810  0.0334  0.1289  0.4549
  222loPI   C1B 3549  14.648  16.868   9.920  0.0365  0.1609  0.3085
  222loPI   C2B 3550  14.594  16.957   9.449 -0.1077  0.4152  0.1709
  222loPI   C3B 3551  14.661  16.894   8.957  0.0063 -0.1824 -0.0304
  222loPI   C4B 3552  14.702  16.848   8.545 -0.3707  0.0455  0.0407
  223loPI    C1 3553  11.781   1.974  11.250  0.0876  0.1413 -0.1601
  223loPI    C2 3554  11.869   1.586  11.206 -0.0685  0.0903 -0.0311
  223loPI    C3 3555  11.888   1.756  11.568  0.0031  0.2044 -0.0879
  223loPI   PO4 3556  11.799   2.065  10.989 -0.0597 -0.2207  0.0160
  223loPI   GL1 3557  11.868   2.177  10.556 -0.1460  0.1044 -0.0011
  223loPI   GL2 3558  12.122   2.238  10.513  0.0903 -0.2813 -0.3027
  223loPI   C1A 3559  11.854   2.368  10.050 -0.0240 -0.0627 -0.3133
  223loPI   C2A 3560  11.946   2.586   9.729 -0.3744  0.1174 -0.1085
  223loPI   C3A 3561  11.923   2.459   9.271 -0.3783  0.0253 -0.0244
  223loPI   C4A 3562  11.953   2.408   8.847  0.0817 -0.1377 -0.0516
  223loPI   C5A 3563  12.134   2.385   8.454 -0.0031  0.1204 -0.3944
  223loPI   C6A 3564  12.339   2.636   8.158  0.1494  0.2437  0.0126
  223loPI   C1B 3565  12.189   1.979  10.145 -0.1410  0.0048 -0.1355
  223loPI   C2B 3566  12.057   2.027   9.740 -0.3611  0.2212 -0.0544
  223loPI   C3B 3567  12.257   2.052   9.290 -0.3297  0.0088 -0.3520
  223loPI   C4B 3568  12.339   2.032   8.827 -0.2491  0.0471  0.3530
  224loPI    C1 3569   9.670  12.534  10.058  0.1451 -0.3626  0.1545
  224loPI    C2 3570   9.773  12.890  10.208  0.0181 -0.1711 -0.2019
  224loPI    C3 3571   9.558  12.635  10.428 -0.1541  0.0985 -0.0526
  224loPI   PO4 3572   9.709  12.622   9.798  0.1305  0.3547  0.1614
  224loPI   GL1 3573   9.472  12.713   9.555  0.0473  0.0707  0.0783
  224loPI   GL2 3574   9.244  12.597   9.400  0.1296  0.1469  0.0476
  224loPI   C1A 3575   9.595  12.801   9.059  0.2801  0.2035 -0.0445
  224loPI   C2A 3576   9.515  12.631   8.771  0.2616 -0.2565 -0.2175
  224loPI   C3A 3577   9.508  12.466   8.401  0.0574  0.1014  0.0341
  224loPI   C4A 3578   9.223  12.488   8.094 -0.1585 -0.0370  0.2076
  224loPI   C5A 3579   9.164  12.456   7.612 -0.1148 -0.0681 -0.2347
  224loPI   C6A 3580   9.176  12.767   7.203  0.2683  0.0936  0.1020
  224loPI   C1B 3581   9.053  12.442   9.024  0.0774 -0.2160 -0.3405
  224loPI   C2B 3582   9.026  12.515   8.531 -0.2775  0.0118  0.4923
  224loPI   C3B 3583   8.690  12.281   8.154 -0.2772 -0.2159 -0.0468
  224loPI   C4B 3584   8.616  12.286   7.734  0.1919  0.2423  0.0788
  225loPI    C1 3585  13.492  17.301  10.956 -0.1143 -0.1669 -0.0587
  225loPI    C2 3586  13.616  17.601  11.189 -0.2508  0.0672 -0.2821
  225loPI    C3 3587  13.406  17.300  11.347  0.0388 -0.0042 -0.0234
  225loPI   PO4 3588  13.726  17.255  10.864 -0.0293 -0.0702 -0.0261
  225loPI   GL1 3589  13.892  17.376  10.420  0.0242 -0.0254 -0.1255
  225loPI   GL2 3590  13.967  17.589  10.319 -0.0197  0.0874  0.1681
  225loPI   C1A 3591  13.786  17.163  10.026 -0.0405  0.1627 -0.2056
  225loPI   C2A 3592  13.740  17.193   9.601  0.0450 -0.2108  0.0794
  225loPI   C3A 3593  13.807  17.138   9.129 -0.0297  0.2763  0.0233
  225loPI   C4A 3594  13.806  17.199   8.660  0.0175 -0.1677  0.0345
  225loPI   C5A 3595  13.695  17.133   8.275  0.0569  0.2081  0.3611
  225loPI   C6A 3596  13.512  17.361   7.834  0.0638 -0.1440  0.0589
  225loPI   C1B 3597  13.991  17.540   9.873 -0.2713 -0.0246 -0.3817
  225loPI   C2B 3598  13.920  17.676   9.503 -0.1160 -0.3580  0.0535
  225loPI   C3B 3599  13.947  17.673   9.108  0.1030 -0.0775 -0.2857
  225loPI   C4B 3600  13.930  17.701   8.689 -0.1232  0.0643 -0.1061
  226loPI    C1 3601  10.622  16.716  10.695 -0.0757  0.0094 -0.2549
  226loPI    C2 3602  10.299  16.481  10.674 -0.2293  0.1860  0.0602
  226loPI    C3 3603  10.432  16.607  11.030  0.3335 -0.0796 -0.0445
  226loPI   PO4 3604  10.603  16.797  10.472  0.1039  0.0228 -0.3116
  226loPI   GL1 3605  10.745  16.874   9.968  0.5074 -0.0229 -0.0905
  226loPI   GL2 3606  10.483  16.988  10.039  0.0010  0.0779 -0.1938
  226loPI   C1A 3607  10.936  16.685   9.667 -0.0166 -0.0055  0.2460
  226loPI   C2A 3608  10.996  16.792   9.248  0.2277 -0.1403  0.0055
  226loPI   C3A 3609  11.085  16.745   8.781  0.0505  0.1393  0.0962
  226loPI   C4A 3610  10.878  16.658   8.477 -0.1249  0.1199  0.0455
  226loPI   C5A 3611  10.646  16.442   8.225 -0.2471 -0.0650 -0.1534
  226loPI   C6A 3612  10.273  16.079   8.138 -0.1234 -0.0724  0.0638
  226loPI   C1B 3613  10.503  17.168   9.655  0.0094  0.0201 -0.2297
  226loPI   C2B 3614  10.597  17.164   9.217 -0.0531 -0.2051 -0.1119
  226loPI   C3B 3615  10.671  17.091   8.851  0.3403 -0.3241 -0.4325
  226loPI   C4B 3616  10.757  17.193   8.413 -0.2220  0.3049 -0.5439
  227loPI    C1 3617   3.684   3.130  10.880 -0.2754  0.1060 -0.0524
  227loPI    C2 3618   3.314   3.139  11.032 -0.1437  0.0473  0.2808
  227loPI    C3 3619   3.625   3.051  11.267  0.0757  0.0185 -0.0132
  227loPI   PO4 3620   3.688   3.057  10.629  0.3273  0.1153  0.2409
  227loPI   GL1 3621   3.629   3.180  10.284 -0.2053  0.0246 -0.0697
  227loPI   GL2 3622   3.841   3.370  10.245 -0.3243  0.2010  0.0743
  227loPI   C1A 3623   3.549   2.974   9.964 -0.1402  0.1339 -0.1360
  227loPI   C2A 3624   3.422   3.008   9.599 -0.2787 -0.1287 -0.0373
  227loPI   C3A 3625   3.471   2.919   9.183  0.3234 -0.1178 -0.1368
  227loPI   C4A 3626   3.417   2.851   8.805  0.2983 -0.2028  0.1582
  227loPI   C5A 3627   3.415   2.515   8.457 -0.0645 -0.3531 -0.1347
  227loPI   C6A 3628   3.524   2.087   8.268 -0.3235  0.1921 -0.5153
  227loPI   C1B 3629   3.699   3.517   9.827 -0.0518 -0.0082 -0.0633
  227loPI   C2B 3630   3.601   3.481   9.366 -0.3518 -0.0000 -0.3394
  227loPI   C3B 3631   3.552   3.397   8.929 -0.2526  0.1550  0.2872
  227loPI   C4B 3632   3.609   3.393   8.451  0.1398  0.0233  0.1513
  228loPI    C1 3633   0.654   2.833  11.122 -0.1958 -0.1245  0.0960
  228loPI    C2 3634   0.974   2.843  11.362  0.0197  0.2528 -0.1959
  228loPI    C3 3635   0.606   2.866  11.518  0.1337 -0.0636  0.1338
  228loPI   PO4 3636   0.758   2.607  10.984 -0.0271 -0.2517  0.0057
  228loPI   GL1 3637   1.080   2.560  10.763 -0.0638 -0.2331 -0.1347
  228loPI   GL2 3638   1.278   2.435  10.724 -0.0322  0.0712 -0.1323
  228loPI   C1A 3639   1.000   2.647  10.313 -0.0619  0.2584 -0.2016
  228loPI   C2A 3640   1.142   2.686   9.952  0.1206  0.2289 -0.0368
  228loPI   C3A 3641   1.047   2.702   9.508 -0.1989 -0.2432 -0.4516
  228loPI   C4A 3642   0.998   2.766   9.094  0.3117 -0.1517  0.1030
  228loPI   C5A 3643   0.976   2.787   8.649 -0.3687 -0.0041 -0.1063
  228loPI   C6A 3644   1.020   2.911   8.229  0.0371  0.3329  0.1223
  228loPI   C1B 3645   1.395   2.348  10.196  0.3479 -0.0386 -0.0623
  228loPI   C2B 3646   1.448   2.328   9.817  0.0978 -0.0334  0.1656
  228loPI   C3B 3647   1.296   2.418   9.251 -0.0014 -0.1834 -0.1291
  228loPI   C4B 3648   1.388   2.374   8.817  0.1182  0.0786  0.0500
  229loPI    C1 3649   1.565   2.591  11.229 -0.0069 -0.1750  0.2290
  229loPI    C2 3650   1.747   2.456  10.899 -0.1275  0.0139  0.0829
  229loPI    C3 3651   1.960   2.533  11.229  0.0104 -0.0667  0.0132
  229loPI   PO4 3652   1.412   2.788  11.071 -0.2983  0.0291  0.2091
  229loPI   GL1 3653   1.436   2.933  10.673 -0.1505 -0.0730 -0.1817
  229loPI   GL2 3654   1.326   3.120  10.547 -0.1410 -0.2142  0.1911
  229loPI   C1A 3655   1.681   2.681  10.411  0.2581 -0.0586 -0.0263
  229loPI   C2A 3656   1.656   2.777  10.065  0.1873  0.2477 -0.0277
  229loPI   C3A 3657   1.508   2.792   9.682 -0.1446 -0.3839  0.1128
  229loPI   C4A 3658   1.485   2.882   9.241 -0.1051  0.0793  0.1242
  229loPI   C5A 3659   1.576   2.864   8.849  0.2023 -0.2973 -0.0321
  229loPI   C6A 3660   1.399   2.699   8.437  0.3585  0.0797 -0.1476
  229loPI   C1B 3661   1.291   3.127  10.035 -0.2867  0.0438  0.3664
  229loPI   C2B 3662   1.214   3.250   9.634  0.1025  0.1330  0.2865
  229loPI   C3B 3663   1.255   3.254   9.172  0.0021 -0.1380  0.0001
  229loPI   C4B 3664   1.159   3.208   8.720  0.2643  0.1471 -0.0159
  230loPI    C1 3665  13.672   3.737  10.814  0.1795 -0.4045  0.1950
  230loPI    C2 3666  13.313   3.778  10.987  0.1290 -0.0792  0.0212
  230loPI    C3 3667  13.388   3.462  10.752  0.0123 -0.2311  0.1853
  230loPI   PO4 3668  13.713   3.988  10.721  0.2144 -0.1636 -0.0536
  230loPI   GL1 3669  13.772   4.120  10.341  0.2274 -0.2044 -0.1035
  230loPI   GL2 3670  13.421   4.338  10.490 -0.3413  0.1107  0.1126
  230loPI   C1A 3671  13.774   4.017   9.878 -0.0942  0.4469 -0.1264
  230loPI   C2A 3672  13.736   3.931   9.462  0.0931 -0.0510  0.1677
  230loPI   C3A 3673  13.715   3.898   9.043 -0.2058 -0.2243  0.0469
  230loPI   C4A 3674  13.723   3.811   8.603  0.0935 -0.1741  0.1320
  230loPI   C5A 3675  13.726   3.780   8.095  0.0676  0.0305  0.0885
  230loPI   C6A 3676  13.726   3.671   7.680 -0.0425  0.1572  0.2067
  230loPI   C1B 3677  13.345   4.361  10.108 -0.0066 -0.2080  0.2611
  230loPI   C2B 3678  13.307   4.308   9.650  0.0208  0.0350  0.1786
  230loPI   C3B 3679  13.314   4.263   9.123 -0.0994 -0.3425 -0.0590
  230loPI   C4B 3680  13.282   4.205   8.639  0.1498  0.0148 -0.0678
  231loPI    C1 3681   6.377  11.047  10.307 -0.0042 -0.0210 -0.1129
  231loPI    C2 3682   6.217  10.925  10.653 -0.3040  0.0082 -0.2384
  231loPI    C3 3683   6.494  10.701  10.471 -0.2129 -0.0527 -0.0279
  231loPI   PO4 3684   6.153  11.004  10.109  0.0010 -0.0986  0.4384
  231loPI   GL1 3685   6.159  11.184   9.606 -0.1429  0.0466 -0.0626
  231loPI   GL2 3686   6.222  10.804   9.544 -0.1334  0.1434 -0.2389
  231loPI   C1A 3687   5.822  11.182   9.417  0.2872  0.0275  0.3058
  231loPI   C2A 3688   5.621  11.367   9.135 -0.0331  0.3765  0.0464
  231loPI   C3A 3689   5.745  11.556   8.802  0.2265  0.1780 -0.4569
  231loPI   C4A 3690   5.907  11.578   8.458  0.1623 -0.2213 -0.1158
  231loPI   C5A 3691   5.805  11.820   8.081  0.1679  0.0607 -0.3247
  231loPI   C6A 3692   5.721  12.217   7.892  0.0253  0.1826  0.0690
  231loPI   C1B 3693   6.594  10.539   9.336 -0.1183 -0.0385 -0.2354
  231loPI   C2B 3694   6.649  10.496   8.881  0.2407  0.0906  0.0573
  231loPI   C3B 3695   6.735  10.412   8.422  0.1112 -0.0797 -0.2643
  231loPI   C4B 3696   6.608  10.287   8.085  0.0227 -0.1697  0.1766
  232loPI    C1 3697   8.410   1.547  10.678 -0.0249 -0.0673 -0.0210
  232loPI    C2 3698   8.805   1.569  10.736  0.0539 -0.4753 -0.3544
  232loPI    C3 3699   8.561   1.823  10.926  0.4754 -0.1911 -0.1760
  232loPI   PO4 3700   8.541   1.323  10.375 -0.2232  0.0953 -0.4105
  232loPI   GL1 3701   8.633   1.272  10.016  0.2246 -0.0035 -0.3667
  232loPI   GL2 3702   8.920   1.101   9.958 -0.0091  0.0444  0.1461
  232loPI   C1A 3703   8.821   1.492   9.635 -0.0855  0.0666  0.0366
  232loPI   C2A 3704   8.879   1.580   9.242  0.0232  0.3108  0.2400
  232loPI   C3A 3705   8.804   1.556   8.709  0.1099  0.2644  0.1855
  232loPI   C4A 3706   8.840   1.647   8.251  0.0613  0.1000 -0.1351
  232loPI   C5A 3707   9.077   1.571   7.927 -0.0764  0.4423  0.1486
  232loPI   C6A 3708   9.276   1.196   7.879 -0.2817 -0.1951  0.0438
  232loPI   C1B 3709   9.199   1.167   9.647 -0.1394 -0.0649 -0.0678
  232loPI   C2B 3710   9.326   1.243   9.173  0.1415 -0.0411 -0.1242
  232loPI   C3B 3711   9.254   1.184   8.761  0.1773  0.3599 -0.0511
  232loPI   C4B 3712   9.219   1.252   8.389 -0.1109  0.1001  0.1118
  233loPI    C1 3713   8.692  10.583  10.073  0.0269 -0.3263  0.1282
  233loPI    C2 3714   8.432  10.860  10.199 -0.2639 -0.5403  0.0093
  233loPI    C3 3715   8.716  10.726  10.446 -0.0484 -0.0592  0.0335
  233loPI   PO4 3716   8.538  10.441   9.868 -0.0738 -0.1173  0.1028
  233loPI   GL1 3717   8.422  10.222   9.611  0.1535  0.1109  0.1492
  233loPI   GL2 3718   8.687  10.283   9.419  0.1663 -0.0708 -0.0582
  233loPI   C1A 3719   8.191  10.304   9.274  0.1728  0.3436  0.2332
  233loPI   C2A 3720   8.160  10.227   8.851  0.2735 -0.1721 -0.0269
  233loPI   C3A 3721   8.154  10.387   8.416 -0.2054 -0.2761  0.1501
  233loPI   C4A 3722   8.151  10.425   7.900 -0.0748  0.0244 -0.0249
  233loPI   C5A 3723   8.101  10.315   7.519  0.2830 -0.0700 -0.3399
  233loPI   C6A 3724   7.778  10.257   7.177  0.0100  0.1774  0.4179
  233loPI   C1B 3725   8.705   9.969   9.161  0.2363  0.1757 -0.0281
  233loPI   C2B 3726   8.929   9.583   8.869 -0.1821  0.1271  0.4463
  233loPI   C3B 3727   9.070   9.653   8.529  0.0802  0.1940 -0.4823
  233loPI   C4B 3728   9.051   9.792   8.151  0.2434 -0.2506 -0.2175
  234loPI    C1 3729  17.541  14.768  11.136 -0.0214 -0.0482 -0.1694
  234loPI    C2 3730  17.770  14.529  11.360  0.0767  0.2179  0.0204
  234loPI    C3 3731  17.711  14.908  11.470 -0.1355  0.2629 -0.2387
  234loPI   PO4 3732  17.669  14.627  10.899 -0.0884  0.2802  0.0400
  234loPI   GL1 3733  17.737  14.756  10.537  0.1900 -0.2174  0.3436
  234loPI   GL2 3734  17.591  14.517  10.325  0.1515  0.2273  0.1583
  234loPI   C1A 3735  17.794  15.035  10.230 -0.2593  0.0202  0.0504
  234loPI   C2A 3736  17.949  15.025   9.787 -0.2954  0.2310 -0.3008
  234loPI   C3A 3737  17.944  15.097   9.328 -0.3242 -0.1398 -0.0739
  234loPI   C4A 3738  17.950  14.934   8.869  0.2751 -0.2906  0.1141
  234loPI   C5A 3739  17.970  15.134   8.463  0.1734 -0.1289 -0.1487
  234loPI   C6A 3740  18.180  15.277   8.064 -0.0412 -0.1356  0.2858
  234loPI   C1B 3741  17.734  14.503   9.962 -0.4351 -0.5722 -0.2111
  234loPI   C2B 3742  17.784  14.448   9.488  0.1526  0.0018 -0.3892
  234loPI   C3B 3743  17.775  14.576   9.136  0.1942  0.1505 -0.0443
  234loPI   C4B 3744  17.889  14.480   8.714 -0.1407 -0.0864  0.2732
  235loPI    C1 3745  15.141  18.374  11.345 -0.0529  0.3425  0.1684
  235loPI    C2 3746  14.762  18.411  11.466 -0.1348 -0.0073  0.0312
  235loPI    C3 3747  14.975  18.089  11.570  0.0566  0.0839 -0.0719
  235loPI   PO4 3748  15.090  18.417  11.103 -0.0641  0.1671  0.0172
  235loPI   GL1 3749  15.065  18.749  10.739 -0.0481  0.1211  0.0409
  235loPI   GL2 3750  15.159  18.948  10.565 -0.1928 -0.0602  0.0304
  235loPI   C1A 3751  14.730  18.806  10.392 -0.0017  0.2109  0.0321
  235loPI   C2A 3752  14.644  18.813   9.890 -0.2498 -0.2088  0.0893
  235loPI   C3A 3753  14.678  18.873   9.487  0.2827  0.0844  0.4034
  235loPI   C4A 3754  14.701  18.841   9.090  0.0027  0.2202 -0.2311
  235loPI   C5A 3755  14.650  18.609   8.617  0.1608  0.0464  0.0771
  235loPI   C6A 3756  14.283  18.598   8.263  0.0369 -0.1127 -0.1309
  235loPI   C1B 3757  15.130  18.957  10.126 -0.1983 -0.2009  0.1020
  235loPI   C2B 3758  15.122  19.008   9.750 -0.2050  0.1989  0.0274
  235loPI   C3B 3759  15.199  18.948   9.310 -0.2182  0.4049  0.0077
  235loPI   C4B 3760  15.181  18.879   8.943 -0.2946 -0.3663  0.0943
  236loPI    C1 3761  15.536  12.123  10.508 -0.4920  0.3945 -0.0642
  236loPI    C2 3762  15.489  12.361  10.827  0.1006  0.0199  0.3224
  236loPI    C3 3763  15.323  11.997  10.823 -0.0002  0.0665  0.1489
  236loPI   PO4 3764  15.553  12.216  10.325 -0.2537 -0.0179  0.5464
  236loPI   GL1 3765  15.659  12.492  10.047 -0.0009  0.1211 -0.0403
  236loPI   GL2 3766  15.377  12.640  10.035  0.1077 -0.0157 -0.0160
  236loPI   C1A 3767  15.918  12.561   9.746  0.0398  0.0386 -0.0478
  236loPI   C2A 3768  15.887  12.484   9.276 -0.2286  0.1203 -0.1301
  236loPI   C3A 3769  16.029  12.509   8.944  0.1186 -0.0569  0.2052
  236loPI   C4A 3770  15.984  12.552   8.494  0.1517  0.1902  0.0549
  236loPI   C5A 3771  15.998  12.631   8.128  0.1390 -0.2155 -0.0489
  236loPI   C6A 3772  15.740  12.921   7.934 -0.0077  0.0225 -0.4708
  236loPI   C1B 3773  15.419  12.770   9.640 -0.3245  0.1741 -0.0104
  236loPI   C2B 3774  15.552  12.846   9.233 -0.1421 -0.1754 -0.2279
  236loPI   C3B 3775  15.590  12.927   8.874  0.0059  0.0630  0.1086
  236loPI   C4B 3776  15.592  12.921   8.412 -0.0567 -0.0095 -0.0639
  237loPI    C1 3777   2.865  14.221  10.950 -0.2243  0.1568 -0.1393
  237loPI    C2 3778   2.954  14.576  11.112 -0.0531  0.1182 -0.1468
  237loPI    C3 3779   2.572  14.478  11.042 -0.1096  0.2480 -0.0253
  237loPI   PO4 3780   3.152  14.261  10.751  0.0423  0.4650  0.1085
  237loPI   GL1 3781   3.286  14.223  10.383 -0.2768 -0.2182  0.1370
  237loPI   GL2 3782   3.023  14.172  10.203 -0.1892  0.0645 -0.2582
  237loPI   C1A 3783   3.484  14.312   9.968 -0.1532 -0.0376  0.0972
  237loPI   C2A 3784   3.485  14.315   9.544  0.1590  0.3010 -0.0424
  237loPI   C3A 3785   3.614  14.275   9.065 -0.1432 -0.0519  0.0028
  237loPI   C4A 3786   3.717  14.186   8.652  0.0871  0.0979 -0.2156
  237loPI   C5A 3787   3.678  14.243   8.193 -0.0120  0.2664 -0.2168
  237loPI   C6A 3788   3.493  14.527   7.833 -0.0107 -0.1347 -0.2265
  237loPI   C1B 3789   3.028  14.193   9.717 -0.3245 -0.0610  0.0039
  237loPI   C2B 3790   3.013  14.183   9.295 -0.1558 -0.0958 -0.1378
  237loPI   C3B 3791   3.147  14.084   8.820 -0.1690 -0.1947  0.2263
  237loPI   C4B 3792   3.046  14.097   8.376 -0.0954 -0.0001  0.0978
  238loPI    C1 3793   4.900   9.929  10.404 -0.2498  0.1364 -0.0230
  238loPI    C2 3794   4.562   9.733  10.488 -0.1885 -0.0036 -0.1009
  238loPI    C3 3795   4.845   9.772  10.768 -0.2026 -0.0228 -0.0839
  238loPI   PO4 3796   4.858  10.169  10.310  0.1988 -0.0067  0.0347
  238loPI   GL1 3797   4.764  10.459  10.064  0.1049  0.3337  0.0581
  238loPI   GL2 3798   4.733  10.230   9.859  0.1069 -0.1046  0.1380
  238loPI   C1A 3799   4.479  10.702   9.826 -0.0975 -0.0284 -0.0165
  238loPI   C2A 3800   4.397  10.565   9.481 -0.2207  0.0838 -0.1921
  238loPI   C3A 3801   4.160  10.667   9.132 -0.0241  0.0981 -0.3881
  238loPI   C4A 3802   4.204  10.651   8.658  0.1309 -0.0248  0.0550
  238loPI   C5A 3803   4.207  10.465   8.258  0.2544 -0.1762  0.0342
  238loPI   C6A 3804   4.091  10.306   7.942 -0.1230  0.2223  0.0240
  238loPI   C1B 3805   4.917  10.155   9.400  0.2533 -0.2494 -0.1510
  238loPI   C2B 3806   4.912  10.126   8.974 -0.2352 -0.1201 -0.1025
  238loPI   C3B 3807   4.994  10.095   8.598  0.2855  0.0944  0.0010
  238loPI   C4B 3808   5.122  10.301   8.166  0.2667  0.0486  0.0508
  239loPI    C1 3809  16.655   3.267  11.473  0.0486  0.1610 -0.0883
  239loPI    C2 3810  16.888   3.367  11.782  0.1028 -0.1317 -0.0316
  239loPI    C3 3811  16.491   3.349  11.828  0.0670  0.3291 -0.1180
  239loPI   PO4 3812  16.784   3.332  11.109 -0.0641 -0.1394  0.1360
  239loPI   GL1 3813  16.816   3.162  10.702  0.0671 -0.0422 -0.0818
  239loPI   GL2 3814  16.982   2.839  10.573  0.1178 -0.1925 -0.0122
  239loPI   C1A 3815  16.748   3.286  10.253 -0.1634 -0.2008 -0.0395
  239loPI   C2A 3816  16.778   3.355   9.836 -0.0444  0.1496 -0.0394
  239loPI   C3A 3817  16.762   3.355   9.410 -0.0122  0.0539  0.0957
  239loPI   C4A 3818  16.789   3.432   8.957 -0.2458  0.2489 -0.0669
  239loPI   C5A 3819  16.949   3.510   8.546 -0.0234  0.2828  0.2802
  239loPI   C6A 3820  16.913   3.891   8.312  0.1173  0.0680 -0.1479
  239loPI   C1B 3821  17.198   2.932  10.244 -0.0693 -0.0009 -0.2908
  239loPI   C2B 3822  17.171   2.972   9.830  0.0899 -0.2897  0.2280
  239loPI   C3B 3823  17.174   3.016   9.364 -0.0471  0.1758  0.0836
  239loPI   C4B 3824  17.191   2.995   8.947 -0.0901 -0.1425  0.6055
  240loPI    C1 3825   5.342   6.598  10.873  0.1374  0.0865 -0.1411
  240loPI    C2 3826   5.227   6.249  11.033  0.0252  0.1686 -0.0407
  240loPI    C3 3827   5.001   6.576  11.081  0.0946  0.2405 -0.1936
  240loPI   PO4 3828   5.401   6.569  10.566  0.0234 -0.1060 -0.1315
  240loPI   GL1 3829   5.267   6.655  10.150  0.0209  0.1499  0.1155
  240loPI   GL2 3830   4.974   6.597  10.121 -0.0216 -0.0784  0.2791
  240loPI   C1A 3831   5.280   6.891   9.790 -0.2586 -0.1112 -0.0053
  240loPI   C2A 3832   5.171   6.917   9.316 -0.2380 -0.0284  0.2271
  240loPI   C3A 3833   5.336   6.850   8.905  0.3637  0.0116 -0.1153
  240loPI   C4A 3834   5.185   6.729   8.554  0.1392  0.1970  0.4177
  240loPI   C5A 3835   4.954   6.290   8.362  0.0718 -0.1115 -0.1108
  240loPI   C6A 3836   4.960   5.887   8.116 -0.3448  0.1862  0.2329
  240loPI   C1B 3837   4.796   6.699   9.628  0.0136  0.0041 -0.2542
  240loPI   C2B 3838   4.772   6.631   9.200  0.1448  0.2193 -0.2077
  240loPI   C3B 3839   4.729   6.513   8.812 -0.0233 -0.1094  0.1953
  240loPI   C4B 3840   4.564   6.597   8.330  0.0766  0.0206  0.3604
  241loPI    C1 3841  15.603   7.050  10.621 -0.1201  0.1234 -0.0125
  241loPI    C2 3842  15.499   7.353  10.859  0.0717  0.1190  0.0792
  241loPI    C3 3843  15.382   6.981  10.947 -0.0289  0.1442  0.0541
  241loPI   PO4 3844  15.499   7.091  10.418 -0.2547  0.0891 -0.0607
  241loPI   GL1 3845  15.316   7.177  10.004  0.1289  0.1274 -0.0836
  241loPI   GL2 3846  15.454   6.957   9.953 -0.2472 -0.1882  0.2836
  241loPI   C1A 3847  15.361   7.328   9.555  0.0930 -0.0147  0.1112
  241loPI   C2A 3848  15.495   7.300   9.181 -0.0195 -0.0771 -0.1960
  241loPI   C3A 3849  15.495   7.245   8.749 -0.4106  0.0919  0.2550
  241loPI   C4A 3850  15.351   7.342   8.370  0.2019  0.2352  0.2487
  241loPI   C5A 3851  15.698   7.305   8.071 -0.0024 -0.1769  0.1708
  241loPI   C6A 3852  15.695   7.310   7.669  0.0070 -0.0784 -0.2276
  241loPI   C1B 3853  15.403   6.799   9.464  0.1460 -0.4511  0.1692
  241loPI   C2B 3854  15.371   6.835   9.050  0.0760 -0.0450  0.1504
  241loPI   C3B 3855  15.335   6.730   8.651  0.0578  0.3831  0.1242
  241loPI   C4B 3856  15.225   6.595   8.219 -0.1276  0.2961 -0.2916
  242loPI    C1 3857  17.325   1.984  11.240  0.1637  0.1489 -0.0655
  242loPI    C2 3858  17.419   1.596  11.225 -0.3967  0.0147 -0.3741
  242loPI    C3 3859  17.146   1.725  11.487 -0.0619  0.2422 -0.1289
  242loPI   PO4 3860  17.285   2.050  10.904 -0.0654 -0.0568 -0.0180
  242loPI   GL1 3861  16.823   1.957  10.591  0.2463  0.0795 -0.0376
  242loPI   GL2 3862  16.941   2.325  10.621 -0.0744  0.1712  0.1560
  242loPI   C1A 3863  16.906   1.969  10.162 -0.0895 -0.0616  0.3357
  242loPI   C2A 3864  17.090   1.974   9.711 -0.0939  0.1395  0.1559
  242loPI   C3A 3865  17.017   1.985   9.236  0.0539  0.0898  0.2660
  242loPI   C4A 3866  16.963   2.024   8.765 -0.2049 -0.1024 -0.1435
  242loPI   C5A 3867  16.909   2.070   8.282 -0.1055 -0.2939  0.3184
  242loPI   C6A 3868  16.853   1.910   7.905 -0.0241  0.5060  0.2004
  242loPI   C1B 3869  17.047   2.460  10.225 -0.3672  0.4047 -0.0759
  242loPI   C2B 3870  17.132   2.437   9.847 -0.0687 -0.0418  0.1253
  242loPI   C3B 3871  17.161   2.438   9.432  0.0202  0.3158 -0.0255
  242loPI   C4B 3872  17.074   2.479   9.024 -0.2543 -0.0640  0.2116
  243loPI    C1 3873  10.558  14.353  10.443 -0.0520  0.1657  0.1638
  243loPI    C2 3874  10.569  14.033  10.682 -0.3763  0.2860  0.3455
  243loPI    C3 3875  10.626  14.398  10.835  0.1178  0.3110  0.1189
  243loPI   PO4 3876  10.732  14.384  10.307 -0.0421  0.4771  0.2576
  243loPI   GL1 3877  10.832  14.374   9.967  0.0130  0.0191  0.2070
  243loPI   GL2 3878  10.728  14.428   9.734  0.0045  0.1300 -0.2058
  243loPI   C1A 3879  11.190  14.145   9.719 -0.2464 -0.1777 -0.1583
  243loPI   C2A 3880  11.301  13.928   9.385 -0.2297  0.1037 -0.1963
  243loPI   C3A 3881  11.307  13.828   9.004 -0.0993  0.0998  0.1458
  243loPI   C4A 3882  11.610  13.857   8.711  0.1098  0.2217  0.2534
  243loPI   C5A 3883  11.439  14.187   8.418  0.2346  0.0305 -0.0667
  243loPI   C6A 3884  11.107  14.307   8.296 -0.3673  0.0878 -0.0157
  243loPI   C1B 3885  11.089  14.548   9.389  0.1135  0.0468 -0.3186
  243loPI   C2B 3886  11.050  14.703   9.042 -0.2859  0.0120  0.1989
  243loPI   C3B 3887  10.806  14.669   8.647 -0.2705 -0.4930 -0.0982
  243loPI   C4B 3888  10.421  14.726   8.341  0.0496  0.3097  0.1574
  244loPI    C1 3889  11.275   5.405  10.255  0.1085  0.0987 -0.0693
  244loPI    C2 3890  11.639   5.507  10.387  0.0597  0.0675  0.0907
  244loPI    C3 3891  11.340   5.447  10.647 -0.0307 -0.0216 -0.0324
  244loPI   PO4 3892  11.200   5.593  10.070  0.3907 -0.1805 -0.0179
  244loPI   GL1 3893  11.354   5.599   9.694  0.3139  0.2150 -0.0531
  244loPI   GL2 3894  11.702   5.612   9.882 -0.2343  0.2087 -0.1239
  244loPI   C1A 3895  11.253   5.509   9.177  0.1133  0.4979  0.1103
  244loPI   C2A 3896  11.172   5.682   8.763  0.0687 -0.0475  0.0599
  244loPI   C3A 3897  10.910   6.011   8.633  0.0179  0.1631 -0.2918
  244loPI   C4A 3898  10.930   6.031   8.207  0.2243  0.0329 -0.0884
  244loPI   C5A 3899  10.896   5.828   7.894  0.1053  0.1542 -0.2018
  244loPI   C6A 3900  10.861   5.395   7.657 -0.0791  0.1116  0.2297
  244loPI   C1B 3901  11.776   5.659   9.424 -0.0034 -0.1732 -0.0141
  244loPI   C2B 3902  11.673   5.821   9.017 -0.1322 -0.0090 -0.0109
  244loPI   C3B 3903  11.613   5.881   8.537  0.0404 -0.1544  0.1834
  244loPI   C4B 3904  11.787   5.699   8.155 -0.1250  0.1249  0.2879
  245loPI    C1 3905  16.356   4.209  10.972 -0.0996 -0.1626  0.0435
  245loPI    C2 3906  16.010   4.365  10.844 -0.0485 -0.1392 -0.0679
  245loPI    C3 3907  16.062   4.284  11.233  0.0390  0.4191  0.0465
  245loPI   PO4 3908  16.564   4.354  10.908 -0.3271 -0.0776 -0.4018
  245loPI   GL1 3909  16.682   4.319  10.597  0.1804 -0.3579  0.4254
  245loPI   GL2 3910  17.010   4.154  10.720 -0.2940  0.3245 -0.0246
  245loPI   C1A 3911  16.681   4.324  10.118 -0.1075  0.1951  0.1802
  245loPI   C2A 3912  16.519   4.292   9.736 -0.1735  0.1565  0.3824
  245loPI   C3A 3913  16.499   4.234   9.328  0.2217 -0.6567 -0.1143
  245loPI   C4A 3914  16.559   4.234   8.898  0.2374 -0.0878  0.2193
  245loPI   C5A 3915  16.856   4.373   8.571  0.0198 -0.1600 -0.0587
  245loPI   C6A 3916  17.207   4.446   8.453 -0.2207 -0.1660 -0.4184
  245loPI   C1B 3917  17.270   4.161  10.307 -0.0239  0.1397 -0.1227
  245loPI   C2B 3918  17.488   3.980   9.937  0.2097 -0.3997 -0.2173
  245loPI   C3B 3919  17.415   4.107   9.573 -0.3519  0.2077 -0.1534
  245loPI   C4B 3920  17.435   4.089   9.148  0.0510  0.0152  0.2449
  246loPI    C1 3921  13.492   5.782  10.818 -0.2511 -0.1544  0.0129
  246loPI    C2 3922  13.600   5.478  11.056  0.2656  0.1171  0.1409
  246loPI    C3 3923  13.472   5.822  11.216 -0.0647  0.0629  0.0022
  246loPI   PO4 3924  13.470   5.633  10.516  0.2682 -0.1345  0.3139
  246loPI   GL1 3925  13.407   5.713  10.114  0.0428 -0.0208  0.0574
  246loPI   GL2 3926  13.244   5.489   9.900 -0.1207 -0.4009  0.0828
  246loPI   C1A 3927  13.701   5.470   9.929  0.0323  0.0882  0.1440
  246loPI   C2A 3928  13.511   5.313   9.512 -0.0878 -0.1869  0.3250
  246loPI   C3A 3929  13.520   5.325   9.075 -0.1686 -0.2362  0.1061
  246loPI   C4A 3930  13.566   5.321   8.606 -0.2650  0.0273  0.0479
  246loPI   C5A 3931  13.486   5.128   8.266 -0.0687 -0.0261 -0.0800
  246loPI   C6A 3932  13.134   5.026   7.924 -0.1524 -0.0954  0.0863
  246loPI   C1B 3933  13.197   5.665   9.472  0.0436  0.4066  0.0810
  246loPI   C2B 3934  13.138   5.664   9.034  0.1384  0.2573  0.1938
  246loPI   C3B 3935  13.116   5.615   8.593  0.1808 -0.0065  0.1824
  246loPI   C4B 3936  13.178   5.505   8.191  0.2721 -0.0026 -0.1832
  247loPI    C1 3937   8.793   4.412  10.359  0.2082  0.3976 -0.0961
  247loPI    C2 3938   8.596   4.664  10.600  0.0444  0.0542  0.1367
  247loPI    C3 3939   8.899   4.446  10.743 -0.0207 -0.1152  0.0206
  247loPI   PO4 3940   8.711   4.510  10.092 -0.1363  0.0429  0.1726
  247loPI   GL1 3941   8.849   4.445   9.659  0.2671 -0.1143  0.1530
  247loPI   GL2 3942   8.818   4.056   9.609 -0.0989 -0.0137 -0.1810
  247loPI   C1A 3943   8.812   4.432   9.169  0.2313 -0.0937 -0.2526
  247loPI   C2A 3944   8.950   4.571   8.768 -0.1074 -0.2489  0.0350
  247loPI   C3A 3945   8.876   4.667   8.432 -0.1522 -0.2362 -0.0892
  247loPI   C4A 3946   8.666   4.530   8.028  0.1339  0.0691 -0.1042
  247loPI   C5A 3947   8.282   4.433   7.858 -0.1139 -0.0334  0.1867
  247loPI   C6A 3948   8.012   4.780   7.944  0.0652  0.1626  0.0409
  247loPI   C1B 3949   8.927   3.917   9.188 -0.1060  0.0415  0.0141
  247loPI   C2B 3950   8.832   4.056   8.803 -0.1280  0.1264  0.0008
  247loPI   C3B 3951   8.789   4.114   8.281 -0.1176  0.1305  0.1122
  247loPI   C4B 3952   8.994   4.226   7.803 -0.2691 -0.2597  0.2764
  248loPI    C1 3953  11.443   9.513  10.334  0.1557 -0.2098 -0.1789
  248loPI    C2 3954  11.497   9.161  10.516 -0.0863 -0.3284 -0.3314
  248loPI    C3 3955  11.152   9.359  10.562  0.1399  0.0117 -0.0465
  248loPI   PO4 3956  11.545   9.508  10.140  0.0747  0.1446 -0.0913
  248loPI   GL1 3957  11.626   9.399   9.734 -0.1437  0.0713  0.0547
  248loPI   GL2 3958  11.339   9.391   9.599  0.0977  0.0203 -0.3250
  248loPI   C1A 3959  11.740   9.587   9.349 -0.0188 -0.2062 -0.0804
  248loPI   C2A 3960  11.877   9.614   9.006 -0.0922 -0.0954 -0.1303
  248loPI   C3A 3961  11.948   9.624   8.633  0.4673  0.2925 -0.1004
  248loPI   C4A 3962  11.913   9.644   8.154  0.2340 -0.1555 -0.4666
  248loPI   C5A 3963  11.851   9.226   7.976  0.1511  0.1393  0.1852
  248loPI   C6A 3964  11.976   8.917   7.579  0.4281  0.3653 -0.0480
  248loPI   C1B 3965  11.354   9.434   9.139 -0.0569  0.0878  0.1047
  248loPI   C2B 3966  11.452   9.609   8.791  0.1070  0.1566  0.0813
  248loPI   C3B 3967  11.595   9.875   8.447  0.1736  0.0749  0.1071
  248loPI   C4B 3968  11.423  10.184   8.175 -0.0837 -0.2261  0.1264
  249loPI    C1 3969   9.695   9.358  10.166 -0.0240  0.0131  0.0415
  249loPI    C2 3970   9.570   9.687  10.356  0.2450  0.0504  0.1586
  249loPI    C3 3971   9.899   9.497  10.480  0.1973 -0.1567 -0.0246
  249loPI   PO4 3972   9.763   9.371   9.922  0.0739  0.2110 -0.1222
  249loPI   GL1 3973   9.694   9.272   9.519  0.1397 -0.1522  0.0083
  249loPI   GL2 3974   9.550   9.487   9.527 -0.0774 -0.0095  0.0439
  249loPI   C1A 3975   9.465   9.221   9.133 -0.0996  0.0095 -0.1303
  249loPI   C2A 3976   9.481   9.394   8.762 -0.0537  0.1916 -0.0246
  249loPI   C3A 3977   9.503   9.456   8.294  0.0269  0.2848  0.0210
  249loPI   C4A 3978   9.635   9.696   8.139 -0.1766  0.0684 -0.1022
  249loPI   C5A 3979   9.431  10.105   8.020 -0.1501  0.2969 -0.1615
  249loPI   C6A 3980   9.320  10.568   7.759  0.2113  0.1136  0.4291
  249loPI   C1B 3981   9.774   9.735   9.157 -0.1795  0.1547 -0.0043
  249loPI   C2B 3982   9.940  10.066   9.115  0.0126 -0.0845  0.2957
  249loPI   C3B 3983  10.182  10.179   8.761  0.0322 -0.2207 -0.2609
  249loPI   C4B 3984  10.411  10.472   8.429 -0.1381 -0.1158 -0.0322
  250loPI    C1 3985  16.831   9.696  10.712  0.0987  0.5225  0.0897
  250loPI    C2 3986  16.566   9.826  10.982 -0.2353  0.0960 -0.0213
  250loPI    C3 3987  16.519   9.467  10.813  0.4011  0.0240 -0.0705
  250loPI   PO4 3988  16.865   9.893  10.505  0.0636 -0.2122 -0.0571
  250loPI   GL1 3989  16.701  10.108  10.099  0.2058  0.0658  0.2750
  250loPI   GL2 3990  16.525  10.245   9.905  0.0751 -0.0048 -0.0432
  250loPI   C1A 3991  16.962  10.282   9.682  0.0259 -0.3351  0.1633
  250loPI   C2A 3992  16.891  10.379   9.346 -0.2778 -0.0449  0.1132
  250loPI   C3A 3993  16.891  10.418   8.886  0.2657  0.1202 -0.3027
  250loPI   C4A 3994  16.850  10.562   8.534  0.0849 -0.0651  0.1089
  250loPI   C5A 3995  16.794  10.396   8.010  0.0715  0.0331  0.3107
  250loPI   C6A 3996  16.611  10.095   7.655  0.0242  0.2932 -0.1005
  250loPI   C1B 3997  16.584  10.002   9.522  0.2338  0.1972  0.1833
  250loPI   C2B 3998  16.828   9.844   9.258 -0.2450  0.0251  0.3025
  250loPI   C3B 3999  16.735   9.869   8.858  0.0715 -0.3078  0.1870
  250loPI   C4B 4000  16.755  10.029   8.445 -0.0327  0.0016 -0.0066
  251loPI    C1 4001   4.198  15.879  10.643  0.0064  0.0014  0.0973
  251loPI    C2 4002   4.152  15.634  10.956  0.1630 -0.2120 -0.0433
  251loPI    C3 4003   4.432  15.919  10.965 -0.0337 -0.0196  0.1291
  251loPI   PO4 4004   4.044  15.908  10.586 -0.0202  0.0964  0.0046
  251loPI   GL1 4005   3.915  16.256  10.304  0.0948 -0.1479  0.0516
  251loPI   GL2 4006   3.676  16.374  10.442  0.4538 -0.1059  0.0247
  251loPI   C1A 4007   4.095  16.025   9.946  0.1341 -0.0782 -0.4768
  251loPI   C2A 4008   4.138  15.751   9.668 -0.0935 -0.2696  0.0632
  251loPI   C3A 4009   3.983  15.765   9.263 -0.0106  0.0554 -0.1745
  251loPI   C4A 4010   3.912  15.795   8.758  0.3032 -0.5111 -0.0574
  251loPI   C5A 4011   3.841  15.681   8.393  0.0451 -0.0526  0.1172
  251loPI   C6A 4012   3.450  15.725   8.262 -0.2123 -0.2634 -0.0652
  251loPI   C1B 4013   3.592  16.281   9.942 -0.2326  0.1536 -0.2615
  251loPI   C2B 4014   3.599  16.156   9.603  0.1469  0.3703 -0.0427
  251loPI   C3B 4015   3.627  16.123   9.166  0.3724  0.3361 -0.4467
  251loPI   C4B 4016   3.584  16.153   8.674 -0.0593 -0.0623 -0.3087
  252loPI    C1 4017   9.872  13.317  10.434  0.0720  0.0646 -0.0192
  252loPI    C2 4018   9.685  13.064  10.681 -0.1008  0.2047 -0.0041
  252loPI    C3 4019   9.988  13.288  10.816  0.1361 -0.0823 -0.0492
  252loPI   PO4 4020   9.756  13.391  10.278  0.0293 -0.2659  0.3443
  252loPI   GL1 4021   9.717  13.432   9.872  0.1699  0.1340  0.2468
  252loPI   GL2 4022   9.428  13.243   9.788 -0.3392 -0.2369 -0.2646
  252loPI   C1A 4023   9.928  13.603   9.558  0.0935  0.1574 -0.1637
  252loPI   C2A 4024   9.861  13.645   9.095 -0.1186  0.0485  0.0126
  252loPI   C3A 4025   9.892  13.615   8.691 -0.1562  0.1737 -0.1826
  252loPI   C4A 4026   9.688  13.496   8.405  0.0038  0.0302 -0.4275
  252loPI   C5A 4027   9.603  13.741   8.052 -0.0960  0.1052 -0.1098
  252loPI   C6A 4028   9.659  14.159   7.947 -0.2051 -0.0812 -0.1915
  252loPI   C1B 4029   9.358  13.224   9.286 -0.1810  0.1665 -0.0215
  252loPI   C2B 4030   9.429  13.276   8.891  0.4240  0.1169  0.0635
  252loPI   C3B 4031   9.402  13.018   8.473 -0.1259  0.1713 -0.1790
  252loPI   C4B 4032   9.260  13.197   8.110  0.0844  0.0795 -0.0117
  253loPI    C1 4033   8.244  11.316  10.419  0.3302  0.0547 -0.2619
  253loPI    C2 4034   8.138  11.701  10.409  0.1517  0.0076 -0.2114
  253loPI    C3 4035   8.312  11.550  10.736 -0.0890 -0.0336 -0.0996
  253loPI   PO4 4036   8.094  11.249  10.203 -0.0753  0.1122 -0.1968
  253loPI   GL1 4037   8.135  11.374   9.799  0.0696 -0.2702  0.0458
  253loPI   GL2 4038   7.988  11.472   9.587 -0.1117  0.0708 -0.1604
  253loPI   C1A 4039   8.178  11.149   9.248  0.2030 -0.1512 -0.2212
  253loPI   C2A 4040   8.222  11.022   8.804 -0.0214  0.0372 -0.0813
  253loPI   C3A 4041   8.201  10.900   8.505  0.0650 -0.2240  0.1326
  253loPI   C4A 4042   7.961  10.798   8.197  0.0668 -0.0420 -0.1609
  253loPI   C5A 4043   7.540  10.742   8.047 -0.1254 -0.1790 -0.0845
  253loPI   C6A 4044   7.064  10.520   8.015  0.0056  0.3656 -0.0100
  253loPI   C1B 4045   7.803  11.489   9.193 -0.3037 -0.1790  0.2154
  253loPI   C2B 4046   7.731  11.395   8.796  0.1863  0.1394  0.1776
  253loPI   C3B 4047   7.491  11.634   8.490 -0.3211 -0.1231  0.0950
  253loPI   C4B 4048   7.222  11.646   8.190  0.0525 -0.0619 -0.1406
  254loPI    C1 4049  17.618  10.253  10.367  0.2247 -0.0606  0.0639
  254loPI    C2 4050  17.633  10.412  10.734  0.1188 -0.0144  0.0484
  254loPI    C3 4051  17.349  10.146  10.643 -0.0831  0.2486 -0.1076
  254loPI   PO4 4052  17.588  10.464  10.196  0.1390  0.3118  0.0060
  254loPI   GL1 4053  17.514  10.401   9.770 -0.3202 -0.1304  0.1734
  254loPI   GL2 4054  17.874  10.208   9.904 -0.0910  0.1812  0.0688
  254loPI   C1A 4055  17.652  10.593   9.348 -0.0620  0.1016  0.1608
  254loPI   C2A 4056  17.778  10.684   8.945 -0.1017  0.3657 -0.2576
  254loPI   C3A 4057  18.046  10.717   8.605  0.2047 -0.0438  0.1185
  254loPI   C4A 4058  18.278  10.843   8.323 -0.0276 -0.1430  0.3113
  254loPI   C5A 4059  18.664  10.616   8.214 -0.1111 -0.1681  0.2023
  254loPI   C6A 4060  18.815  10.310   8.480 -0.1408 -0.0490  0.1596
  254loPI   C1B 4061  17.923  10.214   9.537  0.0527 -0.0250 -0.1077
  254loPI   C2B 4062  17.697  10.155   9.108 -0.3469  0.0079 -0.2448
  254loPI   C3B 4063  17.742  10.137   8.613 -0.0610 -0.0917 -0.0544
  254loPI   C4B 4064  17.709  10.191   8.154  0.5097  0.1767 -0.1538
  255loPI    C1 4065  16.370   8.584  10.792 -0.0992 -0.1214 -0.2012
  255loPI    C2 4066  16.692   8.434  10.976 -0.1088  0.0006 -0.0832
  255loPI    C3 4067  16.364   8.210  10.932 -0.0327 -0.1005 -0.1415
  255loPI   PO4 4068  16.466   8.652  10.548 -0.0645 -0.2319 -0.1557
  255loPI   GL1 4069  16.354   8.723  10.129 -0.1031 -0.0072 -0.1085
  255loPI   GL2 4070  16.643   8.938  10.129  0.0179  0.2010  0.1919
  255loPI   C1A 4071  16.130   8.671   9.690  0.0096 -0.2790  0.3703
  255loPI   C2A 4072  16.011   8.586   9.306 -0.1937  0.1231 -0.3056
  255loPI   C3A 4073  15.876   8.774   8.930 -0.3070 -0.2229 -0.5664
  255loPI   C4A 4074  16.084   8.851   8.587  0.1084  0.2070  0.1337
  255loPI   C5A 4075  16.080   8.940   8.134  0.0728  0.2212 -0.1082
  255loPI   C6A 4076  16.287   9.087   7.745  0.3474 -0.0572 -0.2310
  255loPI   C1B 4077  16.499   9.068   9.740  0.1223 -0.1349  0.0863
  255loPI   C2B 4078  16.502   8.873   9.353  0.2918  0.1530 -0.2831
  255loPI   C3B 4079  16.356   8.710   8.987 -0.0807 -0.0055 -0.0908
  255loPI   C4B 4080  16.149   8.393   8.701 -0.1026 -0.0605 -0.3349
  256loPI    C1 4081   0.427  16.384  10.876  0.0947  0.0590 -0.1699
  256loPI    C2 4082   0.746  16.219  11.053 -0.0371  0.0464  0.0598
  256loPI    C3 4083   0.635  16.591  11.148 -0.2776 -0.0638  0.2181
  256loPI   PO4 4084   0.391  16.162  10.649 -0.0134  0.2875 -0.0824
  256loPI   GL1 4085   0.571  15.862  10.435  0.2453 -0.2106  0.0198
  256loPI   GL2 4086   0.805  16.020  10.285 -0.2012 -0.2644 -0.0300
  256loPI   C1A 4087   0.325  16.061  10.002  0.0865  0.4461  0.1331
  256loPI   C2A 4088   0.240  16.152   9.558 -0.0314  0.0969 -0.1802
  256loPI   C3A 4089   0.268  16.189   9.127  0.0559 -0.1834 -0.0460
  256loPI   C4A 4090   0.472  16.260   8.725 -0.0787 -0.1058 -0.0592
  256loPI   C5A 4091   0.860  16.345   8.497  0.1155  0.0785  0.2010
  256loPI   C6A 4092   1.377  16.230   8.518  0.0594  0.0959  0.2833
  256loPI   C1B 4093   0.868  16.235   9.926  0.2376 -0.0869  0.0825
  256loPI   C2B 4094   0.786  16.509   9.553  0.2341 -0.1150  0.1058
  256loPI   C3B 4095   0.880  16.778   9.223 -0.2694 -0.1314  0.0723
  256loPI   C4B 4096   0.839  16.744   8.833 -0.0210  0.1334  0.0208
  257loPI    C1 4097   8.777  12.899   9.964 -0.0323  0.2461 -0.0599
  257loPI    C2 4098   8.776  13.292  10.037  0.4701  0.2215  0.1177
  257loPI    C3 4099   8.836  13.033  10.336 -0.1653 -0.0133  0.0573
  257loPI   PO4 4100   8.973  12.923   9.774  0.0106 -0.1926 -0.0340
  257loPI   GL1 4101   8.918  12.962   9.363 -0.3510 -0.2055 -0.1410
  257loPI   GL2 4102   8.664  13.196   9.467  0.3124  0.2929  0.0396
  257loPI   C1A 4103   9.064  12.979   9.021 -0.0019  0.3084  0.0320
  257loPI   C2A 4104   8.935  13.038   8.649  0.4880  0.2375 -0.0212
  257loPI   C3A 4105   8.786  13.256   8.286 -0.0696  0.1444  0.2398
  257loPI   C4A 4106   8.767  13.379   7.892  0.0987  0.1203  0.2414
  257loPI   C5A 4107   8.856  13.479   7.577 -0.0321 -0.1880  0.0174
  257loPI   C6A 4108   8.568  13.576   7.340  0.1319 -0.3210 -0.2550
  257loPI   C1B 4109   8.558  13.200   9.003  0.1260  0.1297  0.1220
  257loPI   C2B 4110   8.400  13.115   8.610 -0.0947  0.2981  0.1120
  257loPI   C3B 4111   8.258  13.205   8.161 -0.0296 -0.2074  0.0538
  257loPI   C4B 4112   8.290  13.508   7.897  0.2669 -0.2313  0.1104
  258loPI    C1 4113  17.487   0.509  10.953  0.0006  0.0998 -0.0325
  258loPI    C2 4114  17.683   0.757  11.198  0.2245 -0.1103  0.0051
  258loPI    C3 4115  17.382   0.534  11.338  0.0993  0.0522 -0.0021
  258loPI   PO4 4116  17.486   0.600  10.751  0.0372  0.0182  0.2792
  258loPI   GL1 4117  17.763   0.673  10.399  0.0861 -0.0751  0.1327
  258loPI   GL2 4118  17.722   0.260  10.404  0.0230  0.1375 -0.0165
  258loPI   C1A 4119  17.659   0.699   9.947 -0.3081 -0.0683 -0.0065
  258loPI   C2A 4120  17.640   0.813   9.522 -0.0694  0.1479 -0.0984
  258loPI   C3A 4121  17.557   0.781   9.077  0.0806  0.2353 -0.2992
  258loPI   C4A 4122  17.633   0.813   8.664 -0.1044 -0.1925 -0.0848
  258loPI   C5A 4123  17.708   0.565   8.294 -0.1236 -0.0932  0.0058
  258loPI   C6A 4124  18.066   0.394   8.212  0.2423  0.0226  0.3227
  258loPI   C1B 4125  17.456   0.187   9.997 -0.0328  0.0496 -0.3072
  258loPI   C2B 4126  17.418   0.237   9.556  0.0257  0.3388 -0.3102
  258loPI   C3B 4127  17.455   0.243   9.174 -0.0463  0.3770 -0.1734
  258loPI   C4B 4128  17.420   0.302   8.799  0.0437 -0.0199  0.0257
  259loPI    C1 4129  17.050  15.812  10.829  0.1656 -0.1448  0.0018
  259loPI    C2 4130  16.836  15.910  11.153  0.0907 -0.1173 -0.0559
  259loPI    C3 4131  16.895  15.525  11.060  0.0691 -0.1249 -0.0381
  259loPI   PO4 4132  17.036  16.035  10.664 -0.0791 -0.0707  0.0506
  259loPI   GL1 4133  16.817  15.809  10.269 -0.0492 -0.1757 -0.0515
  259loPI   GL2 4134  16.761  15.530  10.254 -0.1162 -0.0820 -0.1866
  259loPI   C1A 4135  16.811  15.977   9.963  0.1177  0.0266 -0.0953
  259loPI   C2A 4136  16.739  16.018   9.599  0.1629 -0.1030 -0.3840
  259loPI   C3A 4137  16.815  16.066   9.208 -0.1415  0.0104 -0.0070
  259loPI   C4A 4138  16.823  16.093   8.738  0.0770  0.1855 -0.1243
  259loPI   C5A 4139  16.895  16.270   8.390 -0.1605  0.0545  0.1764
  259loPI   C6A 4140  16.923  16.472   7.969 -0.1867 -0.3605  0.2865
  259loPI   C1B 4141  16.633  15.496   9.917  0.0164 -0.0070 -0.1762
  259loPI   C2B 4142  16.675  15.589   9.467 -0.0665 -0.0592  0.1996
  259loPI   C3B 4143  16.667  15.565   8.973  0.0776  0.0661 -0.0091
  259loPI   C4B 4144  16.684  15.615   8.520 -0.0294  0.0988 -0.2238
  260loPI    C1 4145  18.089   5.223  11.337 -0.0280  0.0211  0.0165
  260loPI    C2 4146  17.886   5.261  11.680  0.1428  0.0392  0.1165
  260loPI    C3 4147  18.153   5.540  11.573  0.0050  0.0942 -0.0898
  260loPI   PO4 4148  17.951   5.241  10.987 -0.0022  0.3191  0.1382
  260loPI   GL1 4149  18.110   5.170  10.597 -0.1410 -0.1922 -0.3360
  260loPI   GL2 4150  18.407   5.102  10.459 -0.1113 -0.1386  0.1552
  260loPI   C1A 4151  18.083   5.253  10.133 -0.0590 -0.0250  0.3456
  260loPI   C2A 4152  18.190   5.175   9.620  0.1616 -0.0237 -0.0747
  260loPI   C3A 4153  18.170   5.214   9.288 -0.3512  0.1938 -0.3033
  260loPI   C4A 4154  18.216   5.227   8.831  0.1835 -0.2399 -0.2171
  260loPI   C5A 4155  18.255   5.056   8.427  0.1199 -0.2801 -0.1994
  260loPI   C6A 4156  18.589   5.041   8.114  0.1607  0.1680 -0.1456
  260loPI   C1B 4157  18.508   4.867  10.212  0.2266  0.1939 -0.3348
  260loPI   C2B 4158  18.469   4.831   9.796  0.1680  0.1253 -0.2287
  260loPI   C3B 4159  18.590   4.779   9.388  0.0677  0.3717 -0.2542
  260loPI   C4B 4160  18.608   4.819   9.048 -0.0831  0.0108 -0.4361
  261loPI    C1 4161  15.844   3.222  11.040 -0.1326 -0.1663  0.1377
  261loPI    C2 4162  16.160   3.297  11.274 -0.0922 -0.1602  0.0814
  261loPI    C3 4163  15.959   2.953  11.312 -0.0735 -0.1678  0.1116
  261loPI   PO4 4164  15.939   3.281  10.774  0.1308  0.1768 -0.0551
  261loPI   GL1 4165  16.030   3.045  10.389 -0.1324  0.2463  0.1927
  261loPI   GL2 4166  16.251   3.146  10.362 -0.1634 -0.3386  0.0262
  261loPI   C1A 4167  15.853   3.056   9.933 -0.5511 -0.3093 -0.2349
  261loPI   C2A 4168  15.732   3.173   9.518 -0.2522 -0.1986 -0.2080
  261loPI   C3A 4169  15.844   3.119   9.141 -0.1171 -0.1365 -0.0105
  261loPI   C4A 4170  15.775   3.105   8.817 -0.2267  0.1443  0.2154
  261loPI   C5A 4171  15.860   3.160   8.420  0.3611  0.0177  0.0241
  261loPI   C6A 4172  15.907   3.119   8.002 -0.1340  0.0189  0.1418
  261loPI   C1B 4173  16.349   3.175   9.925 -0.1352 -0.1639  0.1613
  261loPI   C2B 4174  16.275   3.232   9.523  0.1698 -0.0333 -0.1929
  261loPI   C3B 4175  16.374   3.175   9.119 -0.1422 -0.1405  0.4112
  261loPI   C4B 4176  16.231   3.271   8.825 -0.2242  0.0537 -0.0654
  262loPI    C1 4177  10.020   3.759  10.015  0.0265 -0.0405  0.0578
  262loPI    C2 4178  10.034   4.067  10.270 -0.0113 -0.0543  0.0766
  262loPI    C3 4179   9.948   4.130   9.884 -0.1192 -0.0531  0.1005
  262loPI   PO4 4180   9.783   3.492  10.076  0.0054  0.0846  0.0593
  262loPI   GL1 4181   9.547   3.304   9.683 -0.1257 -0.1009 -0.2514
  262loPI   GL2 4182   9.742   3.629   9.593 -0.0600  0.0376 -0.0329
  262loPI   C1A 4183   9.518   3.292   9.295  0.4565  0.1003  0.1014
  262loPI   C2A 4184   9.306   3.085   8.884  0.1717 -0.0130 -0.0593
  262loPI   C3A 4185   8.880   3.013   8.898 -0.0620  0.1640  0.2068
  262loPI   C4A 4186   8.599   3.148   8.634  0.1050 -0.3202  0.4453
  262loPI   C5A 4187   8.255   3.289   8.452 -0.0014 -0.1966  0.2505
  262loPI   C6A 4188   8.037   3.360   8.082 -0.1170  0.0055  0.1400
  262loPI   C1B 4189   9.888   3.681   9.168  0.4048  0.2521  0.3729
  262loPI   C2B 4190   9.900   3.754   8.741 -0.2431 -0.2758  0.0643
  262loPI   C3B 4191   9.858   3.884   8.399 -0.3033  0.1187 -0.0750
  262loPI   C4B 4192  10.105   4.209   7.981 -0.2450 -0.2829 -0.0356
  263loPI    C1 4193   1.469   3.952  11.001 -0.1971 -0.1067  0.1611
  263loPI    C2 4194   1.303   4.133  11.318 -0.1907 -0.2063  0.2217
  263loPI    C3 4195   1.419   3.751  11.343 -0.2074 -0.2204  0.0932
  263loPI   PO4 4196   1.557   4.182  10.784  0.1229 -0.0704  0.0437
  263loPI   GL1 4197   1.510   4.221  10.408 -0.0585 -0.2977  0.0556
  263loPI   GL2 4198   1.887   4.161  10.424  0.1960  0.2433 -0.2837
  263loPI   C1A 4199   1.439   4.284  10.003  0.2462 -0.0268 -0.1568
  263loPI   C2A 4200   1.321   4.251   9.594  0.2506  0.1685 -0.0461
  263loPI   C3A 4201   1.338   4.136   9.127 -0.2246 -0.0979  0.2466
  263loPI   C4A 4202   1.259   4.183   8.708  0.0336 -0.2264 -0.2850
  263loPI   C5A 4203   1.106   4.505   8.479 -0.1642  0.2211 -0.0714
  263loPI   C6A 4204   1.206   4.705   8.156  0.2206  0.1610  0.0953
  263loPI   C1B 4205   2.150   4.169   9.989  0.0652 -0.2138 -0.2541
  263loPI   C2B 4206   2.261   4.103   9.593 -0.1199 -0.1994 -0.1136
  263loPI   C3B 4207   2.269   3.972   9.200 -0.1650  0.1995 -0.1200
  263loPI   C4B 4208   2.313   4.045   8.840  0.1188 -0.3572  0.1098
  264loPI    C1 4209  16.482   1.723  10.953  0.1553 -0.3078 -0.0283
  264loPI    C2 4210  16.573   1.482  11.259  0.1286 -0.1396  0.1135
  264loPI    C3 4211  16.727   1.851  11.242  0.0403 -0.1079 -0.0171
  264loPI   PO4 4212  16.629   1.498  10.674  0.0539 -0.2130 -0.6459
  264loPI   GL1 4213  16.738   1.331  10.309 -0.0584 -0.0418  0.0368
  264loPI   GL2 4214  17.024   1.533  10.376  0.1291  0.2427 -0.0780
  264loPI   C1A 4215  16.818   1.399   9.892  0.0967 -0.1485 -0.2137
  264loPI   C2A 4216  16.843   1.444   9.464 -0.2486  0.2806  0.0141
  264loPI   C3A 4217  16.844   1.520   9.068 -0.0619  0.1491  0.0335
  264loPI   C4A 4218  16.959   1.568   8.649 -0.0702  0.1767 -0.0526
  264loPI   C5A 4219  17.305   1.758   8.471 -0.2644  0.2250 -0.1873
  264loPI   C6A 4220  17.565   1.660   8.149 -0.2500  0.0983  0.0982
  264loPI   C1B 4221  17.351   1.519  10.078  0.1647  0.1586  0.0499
  264loPI   C2B 4222  17.300   1.583   9.752  0.0590  0.0293 -0.0747
  264loPI   C3B 4223  17.336   1.643   9.342  0.0861  0.0562 -0.0453
  264loPI   C4B 4224  17.398   1.643   8.964  0.1003  0.1615 -0.1359
  265loPI    C1 4225   0.031   7.109  10.820  0.2033 -0.0165  0.1829
  265loPI    C2 4226   0.228   7.428  10.961  0.1417  0.0220  0.1825
  265loPI    C3 4227   0.132   7.128  11.207 -0.0439  0.1291  0.2423
  265loPI   PO4 4228   0.120   7.016  10.564  0.1489 -0.0135  0.1109
  265loPI   GL1 4229  -0.050   6.919  10.194  0.2203 -0.2134 -0.0170
  265loPI   GL2 4230  -0.258   6.735  10.110  0.0818 -0.0049  0.0900
  265loPI   C1A 4231   0.196   6.708   9.851 -0.1338 -0.0370  0.4862
  265loPI   C2A 4232   0.170   6.609   9.446 -0.1990  0.0892 -0.0149
  265loPI   C3A 4233   0.168   6.661   9.015 -0.0183  0.1041  0.0735
  265loPI   C4A 4234   0.239   6.774   8.524  0.2295 -0.0971  0.1587
  265loPI   C5A 4235   0.179   6.524   8.157  0.1326  0.0822 -0.2095
  265loPI   C6A 4236   0.056   6.727   7.886  0.1796 -0.3820 -0.2857
  265loPI   C1B 4237  -0.294   6.497   9.675 -0.1816  0.2162  0.0925
  265loPI   C2B 4238  -0.269   6.578   9.242  0.0604  0.0550 -0.0501
  265loPI   C3B 4239  -0.339   6.548   8.839 -0.2505  0.1939 -0.0331
  265loPI   C4B 4240  -0.345   6.502   8.351 -0.1733  0.0667  0.3697
  266loPI    C1 4241   9.338   1.475  10.705 -0.0540 -0.0266  0.0882
  266loPI    C2 4242   9.224   1.789  10.926  0.1632  0.0174  0.1406
  266loPI    C3 4243   9.165   1.417  11.061  0.0109  0.0372  0.1305
  266loPI   PO4 4244   9.242   1.605  10.462 -0.0551  0.1132 -0.1585
  266loPI   GL1 4245   9.280   1.529  10.007  0.4410  0.0112 -0.1803
  266loPI   GL2 4246   9.539   1.368  10.068 -0.3799  0.1043  0.3254
  266loPI   C1A 4247   9.346   1.648   9.631  0.0139 -0.0413 -0.1125
  266loPI   C2A 4248   9.288   1.818   9.168  0.0915 -0.0168 -0.0447
  266loPI   C3A 4249   9.354   1.710   8.727 -0.2589 -0.0692 -0.2036
  266loPI   C4A 4250   9.322   1.783   8.364  0.2770  0.1060  0.0425
  266loPI   C5A 4251   9.504   1.745   7.967  0.1320  0.1046  0.0444
  266loPI   C6A 4252   9.767   1.527   7.812  0.0261  0.0520  0.0120
  266loPI   C1B 4253   9.714   1.328   9.714  0.1425 -0.0671  0.0689
  266loPI   C2B 4254   9.822   1.295   9.293  0.0668  0.1569 -0.2633
  266loPI   C3B 4255   9.762   1.348   8.832  0.1480 -0.0410 -0.1396
  266loPI   C4B 4256   9.685   1.399   8.364  0.1386 -0.1176 -0.1108
  267loPI    C1 4257   2.950   2.926  11.417 -0.1638  0.0430 -0.0213
  267loPI    C2 4258   2.644   2.743  11.598 -0.0861 -0.1708 -0.1025
  267loPI    C3 4259   3.011   2.718  11.753 -0.0946  0.0171 -0.0499
  267loPI   PO4 4260   2.961   2.735  11.051  0.3514 -0.0970 -0.2213
  267loPI   GL1 4261   2.690   2.474  10.736 -0.0007  0.1692  0.1712
  267loPI   GL2 4262   2.879   2.215  10.854  0.2116  0.0934 -0.0098
  267loPI   C1A 4263   2.579   2.576  10.304 -0.0477 -0.0150 -0.4435
  267loPI   C2A 4264   2.550   2.615  10.006 -0.3391 -0.0066 -0.1199
  267loPI   C3A 4265   2.505   2.610   9.543  0.1413  0.0552  0.0550
  267loPI   C4A 4266   2.453   2.625   9.114 -0.1464  0.1737 -0.0419
  267loPI   C5A 4267   2.337   2.702   8.730 -0.1121 -0.1776 -0.1636
  267loPI   C6A 4268   2.375   2.561   8.442  0.0759  0.1626 -0.3766
  267loPI   C1B 4269   3.010   2.203  10.453 -0.2033  0.1100  0.0096
  267loPI   C2B 4270   2.914   2.199   9.964  0.1750 -0.0581  0.0466
  267loPI   C3B 4271   2.855   2.235   9.474  0.2948 -0.2785 -0.2836
  267loPI   C4B 4272   2.792   2.291   9.126  0.0820 -0.0950  0.1562
  268loPI    C1 4273  18.109   9.112  10.444 -0.1030  0.3145 -0.0725
  268loPI    C2 4274  17.960   9.366  10.174  0.0267  0.4987  0.0268
  268loPI    C3 4275  17.792   9.338  10.536 -0.0980  0.3101 -0.0440
  268loPI   PO4 4276  18.437   9.115  10.412 -0.2703  0.3567  0.1459
  268loPI   GL1 4277  18.487   9.425  10.073  0.0734 -0.0948  0.2037
  268loPI   GL2 4278  18.698   9.194   9.937  0.0042  0.2712 -0.2270
  268loPI   C1A 4279  18.157   9.389   9.664 -0.0618  0.1868 -0.0244
  268loPI   C2A 4280  18.228   9.376   9.231  0.3157  0.2550  0.0634
  268loPI   C3A 4281  18.173   9.313   8.758 -0.0960 -0.2082  0.0383
  268loPI   C4A 4282  18.096   9.295   8.357  0.3488  0.0801  0.0118
  268loPI   C5A 4283  18.483   9.136   8.114  0.0300 -0.3849  0.1753
  268loPI   C6A 4284  18.528   8.822   7.744 -0.0413  0.0092  0.0551
  268loPI   C1B 4285  18.543   9.063   9.530 -0.0365  0.1909  0.1518
  268loPI   C2B 4286  18.525   8.954   9.037  0.1561  0.0310  0.2087
  268loPI   C3B 4287  18.426   8.835   8.672 -0.2200 -0.0787 -0.3458
  268loPI   C4B 4288  18.479   8.559   8.266  0.0388  0.1409 -0.0011
  269loPI    C1 4289   5.667  13.675  10.654  0.2660  0.0884 -0.0475
  269loPI    C2 4290   5.991  13.440  10.656  0.0218 -0.2576  0.1562
  269loPI    C3 4291   5.762  13.466  10.982 -0.2392 -0.1339 -0.0334
  269loPI   PO4 4292   5.604  13.693  10.403 -0.0973 -0.0429  0.1776
  269loPI   GL1 4293   5.389  13.786  10.020  0.0769  0.1422 -0.0848
  269loPI   GL2 4294   5.211  14.061  10.001  0.1929 -0.2118 -0.1315
  269loPI   C1A 4295   5.355  13.718   9.622  0.3754 -0.0342 -0.0964
  269loPI   C2A 4296   5.403  13.691   9.196  0.0275  0.2933 -0.4247
  269loPI   C3A 4297   5.228  13.835   8.839 -0.2869  0.2733 -0.1921
  269loPI   C4A 4298   5.276  13.856   8.330 -0.0042  0.0741 -0.1981
  269loPI   C5A 4299   5.107  14.054   7.905  0.1533 -0.0825 -0.0496
  269loPI   C6A 4300   4.903  14.316   7.596  0.1562  0.2832  0.1221
  269loPI   C1B 4301   5.055  14.079   9.645 -0.1347  0.0773 -0.3588
  269loPI   C2B 4302   5.103  14.120   9.235  0.2345  0.1786  0.0591
  269loPI   C3B 4303   4.980  14.257   8.798 -0.0073  0.0993 -0.0542
  269loPI   C4B 4304   4.902  14.368   8.382  0.2320  0.2960  0.2272
  270loPI    C1 4305   6.650  16.743  10.710  0.4486  0.0602 -0.2185
  270loPI    C2 4306   6.922  16.495  10.865  0.0610 -0.1485  0.1513
  270loPI    C3 4307   6.644  16.658  11.101 -0.1348  0.0648 -0.2177
  270loPI   PO4 4308   6.572  16.608  10.467  0.1623 -0.2046  0.4381
  270loPI   GL1 4309   6.750  16.545  10.052 -0.2157  0.0461  0.3500
  270loPI   GL2 4310   6.421  16.370  10.009  0.1636  0.0594  0.0254
  270loPI   C1A 4311   6.680  16.492   9.532 -0.2194 -0.0774  0.1743
  270loPI   C2A 4312   6.549  16.534   9.103 -0.1203 -0.0162 -0.1331
  270loPI   C3A 4313   6.517  16.562   8.653 -0.0226 -0.1934  0.2051
  270loPI   C4A 4314   6.560  16.578   8.160 -0.1067  0.1575  0.3266
  270loPI   C5A 4315   6.527  16.708   7.687 -0.1679 -0.2036  0.0372
  270loPI   C6A 4316   6.272  16.701   7.402 -0.1981 -0.3675  0.3537
  270loPI   C1B 4317   6.160  16.321   9.652  0.3152 -0.3285  0.0084
  270loPI   C2B 4318   6.133  16.235   9.220  0.1778 -0.0297  0.0572
  270loPI   C3B 4319   6.060  16.328   8.777  0.0528 -0.0202 -0.0489
  270loPI   C4B 4320   6.021  16.365   8.361  0.1515  0.0276 -0.3148
  271loPI    C1 4321  15.291  16.848  11.156  0.2826 -0.1185 -0.1409
  271loPI    C2 4322  15.424  16.473  11.200  0.0662 -0.1690  0.1018
  271loPI    C3 4323  15.244  16.659  11.506 -0.1440  0.0073 -0.1254
  271loPI   PO4 4324  15.404  16.919  10.889  0.2732 -0.3499 -0.0662
  271loPI   GL1 4325  15.225  16.988  10.564  0.0282  0.2648  0.1831
  271loPI   GL2 4326  15.421  17.310  10.578  0.3968 -0.1507  0.2251
  271loPI   C1A 4327  15.176  17.013  10.164  0.0391 -0.2619  0.0897
  271loPI   C2A 4328  15.102  17.049   9.682  0.0202  0.1285  0.3733
  271loPI   C3A 4329  15.181  17.087   9.244 -0.0292  0.0342 -0.1604
  271loPI   C4A 4330  15.139  17.018   8.813 -0.2612 -0.0294  0.1413
  271loPI   C5A 4331  15.256  17.152   8.309  0.0545  0.1511  0.3794
  271loPI   C6A 4332  15.157  17.148   7.924 -0.1458 -0.1001  0.0937
  271loPI   C1B 4333  15.542  17.574  10.247  0.0615  0.2047 -0.0468
  271loPI   C2B 4334  15.820  17.628   9.827  0.0719 -0.2163 -0.0165
  271loPI   C3B 4335  15.776  17.717   9.407 -0.2524  0.0972  0.0934
  271loPI   C4B 4336  15.818  17.670   8.945  0.0755  0.0634  0.2294
  272loPI    C1 4337   1.395  16.089  10.951 -0.1047  0.0857 -0.1097
  272loPI    C2 4338   1.163  16.108  11.276 -0.1526 -0.2109 -0.1239
  272loPI    C3 4339   1.348  15.766  11.182 -0.1033 -0.1149 -0.3845
  272loPI   PO4 4340   1.301  16.233  10.760 -0.4208  0.3676 -0.0759
  272loPI   GL1 4341   1.241  16.296  10.261  0.0906  0.2194 -0.0463
  272loPI   GL2 4342   1.382  16.031  10.326  0.1595  0.0407  0.3220
  272loPI   C1A 4343   1.303  16.395   9.825 -0.0547  0.1746  0.0886
  272loPI   C2A 4344   1.340  16.437   9.358 -0.0223  0.2505 -0.1064
  272loPI   C3A 4345   1.404  16.490   8.872 -0.3222  0.0561 -0.1105
  272loPI   C4A 4346   1.235  16.765   8.524  0.0735  0.0553  0.1136
  272loPI   C5A 4347   1.481  17.134   8.337  0.0226  0.0021  0.0896
  272loPI   C6A 4348   1.830  17.225   8.075 -0.1053  0.2399  0.0829
  272loPI   C1B 4349   1.236  15.865   9.954 -0.2749 -0.2388  0.3451
  272loPI   C2B 4350   1.182  15.945   9.617  0.0647 -0.1376  0.2680
  272loPI   C3B 4351   0.929  16.075   9.363  0.0026  0.0684  0.3941
  272loPI   C4B 4352   0.877  16.315   9.046  0.1359  0.0091 -0.0303
  273loPI    C1 4353   7.367   7.937  10.231  0.1178 -0.1052 -0.1952
  273loPI    C2 4354   7.754   7.855  10.291  0.1132 -0.1114 -0.1744
  273loPI    C3 4355   7.523   7.969  10.598  0.1600  0.1483 -0.2335
  273loPI   PO4 4356   7.305   7.765  10.080  0.0263 -0.0325  0.0643
  273loPI   GL1 4357   7.129   7.718   9.655  0.2858  0.0922  0.0452
  273loPI   GL2 4358   7.446   7.808   9.492  0.0122  0.1607  0.6180
  273loPI   C1A 4359   6.930   7.725   9.245 -0.2639 -0.0085 -0.2337
  273loPI   C2A 4360   6.726   7.628   8.839  0.1856  0.3929  0.2475
  273loPI   C3A 4361   6.704   7.242   8.654  0.3002 -0.3732 -0.4431
  273loPI   C4A 4362   6.525   6.952   8.390  0.2093  0.1518 -0.0075
  273loPI   C5A 4363   6.619   6.729   8.035  0.0282 -0.0354  0.1458
  273loPI   C6A 4364   6.764   6.320   7.828  0.0253 -0.0070 -0.0557
  273loPI   C1B 4365   7.408   7.682   9.016 -0.0632 -0.0696 -0.0810
  273loPI   C2B 4366   7.247   7.520   8.638 -0.2331 -0.2971 -0.1805
  273loPI   C3B 4367   6.997   7.651   8.406 -0.2033  0.2286 -0.1134
  273loPI   C4B 4368   6.761   7.814   8.039  0.0462 -0.0600 -0.0382
  274loPI    C1 4369  18.162   8.114  10.506  0.2332  0.1421  0.1096
  274loPI    C2 4370  18.194   7.795  10.746  0.1500  0.1076  0.0754
  274loPI    C3 4371  18.369   8.141  10.847 -0.0278  0.1420  0.2709
  274loPI   PO4 4372  18.179   7.892  10.270 -0.0392  0.0840  0.1713
  274loPI   GL1 4373  18.222   7.995   9.955  0.2412 -0.1807  0.0274
  274loPI   GL2 4374  18.466   8.165   9.877  0.0481  0.1261  0.2074
  274loPI   C1A 4375  18.193   7.946   9.531  0.2247 -0.2790  0.3106
  274loPI   C2A 4376  18.133   7.953   9.133 -0.1871 -0.2561  0.0258
  274loPI   C3A 4377  17.917   7.878   8.746 -0.1476  0.4875  0.0530
  274loPI   C4A 4378  17.762   7.786   8.292  0.0826  0.0966 -0.1861
  274loPI   C5A 4379  17.534   8.158   8.185  0.2648  0.3644 -0.0278
  274loPI   C6A 4380  17.134   8.256   7.965 -0.1619  0.0104 -0.0565
  274loPI   C1B 4381  18.358   8.408   9.496 -0.0641 -0.1680  0.1050
  274loPI   C2B 4382  18.423   8.472   9.111 -0.1313  0.3103 -0.1589
  274loPI   C3B 4383  18.249   8.342   8.717  0.2834  0.0855  0.0904
  274loPI   C4B 4384  18.096   8.168   8.284  0.0961  0.0820 -0.2812
  275loPI    C1 4385  18.021   5.812  10.689 -0.0484 -0.0570 -0.2632
  275loPI    C2 4386  17.973   6.177  10.847 -0.1796 -0.0982 -0.2068
  275loPI    C3 4387  18.315   6.083  10.661 -0.0170 -0.0536  0.0639
  275loPI   PO4 4388  17.839   5.791  10.552  0.1550  0.1430  0.3009
  275loPI   GL1 4389  17.869   5.719  10.164  0.1904 -0.2102 -0.2399
  275loPI   GL2 4390  18.238   5.792  10.232  0.0005  0.0901  0.3169
  275loPI   C1A 4391  17.835   5.552   9.668  0.2310  0.0597 -0.2187
  275loPI   C2A 4392  17.786   5.501   9.266  0.0938  0.3456 -0.1701
  275loPI   C3A 4393  17.784   5.532   8.863 -0.1691  0.1386 -0.1266
  275loPI   C4A 4394  17.752   5.518   8.555  0.1958  0.2189 -0.4272
  275loPI   C5A 4395  17.396   5.291   8.368 -0.3172 -0.2483  0.2707
  275loPI   C6A 4396  17.246   4.938   8.253 -0.0872  0.0845  0.0747
  275loPI   C1B 4397  18.276   5.710   9.803 -0.0113  0.2935 -0.0578
  275loPI   C2B 4398  18.308   5.698   9.336 -0.1113  0.3402  0.1527
  275loPI   C3B 4399  18.279   5.731   8.838 -0.1103  0.2034  0.2098
  275loPI   C4B 4400  18.248   5.549   8.428  0.1220  0.1240 -0.2312
  276loPI    C1 4401   9.084   6.168  10.143 -0.0440  0.1631 -0.0014
  276loPI    C2 4402   9.046   5.835  10.361  0.1975  0.0320 -0.1538
  276loPI    C3 4403   8.946   6.189  10.518 -0.0708 -0.1107  0.0065
  276loPI   PO4 4404   8.915   6.142   9.904 -0.4573  0.0308 -0.1667
  276loPI   GL1 4405   8.920   5.909   9.534 -0.0299  0.2229 -0.1790
  276loPI   GL2 4406   9.216   5.726   9.470 -0.1401 -0.0086  0.0255
  276loPI   C1A 4407   8.888   5.845   8.994 -0.0002  0.0548 -0.0847
  276loPI   C2A 4408   8.699   5.909   8.659 -0.0823  0.1899  0.3149
  276loPI   C3A 4409   8.346   6.115   8.452  0.1304 -0.0378  0.1373
  276loPI   C4A 4410   8.171   6.200   7.975  0.0435 -0.2420 -0.2084
  276loPI   C5A 4411   8.095   5.797   7.813  0.0033  0.1103 -0.0483
  276loPI   C6A 4412   8.162   5.277   7.914 -0.2993 -0.0153  0.2245
  276loPI   C1B 4413   9.383   5.607   9.051  0.0697  0.2024 -0.1041
  276loPI   C2B 4414   9.368   5.684   8.668 -0.1354 -0.1681 -0.1934
  276loPI   C3B 4415   9.161   5.734   8.284 -0.2186 -0.0500  0.0218
  276loPI   C4B 4416   8.807   5.806   8.071  0.1071 -0.1579 -0.0492
  277loPI    C1 4417   3.934   6.027  11.360 -0.1049 -0.1903  0.1295
  277loPI    C2 4418   3.592   6.233  11.391  0.0486  0.1018 -0.0704
  277loPI    C3 4419   3.716   6.005  11.695 -0.0760  0.3826  0.1969
  277loPI   PO4 4420   3.833   5.946  11.071  0.0530  0.1218  0.1313
  277loPI   GL1 4421   3.797   5.962  10.627 -0.0840  0.0341  0.1151
  277loPI   GL2 4422   3.417   6.072  10.474 -0.2582  0.0076 -0.1100
  277loPI   C1A 4423   3.839   5.797  10.198 -0.3357 -0.2027  0.0096
  277loPI   C2A 4424   3.649   5.823   9.889 -0.0099  0.0486  0.1194
  277loPI   C3A 4425   3.689   5.803   9.484  0.1253  0.0996  0.2038
  277loPI   C4A 4426   3.666   5.817   9.114  0.1489  0.0750 -0.1337
  277loPI   C5A 4427   3.658   5.955   8.732 -0.2094  0.0478  0.1813
  277loPI   C6A 4428   3.483   6.072   8.330 -0.0303 -0.0528  0.1825
  277loPI   C1B 4429   3.265   6.179  10.155  0.2284  0.2275  0.3136
  277loPI   C2B 4430   3.315   6.270   9.712 -0.1690  0.1903  0.1365
  277loPI   C3B 4431   3.248   6.254   9.241 -0.0228  0.4591 -0.0334
  277loPI   C4B 4432   3.257   6.193   8.829  0.4442 -0.3441 -0.1901
  278loPI    C1 4433   5.013  17.062  10.652 -0.0832  0.0467  0.2541
  278loPI    C2 4434   4.708  17.149  10.408  0.0733  0.0207  0.0455
  278loPI    C3 4435   4.798  17.394  10.711 -0.3317 -0.1170  0.2859
  278loPI   PO4 4436   5.236  16.974  10.468 -0.1900  0.2371  0.0840
  278loPI   GL1 4437   5.300  16.968  10.143 -0.0376  0.0477 -0.2112
  278loPI   GL2 4438   5.546  17.344  10.030  0.1746  0.0780  0.0298
  278loPI   C1A 4439   5.348  16.989   9.579 -0.0348 -0.1388  0.0046
  278loPI   C2A 4440   5.353  17.015   9.178  0.1158  0.0160  0.1020
  278loPI   C3A 4441   5.329  17.060   8.654  0.0378 -0.0319  0.1613
  278loPI   C4A 4442   5.140  17.102   8.199 -0.0110 -0.0852 -0.0160
  278loPI   C5A 4443   5.325  17.133   7.798 -0.5436  0.0216  0.0744
  278loPI   C6A 4444   5.226  16.904   7.498  0.1629 -0.2603 -0.4030
  278loPI   C1B 4445   5.589  17.604   9.691  0.1631  0.1165 -0.1924
  278loPI   C2B 4446   5.488  17.541   9.251 -0.1777  0.3299 -0.0145
  278loPI   C3B 4447   5.393  17.607   8.836 -0.3632  0.1148  0.1330
  278loPI   C4B 4448   5.394  17.569   8.489 -0.2160  0.0167  0.0007
  279loPI    C1 4449  15.237   5.466  10.650  0.0427  0.0020 -0.1172
  279loPI    C2 4450  14.984   5.769  10.584  0.0062  0.0084  0.0479
  279loPI    C3 4451  15.213   5.768  10.912  0.1617 -0.0379 -0.0598
  279loPI   PO4 4452  15.270   5.362  10.365  0.2116  0.0756  0.1967
  279loPI   GL1 4453  15.162   5.143  10.062  0.1473  0.0135 -0.0856
  279loPI   GL2 4454  15.386   4.870  10.149 -0.0867  0.1922 -0.0906
  279loPI   C1A 4455  15.051   5.194   9.744  0.0285 -0.1352  0.2164
  279loPI   C2A 4456  15.016   5.283   9.365  0.1816  0.2610  0.1339
  279loPI   C3A 4457  14.907   5.204   8.894  0.1598 -0.3960  0.0220
  279loPI   C4A 4458  14.953   5.214   8.511 -0.0285  0.0798  0.3188
  279loPI   C5A 4459  15.261   5.126   8.128 -0.3303 -0.1677 -0.2150
  279loPI   C6A 4460  15.522   5.480   8.079 -0.0045 -0.0267 -0.2210
  279loPI   C1B 4461  15.448   4.883   9.717  0.0373 -0.0565 -0.0620
  279loPI   C2B 4462  15.258   4.893   9.361  0.0145  0.0689  0.2579
  279loPI   C3B 4463  15.316   4.769   9.005 -0.3024 -0.0666 -0.0143
  279loPI   C4B 4464  15.378   4.772   8.503  0.0743  0.0259  0.0040
  280loPI    C1 4465   2.541   5.104  11.193 -0.1052  0.0450  0.1230
  280loPI    C2 4466   2.691   5.271  11.524 -0.1073 -0.0836  0.1892
  280loPI    C3 4467   2.366   5.427  11.352  0.0136  0.1062  0.1305
  280loPI   PO4 4468   2.681   5.142  11.019 -0.0176 -0.4883  0.1534
  280loPI   GL1 4469   2.549   5.196  10.619 -0.0177 -0.2513  0.1453
  280loPI   GL2 4470   2.193   5.168  10.661 -0.1580 -0.0092  0.2797
  280loPI   C1A 4471   2.525   5.233  10.186  0.1006  0.2199 -0.0555
  280loPI   C2A 4472   2.452   5.081   9.812  0.0848  0.0601 -0.0441
  280loPI   C3A 4473   2.485   5.005   9.345 -0.2697 -0.0209 -0.0425
  280loPI   C4A 4474   2.550   5.033   8.882  0.0189 -0.3050 -0.2018
  280loPI   C5A 4475   2.650   4.916   8.506  0.2790  0.0313 -0.2829
  280loPI   C6A 4476   2.572   4.848   8.186  0.0376  0.4564  0.0515
  280loPI   C1B 4477   2.042   4.996  10.217 -0.1149 -0.0183 -0.1759
  280loPI   C2B 4478   1.954   4.945   9.719  0.0311  0.3791  0.0282
  280loPI   C3B 4479   2.009   4.869   9.271 -0.1730  0.2024  0.0230
  280loPI   C4B 4480   2.045   4.817   8.931 -0.2048 -0.0743 -0.0569
  281loPI    C1 4481   7.883   4.758  10.379  0.0949  0.2844  0.1079
  281loPI    C2 4482   8.123   4.765  10.699 -0.1584  0.2219  0.3028
  281loPI    C3 4483   7.762   4.594  10.724 -0.2336  0.3345  0.0199
  281loPI   PO4 4484   7.933   4.986  10.235 -0.1567  0.3318 -0.1988
  281loPI   GL1 4485   8.058   4.995   9.819  0.1663  0.3716  0.1246
  281loPI   GL2 4486   8.238   5.102   9.619 -0.0525  0.0022  0.1071
  281loPI   C1A 4487   7.837   4.824   9.414  0.3622  0.0575 -0.2872
  281loPI   C2A 4488   7.694   4.699   9.019 -0.2464 -0.0239  0.3483
  281loPI   C3A 4489   7.278   4.801   8.901  0.2476  0.1584  0.1043
  281loPI   C4A 4490   7.162   4.761   8.520 -0.0284 -0.2251 -0.0367
  281loPI   C5A 4491   7.052   5.049   8.189 -0.5029  0.1692 -0.0216
  281loPI   C6A 4492   6.701   5.463   8.094  0.0643 -0.3317  0.0589
  281loPI   C1B 4493   8.376   5.217   9.335 -0.1535 -0.3095  0.1042
  281loPI   C2B 4494   8.420   5.430   8.933 -0.1311  0.0847 -0.2910
  281loPI   C3B 4495   8.350   5.531   8.558  0.1813 -0.1090  0.3296
  281loPI   C4B 4496   8.372   5.633   8.227 -0.0646  0.0288  0.0752
  282loPI    C1 4497   8.992  15.402  10.424  0.1534  0.1530 -0.0552
  282loPI    C2 4498   9.028  15.044  10.599  0.2996  0.2155  0.0451
  282loPI    C3 4499   8.921  15.363  10.816 -0.0881  0.1856 -0.0944
  282loPI   PO4 4500   8.936  15.329  10.198  0.1781  0.1249  0.0541
  282loPI   GL1 4501   9.200  15.426   9.949  0.0138 -0.2574 -0.0037
  282loPI   GL2 4502   9.390  15.706   9.868  0.1979 -0.1242 -0.0150
  282loPI   C1A 4503   8.975  15.483   9.550  0.2847 -0.0585  0.0168
  282loPI   C2A 4504   8.868  15.525   9.172  0.2587  0.0392  0.1739
  282loPI   C3A 4505   8.638  15.541   8.779  0.0107 -0.2215 -0.3350
  282loPI   C4A 4506   8.550  15.668   8.325 -0.1653 -0.1689 -0.0179
  282loPI   C5A 4507   8.589  15.792   7.918  0.0897 -0.2245 -0.3064
  282loPI   C6A 4508   8.458  16.132   7.960  0.0908  0.0182 -0.1673
  282loPI   C1B 4509   9.422  15.755   9.500 -0.2270  0.0694 -0.0824
  282loPI   C2B 4510   9.321  15.751   9.075 -0.0673 -0.2682  0.0259
  282loPI   C3B 4511   9.136  15.756   8.688  0.4081 -0.1374  0.1489
  282loPI   C4B 4512   9.088  15.626   8.224  0.2520  0.0196 -0.1927
  283loPI    C1 4513  15.346   8.289  10.665  0.0365 -0.0204  0.0792
  283loPI    C2 4514  15.124   8.072  10.917  0.0353 -0.0075  0.0892
  283loPI    C3 4515  15.451   8.262  11.050  0.1668 -0.1912  0.0330
  283loPI   PO4 4516  15.246   8.001  10.402 -0.0003 -0.0599 -0.1940
  283loPI   GL1 4517  15.405   7.963  10.060 -0.1931 -0.1570 -0.0931
  283loPI   GL2 4518  15.589   7.651  10.112 -0.4134 -0.1058 -0.0711
  283loPI   C1A 4519  15.328   8.153   9.623  0.2586  0.1734 -0.1744
  283loPI   C2A 4520  15.262   8.213   9.205 -0.2890  0.0026  0.1350
  283loPI   C3A 4521  15.243   8.122   8.802 -0.0674  0.3257  0.0890
  283loPI   C4A 4522  15.197   7.928   8.434 -0.2201  0.0005  0.1389
  283loPI   C5A 4523  14.956   7.937   8.196  0.3992 -0.0271  0.2733
  283loPI   C6A 4524  14.750   7.872   7.822  0.0828 -0.0878  0.1988
  283loPI   C1B 4525  15.700   7.629   9.722 -0.2240 -0.0819 -0.1930
  283loPI   C2B 4526  15.495   7.796   9.258  0.0295 -0.0313 -0.0270
  283loPI   C3B 4527  15.226   7.637   8.996 -0.0977 -0.0483  0.0077
  283loPI   C4B 4528  15.003   7.553   8.747 -0.0614 -0.0386 -0.1830
  284loPI    C1 4529  10.356  18.012  10.754 -0.0760 -0.0391  0.0423
  284loPI    C2 4530  10.585  18.211  11.015 -0.0684 -0.0242  0.0243
  284loPI    C3 4531  10.316  17.945  11.146  0.1892 -0.2862  0.0307
  284loPI   PO4 4532  10.121  18.294  10.576  0.0606  0.2233  0.0131
  284loPI   GL1 4533  10.147  18.636  10.239 -0.1759  0.1278  0.1931
  284loPI   GL2 4534   9.914  18.372  10.139 -0.0554  0.2532  0.3409
  284loPI   C1A 4535  10.402  18.553   9.950  0.1053  0.1188 -0.2944
  284loPI   C2A 4536  10.338  18.450   9.565  0.1439 -0.1892 -0.0113
  284loPI   C3A 4537  10.401  18.452   9.216  0.2039  0.0359  0.0046
  284loPI   C4A 4538  10.421  18.532   8.872  0.2480  0.0501  0.1031
  284loPI   C5A 4539  10.541  18.635   8.466  0.1615  0.0878  0.0485
  284loPI   C6A 4540  10.404  18.728   8.072 -0.0458  0.0275 -0.0108
  284loPI   C1B 4541   9.826  18.243   9.787  0.1167  0.1048 -0.1241
  284loPI   C2B 4542   9.870  18.379   9.383  0.3018  0.0856  0.0585
  284loPI   C3B 4543   9.925  18.390   9.037  0.0094 -0.2044 -0.1575
  284loPI   C4B 4544  10.000  18.355   8.597 -0.1880 -0.0535 -0.1762
  285loPI    C1 4545  12.801   0.631  11.287 -0.0352 -0.0417  0.0782
  285loPI    C2 4546  13.189   0.642  11.189 -0.0876 -0.0947 -0.1400
  285loPI    C3 4547  13.024   0.301  11.316 -0.0719 -0.0816 -0.0839
  285loPI   PO4 4548  12.725   0.813  11.045  0.0159 -0.2521 -0.1003
  285loPI   GL1 4549  12.723   0.616  10.625  0.1717 -0.0962  0.4491
  285loPI   GL2 4550  12.382   0.511  10.570 -0.1243  0.0418 -0.1753
  285loPI   C1A 4551  12.880   0.788  10.187 -0.0568 -0.1519 -0.0843
  285loPI   C2A 4552  12.846   0.763   9.799 -0.0647 -0.0267 -0.1547
  285loPI   C3A 4553  12.873   0.823   9.379 -0.2584  0.2886 -0.0902
  285loPI   C4A 4554  12.813   0.865   9.030 -0.0549  0.0965 -0.1285
  285loPI   C5A 4555  12.543   1.069   8.846  0.4178 -0.0736  0.0280
  285loPI   C6A 4556  12.171   1.205   8.633  0.2227 -0.0987 -0.3177
  285loPI   C1B 4557  12.429   0.559  10.169 -0.0334  0.1523  0.1937
  285loPI   C2B 4558  12.271   0.294   9.857 -0.2285  0.0944  0.0958
  285loPI   C3B 4559  12.330   0.147   9.435  0.1881  0.3654 -0.0448
  285loPI   C4B 4560  12.357   0.185   9.062  0.1195  0.0295  0.1341
  286loPI    C1 4561   3.462  12.736  10.879  0.0268 -0.2199 -0.0590
  286loPI    C2 4562   3.787  12.815  10.660  0.0935 -0.0137  0.1108
  286loPI    C3 4563   3.826  12.711  11.044 -0.0489  0.2122  0.1882
  286loPI   PO4 4564   3.300  12.567  10.633 -0.0010 -0.3041  0.1289
  286loPI   GL1 4565   2.995  12.594  10.378 -0.0375 -0.2582 -0.0665
  286loPI   GL2 4566   2.834  12.890  10.384 -0.1974 -0.3379 -0.3961
  286loPI   C1A 4567   3.227  12.706   9.906 -0.1247 -0.0243 -0.1933
  286loPI   C2A 4568   3.229  12.591   9.520  0.1147  0.0656  0.1095
  286loPI   C3A 4569   3.150  12.638   9.044 -0.0331  0.3894  0.1571
  286loPI   C4A 4570   3.207  12.840   8.619  0.1185  0.4038  0.1622
  286loPI   C5A 4571   3.026  12.759   8.247 -0.1013 -0.0099 -0.0076
  286loPI   C6A 4572   2.734  12.642   7.976  0.1267 -0.0140  0.1197
  286loPI   C1B 4573   2.775  12.607   9.917 -0.2879 -0.0546 -0.2903
  286loPI   C2B 4574   2.747  12.484   9.413  0.2315 -0.2538  0.1379
  286loPI   C3B 4575   2.607  12.590   9.046 -0.1344  0.0165  0.0407
  286loPI   C4B 4576   2.697  12.667   8.701 -0.2175  0.0419  0.0981
  287loPI    C1 4577   6.305   5.037  10.635  0.2956 -0.2402 -0.1035
  287loPI    C2 4578   6.061   5.078  10.949  0.1848 -0.0962 -0.2072
  287loPI    C3 4579   6.390   4.853  10.980  0.1965 -0.0496  0.0240
  287loPI   PO4 4580   6.291   4.948  10.422  0.2404  0.0597 -0.3402
  287loPI   GL1 4581   6.276   4.904   9.956  0.2480  0.0380  0.1599
  287loPI   GL2 4582   6.541   4.962   9.833 -0.0827 -0.2237  0.0900
  287loPI   C1A 4583   5.920   4.749   9.820 -0.0149 -0.0023  0.0121
  287loPI   C2A 4584   5.635   4.565   9.482  0.1564  0.0704  0.2683
  287loPI   C3A 4585   5.504   4.430   8.997 -0.2516 -0.0562  0.0920
  287loPI   C4A 4586   5.518   4.361   8.577 -0.0549  0.0725  0.2210
  287loPI   C5A 4587   5.782   4.453   8.246  0.3024  0.3450  0.1400
  287loPI   C6A 4588   5.741   4.467   7.820  0.2189 -0.1250 -0.0126
  287loPI   C1B 4589   6.325   5.027   9.439 -0.2648  0.0619 -0.0695
  287loPI   C2B 4590   6.526   4.879   9.049 -0.2276  0.1491  0.1767
  287loPI   C3B 4591   6.617   4.746   8.681 -0.0972  0.6021 -0.2552
  287loPI   C4B 4592   6.729   4.564   8.310 -0.2552 -0.2290 -0.0633
  288loPI    C1 4593   1.098  17.341  11.480  0.1189  0.0933 -0.1455
  288loPI    C2 4594   1.427  17.117  11.517 -0.0579 -0.1367  0.0755
  288loPI    C3 4595   1.237  17.248  11.843 -0.0918  0.1383 -0.0517
  288loPI   PO4 4596   1.161  17.480  11.224  0.3000 -0.0983  0.1155
  288loPI   GL1 4597   1.158  17.357  10.762  0.0242 -0.1449  0.3865
  288loPI   GL2 4598   1.339  17.061  10.598  0.0533 -0.1915  0.1354
  288loPI   C1A 4599   1.172  17.714  10.433 -0.1850 -0.0020 -0.1290
  288loPI   C2A 4600   1.164  17.768   9.955 -0.1512  0.2901  0.0641
  288loPI   C3A 4601   1.290  17.849   9.569  0.2755  0.0909  0.2287
  288loPI   C4A 4602   1.204  17.953   9.072 -0.2361 -0.1808 -0.1621
  288loPI   C5A 4603   1.172  17.907   8.662  0.1057 -0.1097  0.2406
  288loPI   C6A 4604   1.323  18.068   8.319 -0.0606  0.2543  0.2571
  288loPI   C1B 4605   1.225  17.272  10.309  0.0427  0.1539 -0.0535
  288loPI   C2B 4606   1.058  17.315   9.999 -0.1118  0.1537 -0.0886
  288loPI   C3B 4607   1.065  17.308   9.565  0.1639 -0.2498  0.1390
  288loPI   C4B 4608   1.103  17.441   9.161  0.0991 -0.0773 -0.2596
  289loPI    C1 4609   9.781   0.365  10.951  0.0566  0.0770  0.1425
  289loPI    C2 4610   9.656  -0.014  10.975  0.0192  0.0666 -0.1670
  289loPI    C3 4611   9.777   0.179  11.305  0.2103 -0.2712 -0.0338
  289loPI   PO4 4612   9.903   0.336  10.712  0.1809  0.0860 -0.1623
  289loPI   GL1 4613   9.626   0.406  10.332  0.0277  0.2281  0.1212
  289loPI   GL2 4614   9.730   0.532  10.182  0.2653 -0.1979 -0.3903
  289loPI   C1A 4615   9.366   0.329   9.941  0.1272 -0.2555  0.2871
  289loPI   C2A 4616   9.403   0.261   9.495 -0.1395 -0.1108  0.3409
  289loPI   C3A 4617   9.520   0.263   9.041  0.1955  0.1512  0.0587
  289loPI   C4A 4618   9.451   0.373   8.678 -0.2643 -0.0203 -0.2624
  289loPI   C5A 4619   9.618   0.423   8.289 -0.1050 -0.1422 -0.0894
  289loPI   C6A 4620   9.612   0.271   7.837  0.2043  0.0172 -0.3028
  289loPI   C1B 4621   9.945   0.367   9.779  0.0100  0.0586 -0.3720
  289loPI   C2B 4622  10.008   0.476   9.430 -0.0770 -0.2072 -0.2050
  289loPI   C3B 4623   9.944   0.530   8.956 -0.0531  0.0414  0.3662
  289loPI   C4B 4624  10.054   0.576   8.460  0.0792  0.0518  0.0260
  290loPI    C1 4625  10.196  16.018  10.523 -0.0505 -0.0564  0.1779
  290loPI    C2 4626  10.140  15.653  10.368  0.1310  0.0380 -0.1178
  290loPI    C3 4627  10.420  15.711  10.648  0.0989 -0.0499 -0.0671
  290loPI   PO4 4628  10.206  16.143  10.300 -0.0141  0.2167 -0.0146
  290loPI   GL1 4629   9.894  16.467   9.992 -0.0034  0.2572  0.1744
  290loPI   GL2 4630   9.564  16.581  10.037  0.1136 -0.0918 -0.1311
  290loPI   C1A 4631   9.849  16.562   9.529  0.2659 -0.3740  0.1273
  290loPI   C2A 4632   9.659  16.767   9.151  0.0814 -0.3121  0.0493
  290loPI   C3A 4633   9.407  16.960   8.831  0.2138 -0.1022  0.2437
  290loPI   C4A 4634   9.488  16.898   8.406 -0.1116  0.1625 -0.3761
  290loPI   C5A 4635   9.951  16.750   8.347 -0.1412 -0.0376 -0.1312
  290loPI   C6A 4636   9.913  16.452   7.928 -0.0460 -0.0319 -0.0246
  290loPI   C1B 4637   9.401  16.841   9.714  0.1829 -0.1465 -0.2265
  290loPI   C2B 4638   9.040  17.115   9.497 -0.1370 -0.0771 -0.0825
  290loPI   C3B 4639   8.999  17.175   9.070 -0.1917  0.1376 -0.3213
  290loPI   C4B 4640   8.995  17.284   8.691  0.1023  0.0601  0.0459
  291loPI    C1 4641   1.186   9.775  10.756 -0.2166  0.0159 -0.1760
  291loPI    C2 4642   1.353   9.746  11.119 -0.3975  0.1261 -0.0823
  291loPI    C3 4643   1.019   9.542  11.035 -0.4149  0.1830 -0.1524
  291loPI   PO4 4644   1.345   9.806  10.617 -0.0267 -0.0568  0.0598
  291loPI   GL1 4645   1.466   9.801  10.080 -0.1460 -0.0643 -0.0075
  291loPI   GL2 4646   1.406   9.498  10.140 -0.2330 -0.2419 -0.2205
  291loPI   C1A 4647   1.318   9.789   9.674 -0.0052 -0.0249 -0.0942
  291loPI   C2A 4648   1.181   9.874   9.306  0.0463  0.3266 -0.2206
  291loPI   C3A 4649   1.144   9.892   8.891  0.0795 -0.0398 -0.0794
  291loPI   C4A 4650   1.240   9.795   8.378  0.0365  0.0164  0.2024
  291loPI   C5A 4651   1.103   9.413   8.251  0.0034 -0.0962  0.3145
  291loPI   C6A 4652   0.672   9.343   8.213  0.1148 -0.2780  0.3002
  291loPI   C1B 4653   1.246   9.339   9.864  0.1376 -0.1079  0.0828
  291loPI   C2B 4654   1.158   9.379   9.428 -0.2541  0.0615 -0.3262
  291loPI   C3B 4655   1.033   9.316   9.044  0.0203  0.0640  0.0173
  291loPI   C4B 4656   0.834   9.541   8.662 -0.0983  0.1204  0.2156
  292loPI    C1 4657   6.922   2.697  10.498 -0.0126 -0.1431 -0.2127
  292loPI    C2 4658   6.773   2.395  10.715 -0.0072 -0.1163 -0.1715
  292loPI    C3 4659   6.890   2.732  10.896  0.0653 -0.1216 -0.2082
  292loPI   PO4 4660   6.700   2.749  10.271 -0.4210 -0.1175  0.0473
  292loPI   GL1 4661   6.502   2.799   9.851 -0.0866  0.0512  0.0554
  292loPI   GL2 4662   6.212   2.734  10.089 -0.0204  0.0541 -0.1694
  292loPI   C1A 4663   6.864   2.664   9.533  0.1377  0.1107 -0.1697
  292loPI   C2A 4664   6.830   2.515   9.153 -0.1428  0.1932 -0.0662
  292loPI   C3A 4665   6.699   2.438   8.822 -0.1290 -0.2782 -0.1679
  292loPI   C4A 4666   6.641   2.364   8.389  0.3553 -0.2063  0.0380
  292loPI   C5A 4667   6.548   2.447   7.937  0.0805  0.5003 -0.3356
  292loPI   C6A 4668   6.761   2.402   7.555 -0.0630 -0.1886  0.0715
  292loPI   C1B 4669   6.039   2.495   9.774 -0.1337 -0.0374  0.0896
  292loPI   C2B 4670   5.966   2.200   9.475 -0.3208 -0.0346  0.1228
  292loPI   C3B 4671   6.133   1.898   9.076 -0.1572 -0.2563  0.1337
  292loPI   C4B 4672   5.782   1.762   8.766 -0.3436  0.0903 -0.0269
  293loPI    C1 4673  11.775  17.982  10.884 -0.1148 -0.0268  0.0501
  293loPI    C2 4674  12.112  17.770  10.921  0.0924  0.2475 -0.2105
  293loPI    C3 4675  11.763  17.612  11.034  0.2781 -0.1211 -0.1367
  293loPI   PO4 4676  11.719  18.080  10.610  0.0118 -0.0138 -0.0669
  293loPI   GL1 4677  11.837  18.149  10.261 -0.0488 -0.0286 -0.1051
  293loPI   GL2 4678  11.770  18.365  10.150 -0.1000 -0.2617  0.0404
  293loPI   C1A 4679  12.131  18.106   9.877 -0.0108  0.1573 -0.0454
  293loPI   C2A 4680  12.127  18.053   9.430 -0.0103 -0.0999 -0.0014
  293loPI   C3A 4681  12.198  18.069   9.020 -0.0871 -0.1271  0.4823
  293loPI   C4A 4682  12.287  18.117   8.569 -0.0582  0.2778  0.1807
  293loPI   C5A 4683  12.458  18.325   8.212 -0.1494  0.1742  0.1031
  293loPI   C6A 4684  12.473  18.692   7.959 -0.0574 -0.2247  0.0309
  293loPI   C1B 4685  11.751  18.483   9.695 -0.0366 -0.3414  0.1095
  293loPI   C2B 4686  11.812  18.453   9.286  0.0639 -0.1568  0.1085
  293loPI   C3B 4687  11.937  18.447   8.797  0.2599  0.2263  0.0673
  293loPI   C4B 4688  12.177  18.637   8.496  0.0852 -0.4359 -0.1064
  294loPI    C1 4689  14.134   2.172  10.908 -0.1861  0.1988 -0.0762
  294loPI    C2 4690  14.105   2.419  11.221  0.0371 -0.0299  0.1293
  294loPI    C3 4691  14.345   2.100  11.240  0.0788 -0.0283 -0.2893
  294loPI   PO4 4692  14.119   2.317  10.729  0.3779 -0.1049  0.2161
  294loPI   GL1 4693  14.374   2.278  10.390  0.1191  0.2944  0.3203
  294loPI   GL2 4694  14.594   2.555  10.385  0.1908 -0.3461  0.3168
  294loPI   C1A 4695  14.203   2.252   9.978  0.2148 -0.0721  0.3973
  294loPI   C2A 4696  14.198   2.135   9.502 -0.2409  0.3378  0.0181
  294loPI   C3A 4697  14.256   2.136   9.092  0.2637 -0.1715  0.0667
  294loPI   C4A 4698  14.237   2.062   8.687 -0.0713  0.0383  0.0604
  294loPI   C5A 4699  13.824   1.978   8.516 -0.2641 -0.2275 -0.0913
  294loPI   C6A 4700  13.441   1.973   8.629 -0.0086 -0.2127  0.1167
  294loPI   C1B 4701  14.693   2.356   9.997 -0.0335 -0.1635 -0.1453
  294loPI   C2B 4702  14.819   2.372   9.590 -0.1839  0.3501  0.1395
  294loPI   C3B 4703  14.741   2.256   9.220  0.1714 -0.0595 -0.2969
  294loPI   C4B 4704  14.688   2.184   8.798 -0.3190  0.1307 -0.1848
  295loPI    C1 4705  16.152   0.758  11.300  0.0311  0.0669  0.0609
  295loPI    C2 4706  15.963   0.542  11.578 -0.0998  0.0736 -0.0224
  295loPI    C3 4707  16.309   0.722  11.667 -0.1200  0.0419  0.1236
  295loPI   PO4 4708  15.932   0.772  11.046 -0.0504  0.1045  0.0904
  295loPI   GL1 4709  15.745   0.785  10.671 -0.0421 -0.2061  0.1322
  295loPI   GL2 4710  15.920   1.051  10.612 -0.0913  0.1034 -0.2165
  295loPI   C1A 4711  15.630   0.651  10.258  0.2803 -0.0228 -0.3470
  295loPI   C2A 4712  15.576   0.715   9.910 -0.2219  0.2043 -0.0195
  295loPI   C3A 4713  15.722   0.534   9.649  0.1028  0.2885 -0.2329
  295loPI   C4A 4714  15.795   0.670   9.194 -0.1437 -0.1375  0.2065
  295loPI   C5A 4715  15.617   0.736   8.765  0.2476 -0.0664 -0.1907
  295loPI   C6A 4716  15.127   0.764   8.525 -0.0031 -0.0789 -0.0775
  295loPI   C1B 4717  16.197   1.237  10.286  0.1106  0.0380  0.3456
  295loPI   C2B 4718  16.348   1.233   9.892 -0.1569 -0.3442  0.0391
  295loPI   C3B 4719  16.304   1.410   9.523  0.0603 -0.0568  0.0209
  295loPI   C4B 4720  16.326   1.431   9.108  0.2723  0.0225  0.1644
  296loPI    C1 4721   1.891   4.597  11.269 -0.3270  0.0479 -0.2359
  296loPI    C2 4722   1.541   4.561  11.460 -0.1551 -0.1135  0.0566
  296loPI    C3 4723   1.823   4.805  11.604 -0.1140 -0.0482 -0.1313
  296loPI   PO4 4724   1.814   4.636  11.033 -0.0305  0.1134 -0.1764
  296loPI   GL1 4725   1.768   4.652  10.584 -0.0969 -0.0725 -0.2168
  296loPI   GL2 4726   1.427   4.764  10.561 -0.0396  0.0686  0.1958
  296loPI   C1A 4727   1.860   4.535  10.053  0.0232 -0.2891 -0.2118
  296loPI   C2A 4728   1.834   4.451   9.599  0.1024  0.0242 -0.5150
  296loPI   C3A 4729   1.887   4.353   9.135 -0.1036  0.0172  0.0012
  296loPI   C4A 4730   1.896   4.339   8.690  0.0583 -0.5557 -0.2148
  296loPI   C5A 4731   1.672   4.455   8.346  0.1653 -0.2620 -0.1621
  296loPI   C6A 4732   1.622   4.918   8.062 -0.4071  0.0339  0.1381
  296loPI   C1B 4733   1.458   4.832  10.163  0.3202 -0.2067 -0.1262
  296loPI   C2B 4734   1.443   4.744   9.725 -0.2341  0.0199  0.0388
  296loPI   C3B 4735   1.531   4.714   9.238 -0.3197  0.1939 -0.6680
  296loPI   C4B 4736   1.534   4.754   8.817  0.0457 -0.2352  0.2620
  297loPI    C1 4737   3.428   7.501  11.081 -0.1855 -0.1331 -0.1317
  297loPI    C2 4738   3.464   7.178  11.313  0.0689  0.1433  0.2266
  297loPI    C3 4739   3.181   7.450  11.391  0.1016  0.1964  0.1609
  297loPI   PO4 4740   3.477   7.402  10.765 -0.0623  0.1789 -0.1293
  297loPI   GL1 4741   3.469   7.493  10.393  0.0167 -0.0520  0.3171
  297loPI   GL2 4742   3.563   7.716  10.254  0.1571 -0.3694  0.2186
  297loPI   C1A 4743   3.473   7.285  10.013  0.0735  0.0143  0.0496
  297loPI   C2A 4744   3.443   7.288   9.632  0.0512  0.1376  0.0100
  297loPI   C3A 4745   3.454   7.244   9.243  0.3685  0.5728 -0.0557
  297loPI   C4A 4746   3.486   7.144   8.827 -0.0300 -0.2028  0.1901
  297loPI   C5A 4747   3.671   7.092   8.400  0.0661 -0.1120  0.0685
  297loPI   C6A 4748   3.710   7.022   7.937 -0.0847  0.2150 -0.0469
  297loPI   C1B 4749   3.547   7.798   9.839  0.1321 -0.1355  0.0921
  297loPI   C2B 4750   3.553   7.694   9.365 -0.1812 -0.1433 -0.1242
  297loPI   C3B 4751   3.589   7.613   8.980 -0.1768  0.1646  0.1305
  297loPI   C4B 4752   3.555   7.560   8.529  0.0970  0.2449 -0.0330
  298loPI    C1 4753   9.199   9.343  10.190 -0.0555  0.0016 -0.2610
  298loPI    C2 4754   8.804   9.392  10.149 -0.1512 -0.3758  0.1299
  298loPI    C3 4755   8.947   9.146  10.430  0.3764  0.0486  0.2513
  298loPI   PO4 4756   9.256   9.472   9.940 -0.0338  0.0372  0.2561
  298loPI   GL1 4757   9.090   9.381   9.551 -0.0097  0.2078 -0.0218
  298loPI   GL2 4758   8.825   9.270   9.656 -0.0323 -0.3804  0.2295
  298loPI   C1A 4759   9.261   9.677   9.223 -0.1938 -0.0494 -0.1522
  298loPI   C2A 4760   9.421   9.884   8.919  0.1274 -0.1866  0.2248
  298loPI   C3A 4761   9.478  10.122   8.560  0.1794 -0.0312 -0.1017
  298loPI   C4A 4762   9.486  10.590   8.249  0.2075 -0.1348 -0.3446
  298loPI   C5A 4763   9.610  10.959   8.042  0.2236 -0.2419 -0.1748
  298loPI   C6A 4764   9.963  11.028   7.677 -0.0741 -0.0724 -0.1303
  298loPI   C1B 4765   8.647   9.475   9.279 -0.1780 -0.1038 -0.1780
  298loPI   C2B 4766   8.303   9.333   9.013  0.0918 -0.0235 -0.0147
  298loPI   C3B 4767   8.090   9.335   8.641  0.2747  0.4010  0.0209
  298loPI   C4B 4768   8.073   9.097   8.205  0.2619  0.5687  0.0803
  299loPI    C1 4769   2.085   6.419  11.125 -0.0855  0.1518  0.0605
  299loPI    C2 4770   2.296   6.734  11.254  0.0266  0.0514  0.1242
  299loPI    C3 4771   2.376   6.368  11.395 -0.1443  0.0024  0.0965
  299loPI   PO4 4772   2.082   6.478  10.827 -0.1308 -0.2186 -0.0335
  299loPI   GL1 4773   1.800   6.387  10.481 -0.0031  0.0901  0.0619
  299loPI   GL2 4774   2.161   6.521  10.351 -0.0301 -0.1228 -0.1733
  299loPI   C1A 4775   1.768   6.347  10.105 -0.0518  0.1875 -0.0101
  299loPI   C2A 4776   1.959   6.383   9.748  0.0685 -0.0880  0.1092
  299loPI   C3A 4777   1.974   6.254   9.311  0.1534 -0.3027 -0.0679
  299loPI   C4A 4778   1.960   6.233   8.830  0.2353  0.1250 -0.1260
  299loPI   C5A 4779   2.001   6.209   8.444 -0.0393 -0.3191  0.1677
  299loPI   C6A 4780   2.219   6.164   8.001 -0.1224 -0.0514  0.1320
  299loPI   C1B 4781   2.329   6.528   9.999  0.0810 -0.2289 -0.1121
  299loPI   C2B 4782   2.420   6.414   9.585  0.0303 -0.1699 -0.1334
  299loPI   C3B 4783   2.445   6.373   9.098 -0.1190  0.0923  0.1257
  299loPI   C4B 4784   2.440   6.425   8.638  0.2382 -0.1839  0.1336
  300loPI    C1 4785   4.477   7.759  10.938 -0.2950  0.0478  0.5144
  300loPI    C2 4786   4.818   7.550  10.919 -0.1761  0.2774 -0.3213
  300loPI    C3 4787   4.773   7.836  11.195  0.1779  0.0394 -0.0069
  300loPI   PO4 4788   4.372   7.698  10.732  0.2794  0.3351 -0.4416
  300loPI   GL1 4789   4.290   7.828  10.233  0.1804  0.2756  0.1860
  300loPI   GL2 4790   4.082   7.884  10.092  0.1251  0.0415 -0.2418
  300loPI   C1A 4791   4.565   7.631   9.983 -0.2313  0.3204  0.0140
  300loPI   C2A 4792   4.591   7.576   9.545  0.1403 -0.2034  0.0362
  300loPI   C3A 4793   4.395   7.500   9.079 -0.1194  0.1397  0.3575
  300loPI   C4A 4794   4.476   7.410   8.708 -0.1386 -0.1659 -0.0187
  300loPI   C5A 4795   4.187   7.523   8.296 -0.2626  0.1314  0.1247
  300loPI   C6A 4796   3.908   7.522   8.083  0.1980  0.2155  0.0113
  300loPI   C1B 4797   4.224   7.916   9.727 -0.2853  0.2986 -0.4439
  300loPI   C2B 4798   4.140   7.893   9.373  0.0704 -0.3930 -0.2992
  300loPI   C3B 4799   4.043   7.825   9.020 -0.2958  0.1887 -0.1753
  300loPI   C4B 4800   3.964   7.854   8.621  0.0526  0.3095  0.0043
  301loPI    C1 4801   0.479  14.375  11.060 -0.0911  0.0189  0.1803
  301loPI    C2 4802   0.719  14.499  10.764  0.0358 -0.2921  0.1491
  301loPI    C3 4803   0.605  14.755  11.050 -0.1021  0.0165 -0.1751
  301loPI   PO4 4804   0.273  14.320  10.956 -0.3257  0.2668  0.0915
  301loPI   GL1 4805   0.528  14.137  10.557  0.2908  0.1789  0.2513
  301loPI   GL2 4806   0.732  14.295  10.312 -0.2409  0.1488 -0.0297
  301loPI   C1A 4807   0.244  14.260  10.205 -0.3695 -0.2441  0.3322
  301loPI   C2A 4808   0.252  14.355   9.780 -0.0119  0.1782  0.0629
  301loPI   C3A 4809   0.260  14.353   9.393 -0.2970  0.0710  0.0035
  301loPI   C4A 4810   0.355  14.269   9.072  0.0926  0.0331  0.1974
  301loPI   C5A 4811   0.420  14.234   8.619  0.1940  0.1070 -0.3200
  301loPI   C6A 4812   0.209  14.266   8.131  0.0741  0.1420  0.1695
  301loPI   C1B 4813   0.718  14.479   9.887 -0.0232  0.1626  0.3138
  301loPI   C2B 4814   0.740  14.519   9.429 -0.2010  0.1108  0.3114
  301loPI   C3B 4815   0.775  14.524   8.930 -0.1147  0.1701  0.1495
  301loPI   C4B 4816   0.727  14.611   8.458  0.3369 -0.0209 -0.1410
  302loPI    C1 4817  10.429   4.723  10.294  0.0192 -0.0728  0.4494
  302loPI    C2 4818  10.149   4.923  10.498 -0.1264  0.0428  0.1414
  302loPI    C3 4819  10.050   4.598  10.286 -0.0149  0.0424  0.0891
  302loPI   PO4 4820  10.651   4.889  10.071 -0.1215 -0.0077 -0.1926
  302loPI   GL1 4821  10.889   4.687   9.713 -0.1505  0.2762  0.0623
  302loPI   GL2 4822  10.942   4.990   9.608 -0.0887  0.3420 -0.1537
  302loPI   C1A 4823  10.918   4.557   9.264 -0.0894  0.1673  0.2285
  302loPI   C2A 4824  11.186   4.563   8.848 -0.0707 -0.2480  0.3762
  302loPI   C3A 4825  11.552   4.444   8.521  0.0434  0.0516 -0.2146
  302loPI   C4A 4826  11.839   4.284   8.228  0.0729  0.1851  0.3477
  302loPI   C5A 4827  12.112   4.109   7.850 -0.2483 -0.0893  0.1067
  302loPI   C6A 4828  12.440   4.088   7.614  0.4873 -0.1888  0.1987
  302loPI   C1B 4829  10.947   5.038   9.155 -0.2244 -0.0722 -0.1650
  302loPI   C2B 4830  11.198   5.084   8.827 -0.1879  0.2314 -0.1668
  302loPI   C3B 4831  11.466   4.958   8.584  0.1810 -0.1714  0.1598
  302loPI   C4B 4832  11.899   4.765   8.405 -0.0709 -0.1904  0.1582
  303loPI    C1 4833   0.727   6.394  11.282  0.1409 -0.4478  0.0303
  303loPI    C2 4834   1.122   6.443  11.316  0.0893 -0.0345  0.0864
  303loPI    C3 4835   0.903   6.354  11.638  0.1371 -0.2895  0.0506
  303loPI   PO4 4836   0.736   6.461  11.025  0.0747 -0.2990 -0.0746
  303loPI   GL1 4837   0.748   6.536  10.624 -0.0369 -0.0035  0.0426
  303loPI   GL2 4838   0.976   6.422  10.370  0.3485  0.0945 -0.0994
  303loPI   C1A 4839   0.678   6.866  10.172  0.5843  0.1727 -0.2958
  303loPI   C2A 4840   0.687   6.859   9.739  0.1738 -0.0774 -0.0246
  303loPI   C3A 4841   0.699   6.714   9.275 -0.0714 -0.1727  0.0617
  303loPI   C4A 4842   0.625   6.837   8.871  0.1206 -0.0062 -0.2533
  303loPI   C5A 4843   0.727   7.024   8.475 -0.1438 -0.0689  0.2638
  303loPI   C6A 4844   0.605   7.068   8.016  0.1163 -0.0111  0.1990
  303loPI   C1B 4845   1.002   6.537  10.007 -0.1789  0.1915  0.1022
  303loPI   C2B 4846   1.032   6.421   9.559  0.0477 -0.0005  0.0501
  303loPI   C3B 4847   1.049   6.395   9.079  0.1569  0.2677 -0.1798
  303loPI   C4B 4848   1.129   6.312   8.722  0.0755  0.0365  0.0587
  304loPI    C1 4849  18.196  14.831  10.861 -0.3804  0.1963 -0.0937
  304loPI    C2 4850  18.526  14.835  11.087 -0.2978 -0.3899 -0.1858
  304loPI    C3 4851  18.178  14.966  11.237 -0.1460 -0.3167  0.1109
  304loPI   PO4 4852  18.242  14.622  10.738 -0.2758 -0.0229  0.0354
  304loPI   GL1 4853  18.186  14.543  10.312 -0.0777 -0.1007 -0.1688
  304loPI   GL2 4854  18.036  14.271  10.227 -0.2406 -0.0107 -0.1878
  304loPI   C1A 4855  18.235  14.601   9.802 -0.2288  0.1221  0.2075
  304loPI   C2A 4856  18.299  14.686   9.370  0.3231 -0.1240  0.2413
  304loPI   C3A 4857  18.328  14.591   8.986  0.1262 -0.1688 -0.1596
  304loPI   C4A 4858  18.436  14.626   8.630  0.1381  0.2862 -0.1323
  304loPI   C5A 4859  18.195  14.612   8.327 -0.0614 -0.0605 -0.1152
  304loPI   C6A 4860  17.834  14.324   8.213  0.2257  0.2617  0.0745
  304loPI   C1B 4861  18.106  14.139   9.844  0.1531 -0.0916 -0.0509
  304loPI   C2B 4862  18.247  14.076   9.398 -0.2140 -0.2181 -0.1008
  304loPI   C3B 4863  18.244  14.101   8.974 -0.0337 -0.0181 -0.3731
  304loPI   C4B 4864  18.224  14.103   8.456  0.0093  0.3927 -0.2712
  305loPI    C1 4865   7.615  10.562  10.004 -0.1526  0.0038 -0.0499
  305loPI    C2 4866   7.273  10.414  10.150 -0.1659 -0.0060 -0.0908
  305loPI    C3 4867   7.582  10.483  10.395 -0.1665 -0.0826 -0.0684
  305loPI   PO4 4868   7.498  10.729   9.805 -0.0987 -0.0505  0.1682
  305loPI   GL1 4869   7.333  10.650   9.417  0.2560  0.2270 -0.1407
  305loPI   GL2 4870   7.054  10.588   9.577  0.1358  0.0811 -0.2780
  305loPI   C1A 4871   7.183  10.705   8.905  0.3276 -0.1668 -0.0572
  305loPI   C2A 4872   7.248  10.462   8.498 -0.1173  0.0990  0.1658
  305loPI   C3A 4873   7.531  10.086   8.650  0.0407  0.1707  0.2378
  305loPI   C4A 4874   7.887   9.872   8.784  0.0748  0.1794 -0.0051
  305loPI   C5A 4875   8.077   9.887   8.448  0.2233  0.0942 -0.2813
  305loPI   C6A 4876   7.940   9.986   7.967 -0.1563  0.1829 -0.0715
  305loPI   C1B 4877   7.016  10.334   9.184 -0.0037 -0.0266  0.0377
  305loPI   C2B 4878   7.070  10.080   8.771 -0.2257 -0.4563  0.0131
  305loPI   C3B 4879   7.033   9.985   8.285  0.1891 -0.0553  0.2000
  305loPI   C4B 4880   6.941   9.967   7.882  0.3074  0.4267 -0.0145
  306loPI    C1 4881   7.488   0.308  10.627 -0.1102  0.0416 -0.0964
  306loPI    C2 4882   7.266   0.141  10.915 -0.2176 -0.1259 -0.2732
  306loPI    C3 4883   7.439   0.497  10.976  0.0244 -0.3028  0.1146
  306loPI   PO4 4884   7.386   0.301  10.452  0.2318 -0.0498  0.3352
  306loPI   GL1 4885   7.457   0.266  10.004 -0.2587  0.0647  0.3072
  306loPI   GL2 4886   7.152   0.073   9.969 -0.1563 -0.1223 -0.0756
  306loPI   C1A 4887   7.596   0.213   9.693  0.0440 -0.3879 -0.0881
  306loPI   C2A 4888   7.561   0.309   9.216  0.0001 -0.1070  0.3251
  306loPI   C3A 4889   7.528   0.248   8.791 -0.0548 -0.0371 -0.2047
  306loPI   C4A 4890   7.631   0.158   8.472  0.2925 -0.1615 -0.0835
  306loPI   C5A 4891   7.704   0.262   8.083 -0.1786  0.2971 -0.1709
  306loPI   C6A 4892   7.817   0.628   7.772 -0.0885  0.1869  0.0322
  306loPI   C1B 4893   7.087   0.142   9.441 -0.3277  0.2436  0.1606
  306loPI   C2B 4894   6.970   0.154   8.984  0.0725  0.0346  0.0413
  306loPI   C3B 4895   6.929   0.114   8.556 -0.3836  0.0825 -0.1195
  306loPI   C4B 4896   6.547   0.085   8.217  0.0396 -0.0820 -0.0099
  307loPI    C1 4897   0.739  11.977  10.660 -0.3259  0.2601 -0.0875
  307loPI    C2 4898   0.886  11.845  11.007  0.0262  0.3230 -0.2085
  307loPI    C3 4899   0.490  11.870  10.954 -0.0350  0.0584  0.0902
  307loPI   PO4 4900   0.883  11.868  10.443 -0.2739  0.3663  0.0952
  307loPI   GL1 4901   0.666  11.839  10.022 -0.1474 -0.0668 -0.0666
  307loPI   GL2 4902   0.952  12.020   9.957 -0.0282 -0.0700 -0.0468
  307loPI   C1A 4903   0.302  11.932   9.731  0.1532 -0.0487 -0.0655
  307loPI   C2A 4904   0.105  11.918   9.366 -0.1806  0.0330 -0.2916
  307loPI   C3A 4905   0.124  11.955   8.853  0.2730 -0.0488 -0.1534
  307loPI   C4A 4906   0.116  11.891   8.457 -0.0624 -0.3028  0.3968
  307loPI   C5A 4907   0.141  12.144   8.045 -0.1455 -0.1613  0.2290
  307loPI   C6A 4908   0.196  12.342   7.681  0.1502  0.0098 -0.0777
  307loPI   C1B 4909   0.780  11.811   9.554 -0.2123  0.1531  0.2228
  307loPI   C2B 4910   0.644  12.006   9.234 -0.1602  0.0286 -0.2900
  307loPI   C3B 4911   0.597  12.064   8.726  0.2515  0.0902 -0.1111
  307loPI   C4B 4912   0.587  12.010   8.283 -0.1604 -0.0371  0.1965
  308loPI    C1 4913   5.923   3.481  10.562 -0.0160  0.1924  0.0474
  308loPI    C2 4914   6.023   3.504  10.949 -0.1712 -0.0360  0.1032
  308loPI    C3 4915   5.779   3.777  10.789  0.1203  0.2246  0.0934
  308loPI   PO4 4916   5.895   3.291  10.490  0.0814  0.2463 -0.2232
  308loPI   GL1 4917   5.633   3.256  10.173 -0.0338  0.3152 -0.0573
  308loPI   GL2 4918   5.876   3.051  10.104  0.3379  0.1880  0.0071
  308loPI   C1A 4919   5.530   3.230   9.786 -0.2031  0.3415 -0.2272
  308loPI   C2A 4920   5.710   3.251   9.332  0.3483 -0.0164  0.0634
  308loPI   C3A 4921   6.146   3.419   9.283  0.0349  0.1879  0.2738
  308loPI   C4A 4922   6.324   3.798   9.106 -0.1346  0.0267 -0.1412
  308loPI   C5A 4923   6.459   3.780   8.622  0.1758  0.1399 -0.1542
  308loPI   C6A 4924   6.673   3.379   8.453  0.0182 -0.0543  0.1721
  308loPI   C1B 4925   5.651   2.809   9.648 -0.2283 -0.0868  0.3395
  308loPI   C2B 4926   5.306   2.973   9.361 -0.3691  0.0535 -0.2434
  308loPI   C3B 4927   5.418   2.956   8.930  0.0481 -0.2864 -0.0477
  308loPI   C4B 4928   5.815   3.102   8.786  0.0803  0.1000  0.2576
  309loPI    C1 4929  11.631   0.615  10.951  0.2857  0.1387 -0.0825
  309loPI    C2 4930  11.858   0.325  11.108  0.1046  0.0311 -0.0174
  309loPI    C3 4931  11.476   0.365  11.221  0.0593  0.1438 -0.2054
  309loPI   PO4 4932  11.683   0.605  10.723 -0.0864 -0.2543 -0.2414
  309loPI   GL1 4933  11.919   0.586  10.412  0.3792 -0.3014 -0.1007
  309loPI   GL2 4934  12.144   0.918  10.400 -0.3641  0.0509  0.0306
  309loPI   C1A 4935  11.846   0.558   9.995 -0.2377  0.1500  0.0312
  309loPI   C2A 4936  11.959   0.543   9.461 -0.1526 -0.2469 -0.0541
  309loPI   C3A 4937  11.888   0.553   9.025  0.0716  0.1159  0.0774
  309loPI   C4A 4938  11.997   0.754   8.733 -0.0023  0.0300 -0.0510
  309loPI   C5A 4939  12.015   0.807   8.325  0.1747 -0.2506 -0.0339
  309loPI   C6A 4940  12.233   0.695   7.965 -0.0452 -0.1101 -0.1980
  309loPI   C1B 4941  12.491   1.098  10.103 -0.1956  0.0244 -0.0664
  309loPI   C2B 4942  12.553   1.232   9.697 -0.1644 -0.1566 -0.3441
  309loPI   C3B 4943  12.436   1.167   9.319 -0.1855 -0.1999 -0.2180
  309loPI   C4B 4944  12.107   0.993   9.140  0.1138 -0.0851  0.1587
  310loPI    C1 4945  11.425  11.712   9.976  0.0136 -0.0044  0.2435
  310loPI    C2 4946  11.133  11.485   9.823  0.0729 -0.1111  0.2878
  310loPI    C3 4947  11.510  11.351   9.827  0.1603  0.1157  0.0298
  310loPI   PO4 4948  11.376  11.931   9.859 -0.2359  0.1855 -0.3303
  310loPI   GL1 4949  11.292  12.114   9.535  0.0970  0.1217 -0.2152
  310loPI   GL2 4950  11.550  11.929   9.318 -0.0400  0.2850  0.0355
  310loPI   C1A 4951  11.215  12.114   9.055  0.0848 -0.0890  0.3484
  310loPI   C2A 4952  11.085  12.297   8.645 -0.1652  0.0716 -0.2147
  310loPI   C3A 4953  11.056  12.313   8.168  0.0512 -0.0537  0.2368
  310loPI   C4A 4954  11.275  12.366   7.807  0.0712  0.2492  0.1728
  310loPI   C5A 4955  11.599  12.496   7.539 -0.0672 -0.2282 -0.2026
  310loPI   C6A 4956  12.104  12.676   7.621  0.2043 -0.1336  0.1616
  310loPI   C1B 4957  11.764  11.905   8.904 -0.1414  0.2147 -0.0497
  310loPI   C2B 4958  11.922  12.012   8.550  0.1210 -0.3852  0.1956
  310loPI   C3B 4959  11.898  12.008   8.103 -0.1983  0.0879 -0.1959
  310loPI   C4B 4960  11.876  12.158   7.778  0.0642 -0.0588  0.1506
  311loPI    C1 4961  12.015   2.855  11.328  0.0594 -0.2525 -0.2145
  311loPI    C2 4962  11.933   2.466  11.364  0.0046 -0.2044  0.2389
  311loPI    C3 4963  12.057   2.674  11.682 -0.0694  0.1735  0.0263
  311loPI   PO4 4964  12.096   2.870  10.980  0.1398  0.1092 -0.0140
  311loPI   GL1 4965  11.987   2.795  10.590 -0.4230 -0.1821 -0.2206
  311loPI   GL2 4966  11.887   2.698  10.370  0.1990 -0.0112 -0.0950
  311loPI   C1A 4967  12.316   2.666  10.180 -0.2165  0.1285  0.0871
  311loPI   C2A 4968  12.441   2.593   9.766  0.4124 -0.0219 -0.1543
  311loPI   C3A 4969  12.458   2.620   9.365  0.0803 -0.1198 -0.1887
  311loPI   C4A 4970  12.444   2.586   8.856  0.0167 -0.0751 -0.0904
  311loPI   C5A 4971  12.666   2.390   8.456  0.1804 -0.0696 -0.0422
  311loPI   C6A 4972  13.025   2.109   8.284 -0.3338 -0.2816 -0.0439
  311loPI   C1B 4973  11.574   2.837  10.102 -0.2277 -0.0768  0.2938
  311loPI   C2B 4974  11.579   2.892   9.606  0.0652 -0.1468  0.0856
  311loPI   C3B 4975  11.603   2.801   9.151  0.1888  0.2657 -0.1510
  311loPI   C4B 4976  11.676   2.818   8.797 -0.2006  0.0627  0.0994
  312loPI    C1 4977  15.413  13.824  10.937  0.0537  0.0015  0.1265
  312loPI    C2 4978  15.175  14.085  11.124  0.0465 -0.1342  0.3098
  312loPI    C3 4979  15.127  13.693  11.183  0.0264 -0.1815 -0.0008
  312loPI   PO4 4980  15.323  13.858  10.691  0.1460 -0.1764  0.1318
  312loPI   GL1 4981  15.380  14.106  10.362  0.3374  0.5583 -0.0887
  312loPI   GL2 4982  15.628  13.895  10.259 -0.0364 -0.2799  0.2275
  312loPI   C1A 4983  15.359  14.260   9.989 -0.1998 -0.0545  0.1213
  312loPI   C2A 4984  15.378  14.300   9.520 -0.2242 -0.1744 -0.0653
  312loPI   C3A 4985  15.391  14.311   9.113  0.2144  0.0054 -0.3291
  312loPI   C4A 4986  15.476  14.391   8.742  0.0918 -0.1914 -0.2315
  312loPI   C5A 4987  15.469  14.431   8.194 -0.1806 -0.0271  0.1730
  312loPI   C6A 4988  15.864  14.544   7.926  0.1949  0.1578 -0.0886
  312loPI   C1B 4989  15.706  13.903   9.737  0.3328 -0.0774  0.1543
  312loPI   C2B 4990  15.754  13.938   9.346  0.0867 -0.3550  0.0380
  312loPI   C3B 4991  15.781  13.956   8.889 -0.0393  0.2012  0.0352
  312loPI   C4B 4992  15.859  14.059   8.465 -0.2626  0.2282 -0.1145
  313loPI    C1 4993   5.572  16.766  10.724  0.0628 -0.0630 -0.0697
  313loPI    C2 4994   5.216  16.599  10.799  0.0452  0.0498  0.1053
  313loPI    C3 4995   5.411  16.794  11.089  0.4030 -0.2899  0.1026
  313loPI   PO4 4996   5.619  16.650  10.425 -0.0401  0.4978 -0.3101
  313loPI   GL1 4997   5.480  16.526  10.076  0.3103 -0.3313  0.3165
  313loPI   GL2 4998   5.771  16.359  10.009 -0.0197  0.2172 -0.0502
  313loPI   C1A 4999   5.320  16.540   9.758 -0.0128  0.2324  0.2661
  313loPI   C2A 5000   5.239  16.522   9.307  0.1272  0.0645 -0.2424
  313loPI   C3A 5001   5.218  16.596   8.919 -0.1117  0.1998  0.2373
  313loPI   C4A 5002   5.151  16.611   8.474 -0.1905 -0.0204  0.1576
  313loPI   C5A 5003   4.808  16.391   8.193 -0.2461 -0.0718 -0.1298
  313loPI   C6A 5004   4.513  16.115   8.370  0.0421 -0.2278 -0.2869
  313loPI   C1B 5005   5.714  16.087   9.687 -0.2137 -0.1286  0.0308
  313loPI   C2B 5006   5.531  16.095   9.257 -0.4464  0.1223  0.0239
  313loPI   C3B 5007   5.554  16.244   8.805 -0.2811 -0.0954  0.0077
  313loPI   C4B 5008   5.473  16.258   8.368  0.0270 -0.1640 -0.1368
  314loPI    C1 5009  10.950   5.069  10.432  0.1934 -0.0905  0.1185
  314loPI    C2 5010  10.865   5.436  10.565  0.1567 -0.0514 -0.0119
  314loPI    C3 5011  10.570   5.192  10.449  0.1911 -0.0701 -0.0608
  314loPI   PO4 5012  11.192   4.955  10.518 -0.1606 -0.3629  0.1193
  314loPI   GL1 5013  11.472   4.887  10.069  0.0892 -0.0607 -0.2007
  314loPI   GL2 5014  11.309   5.065   9.905  0.3684  0.1075  0.2247
  314loPI   C1A 5015  11.409   4.608   9.616  0.1237  0.0602  0.1912
  314loPI   C2A 5016  11.445   4.291   9.270  0.1115  0.0596  0.0398
  314loPI   C3A 5017  11.393   4.075   8.812 -0.1760 -0.1904 -0.1071
  314loPI   C4A 5018  11.361   4.003   8.342  0.0059 -0.0636  0.0924
  314loPI   C5A 5019  11.006   3.937   7.966  0.0353  0.1118 -0.0741
  314loPI   C6A 5020  10.646   3.660   7.997 -0.1632 -0.2232 -0.0317
  314loPI   C1B 5021  11.391   5.109   9.483  0.1823  0.0106 -0.0005
  314loPI   C2B 5022  11.493   4.816   9.121 -0.3425 -0.0159 -0.1459
  314loPI   C3B 5023  11.754   4.830   8.933  0.2338 -0.3399  0.1661
  314loPI   C4B 5024  12.140   4.733   8.833  0.3194  0.0211 -0.0390
  315loPI    C1 5025   7.329   2.884  10.489 -0.1232  0.4851  0.0602
  315loPI    C2 5026   7.706   2.809  10.599 -0.1320  0.1163 -0.1463
  315loPI    C3 5027   7.441   2.938  10.869  0.1138  0.2768  0.0223
  315loPI   PO4 5028   7.375   2.825  10.224 -0.1401  0.0088  0.0247
  315loPI   GL1 5029   7.600   3.096   9.823 -0.1561  0.1201  0.0972
  315loPI   GL2 5030   7.555   2.839   9.724 -0.1322 -0.3714  0.3483
  315loPI   C1A 5031   7.183   3.186   9.505  0.2912 -0.0245 -0.0456
  315loPI   C2A 5032   6.887   3.112   9.110 -0.1463  0.3545 -0.0901
  315loPI   C3A 5033   6.862   2.928   8.631 -0.1072  0.3652  0.4143
  315loPI   C4A 5034   6.865   2.807   8.153  0.0358  0.1797  0.1597
  315loPI   C5A 5035   6.703   2.893   7.709  0.0683 -0.0165  0.0026
  315loPI   C6A 5036   6.364   2.900   7.459  0.0445  0.0116 -0.1224
  315loPI   C1B 5037   7.355   2.749   9.314  0.0569 -0.2154  0.1713
  315loPI   C2B 5038   7.252   2.572   8.913 -0.3986  0.2292 -0.2609
  315loPI   C3B 5039   7.129   2.384   8.459 -0.2200 -0.1130 -0.1251
  315loPI   C4B 5040   7.077   2.298   8.032 -0.1210 -0.0216 -0.1936
  316loPI    C1 5041   3.231   8.380  10.571 -0.0058 -0.2111  0.0637
  316loPI    C2 5042   3.063   8.606  10.855 -0.0040 -0.0866 -0.0338
  316loPI    C3 5043   3.328   8.324  10.955 -0.0846 -0.1162  0.0977
  316loPI   PO4 5044   3.293   8.507  10.387  0.1404 -0.0063 -0.0186
  316loPI   GL1 5045   2.958   8.559  10.034 -0.0538  0.4127 -0.3049
  316loPI   GL2 5046   3.087   8.734   9.878  0.1661  0.0840  0.2912
  316loPI   C1A 5047   2.795   8.416   9.631  0.2728 -0.1028 -0.1082
  316loPI   C2A 5048   2.778   8.427   9.257  0.0596 -0.2610  0.1135
  316loPI   C3A 5049   2.871   8.392   8.846 -0.2130  0.0536  0.0762
  316loPI   C4A 5050   2.951   8.345   8.429  0.3246  0.0213  0.1038
  316loPI   C5A 5051   2.868   8.135   8.091 -0.0054  0.0289  0.2440
  316loPI   C6A 5052   2.888   7.710   7.896 -0.0338  0.0937  0.1479
  316loPI   C1B 5053   2.911   8.837   9.433  0.4744 -0.0397 -0.0226
  316loPI   C2B 5054   2.853   8.882   9.103 -0.1914 -0.0539 -0.1752
  316loPI   C3B 5055   2.767   8.816   8.699  0.0987  0.1270  0.0111
  316loPI   C4B 5056   2.811   8.955   8.331 -0.0630  0.0604 -0.0495
  317loPI    C1 5057   7.956  16.114  10.700 -0.1503 -0.0396 -0.0069
  317loPI    C2 5058   7.994  15.729  10.801  0.0869 -0.1148 -0.3636
  317loPI    C3 5059   8.320  15.954  10.744 -0.0503  0.1483 -0.1357
  317loPI   PO4 5060   7.828  16.119  10.452  0.0442 -0.1551 -0.2306
  317loPI   GL1 5061   7.797  16.209  10.045 -0.0381 -0.1854 -0.0908
  317loPI   GL2 5062   8.116  16.131   9.920 -0.1297  0.2388 -0.0639
  317loPI   C1A 5063   7.612  16.075   9.774  0.0424  0.1623  0.0432
  317loPI   C2A 5064   7.448  16.229   9.350  0.0098  0.1196  0.1591
  317loPI   C3A 5065   7.365  16.280   9.045  0.1500  0.0208 -0.1549
  317loPI   C4A 5066   7.326  16.326   8.576  0.0356  0.0898  0.3221
  317loPI   C5A 5067   7.555  16.426   8.177 -0.4401  0.0187 -0.1550
  317loPI   C6A 5068   7.511  16.211   7.823  0.0411 -0.1205  0.0334
  317loPI   C1B 5069   8.090  16.276   9.550 -0.0218 -0.1069 -0.1070
  317loPI   C2B 5070   7.856  16.423   9.156  0.2997  0.0502 -0.0625
  317loPI   C3B 5071   7.845  16.539   8.617 -0.0602 -0.0130 -0.1566
  317loPI   C4B 5072   8.005  16.690   8.118 -0.2043 -0.0060  0.0516
  318loPI    C1 5073  14.954   3.153  10.629  0.1398 -0.1769  0.1848
  318loPI    C2 5074  14.831   3.131  11.009 -0.0490  0.0869  0.1411
  318loPI    C3 5075  14.688   2.875  10.738 -0.0778  0.0359  0.2044
  318loPI   PO4 5076  15.215   3.216  10.643  0.3048  0.1563 -0.0662
  318loPI   GL1 5077  15.457   3.122  10.338 -0.1054 -0.3335  0.0331
  318loPI   GL2 5078  15.666   3.351  10.282  0.0680 -0.1541  0.0912
  318loPI   C1A 5079  15.385   3.018   9.970  0.0352 -0.1154  0.1740
  318loPI   C2A 5080  15.242   2.927   9.542  0.0964  0.0249 -0.1625
  318loPI   C3A 5081  15.310   2.989   9.053 -0.0192  0.1082 -0.0841
  318loPI   C4A 5082  15.375   2.785   8.684 -0.0645  0.2969 -0.0893
  318loPI   C5A 5083  15.701   2.646   8.379 -0.4626  0.3557  0.2008
  318loPI   C6A 5084  16.121   2.697   8.226  0.1081 -0.2262 -0.2295
  318loPI   C1B 5085  15.913   3.616   9.909 -0.0679  0.1570  0.1627
  318loPI   C2B 5086  15.986   3.617   9.406 -0.0597  0.0253  0.0563
  318loPI   C3B 5087  15.926   3.604   9.002 -0.2413 -0.0366 -0.2243
  318loPI   C4B 5088  15.976   3.609   8.546  0.1302  0.0259  0.2805
  319loPI    C1 5089  17.918   9.873  10.835  0.0849 -0.0661  0.1030
  319loPI    C2 5090  18.085   9.511  10.865  0.2270 -0.0222 -0.1282
  319loPI    C3 5091  18.303   9.838  10.938  0.1104  0.0197  0.0387
  319loPI   PO4 5092  17.765   9.839  10.632 -0.2284  0.0391 -0.0785
  319loPI   GL1 5093  17.810   9.794  10.249  0.1261 -0.3947  0.1996
  319loPI   GL2 5094  17.392   9.837  10.184 -0.0149 -0.2135  0.2592
  319loPI   C1A 5095  17.692   9.685   9.800 -0.1966  0.0750  0.3070
  319loPI   C2A 5096  17.829   9.750   9.329  0.0571 -0.1432 -0.0288
  319loPI   C3A 5097  18.081   9.781   8.828 -0.2539  0.1310  0.4107
  319loPI   C4A 5098  18.171   9.781   8.394 -0.0972  0.2559  0.1253
  319loPI   C5A 5099  17.714   9.715   8.259  0.2760 -0.0325 -0.0540
  319loPI   C6A 5100  17.266   9.913   8.145 -0.2020 -0.6247  0.0066
  319loPI   C1B 5101  17.236   9.906   9.885 -0.0390 -0.3840  0.0601
  319loPI   C2B 5102  17.422  10.016   9.494  0.4865 -0.0128  0.1783
  319loPI   C3B 5103  17.226  10.105   9.071  0.0838 -0.0851 -0.2625
  319loPI   C4B 5104  17.234  10.131   8.673 -0.0795 -0.0659 -0.3114
  320loPI    C1 5105   3.323   2.080  11.396  0.0546  0.0904 -0.1209
  320loPI    C2 5106   3.669   2.225  11.535  0.1234 -0.2115  0.0313
  320loPI    C3 5107   3.342   2.231  11.765  0.0919 -0.1693 -0.0144
  320loPI   PO4 5108   3.331   2.154  11.142  0.4013 -0.1015 -0.0295
  320loPI   GL1 5109   3.498   2.048  10.637  0.0820 -0.0439  0.0293
  320loPI   GL2 5110   3.244   1.786  10.537  0.0812 -0.1995 -0.0161
  320loPI   C1A 5111   3.516   2.380  10.343 -0.0987  0.1571  0.1315
  320loPI   C2A 5112   3.422   2.480   9.948  0.0587  0.3573  0.0627
  320loPI   C3A 5113   3.385   2.416   9.484 -0.0858 -0.0579  0.0105
  320loPI   C4A 5114   3.318   2.363   9.145  0.0437 -0.0160  0.2786
  320loPI   C5A 5115   3.024   2.347   8.742 -0.0237  0.0716 -0.0949
  320loPI   C6A 5116   2.859   2.675   8.515 -0.0786  0.0371 -0.2695
  320loPI   C1B 5117   3.369   1.986  10.095 -0.0944  0.1672  0.0260
  320loPI   C2B 5118   3.237   1.902   9.721  0.0724  0.4329  0.1360
  320loPI   C3B 5119   3.188   1.808   9.231 -0.0320  0.0244  0.1106
  320loPI   C4B 5120   3.289   1.942   8.780 -0.1223  0.0168  0.1990
  321loPI    C1 5121  13.374   0.145  11.008 -0.1513  0.0613 -0.0291
  321loPI    C2 5122  13.630   0.426  10.884 -0.2554  0.1310 -0.0881
  321loPI    C3 5123  13.606   0.334  11.273  0.0470 -0.0630 -0.1113
  321loPI   PO4 5124  13.137   0.238  10.803  0.4186 -0.0336  0.1264
  321loPI   GL1 5125  13.206   0.329  10.321  0.0738 -0.1638 -0.1586
  321loPI   GL2 5126  13.128  -0.027  10.163 -0.0139  0.3323 -0.0702
  321loPI   C1A 5127  13.288   0.449   9.952 -0.0506  0.0594  0.3201
  321loPI   C2A 5128  13.385   0.491   9.632  0.1883 -0.0555  0.0150
  321loPI   C3A 5129  13.308   0.453   9.167  0.0760  0.2786  0.0546
  321loPI   C4A 5130  13.552   0.360   8.748 -0.4136  0.0265 -0.0966
  321loPI   C5A 5131  13.893   0.072   8.435  0.2132 -0.1234 -0.0753
  321loPI   C6A 5132  13.906  -0.273   8.203  0.0377  0.0569 -0.2909
  321loPI   C1B 5133  13.214  -0.037   9.722 -0.3890 -0.4643 -0.0287
  321loPI   C2B 5134  13.181  -0.026   9.249 -0.1407 -0.3669 -0.2736
  321loPI   C3B 5135  13.200  -0.007   8.691 -0.0271 -0.4954  0.2870
  321loPI   C4B 5136  12.938  -0.156   8.359  0.3113  0.1290 -0.1128
  322loPI    C1 5137  16.566  17.551  10.937 -0.1742 -0.1408 -0.2458
  322loPI    C2 5138  16.212  17.388  11.025 -0.2080 -0.0245 -0.1643
  322loPI    C3 5139  16.395  17.623  11.292 -0.1462  0.0478 -0.2699
  322loPI   PO4 5140  16.506  17.551  10.675 -0.1161  0.1374 -0.0568
  322loPI   GL1 5141  16.244  17.324  10.380  0.0121  0.0887  0.3298
  322loPI   GL2 5142  16.161  17.624  10.269  0.0532 -0.1526 -0.0824
  322loPI   C1A 5143  16.307  17.329   9.948  0.1283  0.1682 -0.0500
  322loPI   C2A 5144  16.166  17.329   9.545 -0.0176 -0.0573 -0.0604
  322loPI   C3A 5145  16.212  17.374   9.131 -0.3314  0.1333 -0.0302
  322loPI   C4A 5146  16.143  17.379   8.748  0.2642  0.1756 -0.1568
  322loPI   C5A 5147  15.970  17.666   8.439  0.0930 -0.3894 -0.1733
  322loPI   C6A 5148  15.881  18.042   8.501 -0.0694 -0.0460 -0.1131
  322loPI   C1B 5149  16.356  17.794   9.751  0.0533  0.1406 -0.1254
  322loPI   C2B 5150  16.315  17.877   9.287  0.0828  0.2474 -0.0089
  322loPI   C3B 5151  16.325  17.868   8.866 -0.2007  0.2189  0.2225
  322loPI   C4B 5152  16.418  17.784   8.461  0.0782  0.0243 -0.3402
  323loPI    C1 5153   0.789  12.936  10.860  0.0932 -0.0727 -0.1246
  323loPI    C2 5154   0.493  13.163  11.003  0.0031 -0.1830 -0.1346
  323loPI    C3 5155   0.854  13.174  11.175 -0.1032 -0.3123  0.1011
  323loPI   PO4 5156   0.599  12.820  10.623 -0.0394 -0.2195  0.1164
  323loPI   GL1 5157   0.784  12.640  10.248 -0.0472 -0.2061  0.0467
  323loPI   GL2 5158   0.748  12.357  10.276 -0.1600 -0.0179 -0.1386
  323loPI   C1A 5159   0.987  12.969   9.945  0.0107  0.1504  0.0386
  323loPI   C2A 5160   0.885  13.004   9.472  0.0108 -0.3135 -0.1310
  323loPI   C3A 5161   0.953  13.136   9.046 -0.3534 -0.3996  0.1648
  323loPI   C4A 5162   0.933  13.251   8.559  0.3998  0.1383 -0.0875
  323loPI   C5A 5163   1.036  13.225   8.113 -0.3183  0.0693  0.3915
  323loPI   C6A 5164   1.136  13.411   7.673  0.1298  0.2433 -0.1213
  323loPI   C1B 5165   0.613  12.355   9.893 -0.1794  0.0441  0.1716
  323loPI   C2B 5166   0.800  12.495   9.611 -0.0983 -0.4538  0.0356
  323loPI   C3B 5167   0.847  12.491   9.259  0.3458  0.0281 -0.2282
  323loPI   C4B 5168   0.781  12.521   8.866  0.3523 -0.0394  0.0668
  324loPI    C1 5169   5.552   8.506  10.595 -0.1518  0.4062  0.2027
  324loPI    C2 5170   5.158   8.444  10.575 -0.0660 -0.1602  0.0844
  324loPI    C3 5171   5.366   8.307  10.888  0.0317  0.2046  0.1846
  324loPI   PO4 5172   5.584   8.408  10.312 -0.1357  0.1080  0.1693
  324loPI   GL1 5173   5.507   8.306   9.928  0.0676  0.2510  0.1966
  324loPI   GL2 5174   5.588   8.531   9.682 -0.3851 -0.0938  0.0803
  324loPI   C1A 5175   5.227   8.141   9.598 -0.0675  0.0798 -0.0586
  324loPI   C2A 5176   5.057   8.252   9.198 -0.0548  0.1963 -0.0013
  324loPI   C3A 5177   4.990   8.147   8.820 -0.1356  0.1010  0.1417
  324loPI   C4A 5178   4.950   8.068   8.416  0.1260 -0.2212  0.1875
  324loPI   C5A 5179   5.045   8.069   7.864  0.0763  0.0041  0.0297
  324loPI   C6A 5180   5.050   7.745   7.507 -0.1205  0.0598 -0.1194
  324loPI   C1B 5181   5.544   8.438   9.244  0.1307  0.3753 -0.0796
  324loPI   C2B 5182   5.432   8.358   8.814  0.1966  0.0223  0.0152
  324loPI   C3B 5183   5.548   8.238   8.488  0.3113  0.0901  0.0460
  324loPI   C4B 5184   5.732   8.012   8.153 -0.1275 -0.0451 -0.0337
  325loPI    C1 5185  14.312   5.499  10.561  0.0197 -0.1190 -0.0692
  325loPI    C2 5186  14.002   5.621  10.339  0.0597 -0.3362 -0.2476
  325loPI    C3 5187  13.962   5.586  10.735 -0.0198  0.0283 -0.2203
  325loPI   PO4 5188  14.495   5.670  10.527  0.0541  0.1155  0.0380
  325loPI   GL1 5189  14.635   5.759  10.118 -0.1859 -0.1894 -0.0508
  325loPI   GL2 5190  14.804   5.588  10.135 -0.1446  0.1228  0.0448
  325loPI   C1A 5191  14.309   5.597   9.878  0.3626  0.1601  0.0024
  325loPI   C2A 5192  14.050   5.519   9.514 -0.0243 -0.1931 -0.0103
  325loPI   C3A 5193  14.002   5.422   9.066 -0.4040 -0.1454  0.2406
  325loPI   C4A 5194  14.069   5.376   8.617 -0.0680  0.1609  0.1407
  325loPI   C5A 5195  14.196   5.452   8.138 -0.1455 -0.2817 -0.1241
  325loPI   C6A 5196  14.352   5.260   7.726  0.0743 -0.1233  0.4090
  325loPI   C1B 5197  14.752   5.572   9.623 -0.0095 -0.1525 -0.0588
  325loPI   C2B 5198  14.637   5.653   9.170 -0.0178  0.0756 -0.0667
  325loPI   C3B 5199  14.519   5.522   8.764 -0.1570 -0.1358  0.0491
  325loPI   C4B 5200  14.631   5.496   8.354 -0.0759 -0.1995  0.0820
  326loPI    C1 5201   4.097  14.781  10.972  0.0276 -0.0570  0.1835
  326loPI    C2 5202   4.455  14.835  11.142  0.1507 -0.0603 -0.0696
  326loPI    C3 5203   4.276  15.138  10.953  0.0834 -0.0962 -0.0638
  326loPI   PO4 5204   4.125  14.619  10.692 -0.2701 -0.0270 -0.1368
  326loPI   GL1 5205   4.067  14.802  10.399 -0.0319  0.0668  0.2022
  326loPI   GL2 5206   3.964  14.445  10.273  0.1123  0.0248 -0.0590
  326loPI   C1A 5207   3.833  14.804   9.937  0.2425 -0.1179  0.2458
  326loPI   C2A 5208   3.786  14.770   9.506 -0.2287 -0.1180 -0.2074
  326loPI   C3A 5209   3.787  14.843   9.125  0.1882  0.0194  0.2288
  326loPI   C4A 5210   3.739  14.697   8.754 -0.3878  0.1947  0.2116
  326loPI   C5A 5211   3.690  14.685   8.305 -0.1623 -0.3765 -0.1658
  326loPI   C6A 5212   3.194  14.844   8.120  0.1303  0.4091  0.0956
  326loPI   C1B 5213   4.086  14.399   9.764  0.1339  0.0714  0.0104
  326loPI   C2B 5214   4.203  14.420   9.271 -0.2392  0.2263 -0.0064
  326loPI   C3B 5215   4.170  14.311   8.850 -0.0489 -0.3704 -0.2425
  326loPI   C4B 5216   4.067  14.434   8.450 -0.2519  0.0181 -0.3677
  327loPI    C1 5217   7.599  16.763  10.668  0.0343 -0.3096 -0.0930
  327loPI    C2 5218   7.293  16.912  10.878 -0.0046 -0.0062 -0.3570
  327loPI    C3 5219   7.669  17.005  10.979 -0.0118 -0.0957 -0.2463
  327loPI   PO4 5220   7.472  16.494  10.541 -0.1081  0.0407  0.0897
  327loPI   GL1 5221   7.388  16.535  10.096 -0.0146  0.0181 -0.0584
  327loPI   GL2 5222   7.580  16.765  10.121  0.0426 -0.2650  0.1914
  327loPI   C1A 5223   7.236  16.505   9.748 -0.0046 -0.1431  0.1951
  327loPI   C2A 5224   7.150  16.688   9.378  0.1324  0.0272 -0.0960
  327loPI   C3A 5225   7.051  16.597   8.955 -0.0072 -0.0770 -0.5427
  327loPI   C4A 5226   7.011  16.711   8.598 -0.1857  0.0284 -0.0695
  327loPI   C5A 5227   7.191  16.718   8.222 -0.0048  0.3219 -0.1344
  327loPI   C6A 5228   7.319  16.914   7.832  0.0495 -0.2290 -0.2748
  327loPI   C1B 5229   7.660  16.681   9.659 -0.1154 -0.0881  0.0994
  327loPI   C2B 5230   7.593  16.858   9.224 -0.2044  0.2562 -0.2199
  327loPI   C3B 5231   7.510  16.822   8.743 -0.0811 -0.2657  0.1170
  327loPI   C4B 5232   7.645  16.917   8.326 -0.2434  0.0577 -0.1558
  328loPI    C1 5233   7.516  14.439  10.394  0.1494  0.0723 -0.0183
  328loPI    C2 5234   7.412  14.735  10.146  0.0869 -0.0153 -0.0969
  328loPI    C3 5235   7.256  14.718  10.514  0.0294  0.0047 -0.1204
  328loPI   PO4 5236   7.771  14.434  10.235  0.3365  0.3182  0.1200
  328loPI   GL1 5237   7.833  14.489   9.835 -0.1734  0.0780 -0.0818
  328loPI   GL2 5238   7.703  14.713   9.753  0.0568 -0.0031  0.0256
  328loPI   C1A 5239   7.928  14.423   9.435 -0.0096 -0.4467  0.1289
  328loPI   C2A 5240   8.060  14.565   9.010  0.4149  0.1056  0.2197
  328loPI   C3A 5241   7.967  14.555   8.526  0.2973  0.0021 -0.1566
  328loPI   C4A 5242   7.974  14.584   8.111 -0.1423 -0.4065  0.0171
  328loPI   C5A 5243   8.239  14.683   7.791  0.0736  0.3644  0.0575
  328loPI   C6A 5244   8.345  14.389   7.562  0.1741  0.1563 -0.0934
  328loPI   C1B 5245   7.586  14.789   9.339 -0.1342 -0.1441 -0.0934
  328loPI   C2B 5246   7.575  14.937   9.009 -0.0845  0.0791  0.1423
  328loPI   C3B 5247   7.605  14.941   8.582  0.0379 -0.2622 -0.2239
  328loPI   C4B 5248   7.545  14.860   8.092 -0.1445 -0.2734 -0.0180
  329loPI    C1 5249   4.047   0.711  11.454 -0.0569 -0.0605  0.0219
  329loPI    C2 5250   3.697   0.901  11.487  0.0419  0.0927  0.2039
  329loPI    C3 5251   3.978   0.949  11.768  0.2420  0.0391  0.0150
  329loPI   PO4 5252   4.229   0.876  11.301  0.0229 -0.0265  0.0890
  329loPI   GL1 5253   4.224   0.841  10.825  0.1040  0.3896  0.0105
  329loPI   GL2 5254   4.447   1.135  10.796 -0.1066 -0.3464  0.2054
  329loPI   C1A 5255   4.290   0.906  10.399  0.1917 -0.0840 -0.0312
  329loPI   C2A 5256   3.999   0.755  10.058  0.3831 -0.0123 -0.0366
  329loPI   C3A 5257   3.888   0.666   9.576  0.2578  0.0200 -0.0899
  329loPI   C4A 5258   3.919   0.635   9.090 -0.2589 -0.0403  0.0940
  329loPI   C5A 5259   4.001   0.718   8.673  0.1722  0.0519 -0.2612
  329loPI   C6A 5260   3.989   0.819   8.259  0.0516  0.0303 -0.0570
  329loPI   C1B 5261   4.637   1.385  10.461 -0.1689 -0.1974 -0.2946
  329loPI   C2B 5262   4.511   1.267  10.020  0.2482  0.0865 -0.1161
  329loPI   C3B 5263   4.507   1.330   9.591 -0.1896 -0.0596  0.2474
  329loPI   C4B 5264   4.459   1.278   9.141 -0.2185 -0.0636 -0.0218
  330loPI    C1 5265   5.956  14.284  10.782 -0.4464 -0.0096 -0.0826
  330loPI    C2 5266   5.944  13.924  10.955 -0.1886  0.1124  0.1997
  330loPI    C3 5267   5.982  14.253  11.180 -0.3114  0.3101 -0.0628
  330loPI   PO4 5268   5.769  14.245  10.592  0.3193  0.2425 -0.2181
  330loPI   GL1 5269   5.621  14.242  10.128 -0.3519 -0.0239  0.1301
  330loPI   GL2 5270   5.879  14.154  10.138  0.0904  0.0410 -0.1551
  330loPI   C1A 5271   5.720  14.306   9.672 -0.3770 -0.2472  0.2061
  330loPI   C2A 5272   5.636  14.215   9.332  0.0056 -0.1539 -0.0584
  330loPI   C3A 5273   5.526  14.282   8.997 -0.1982  0.1982 -0.0070
  330loPI   C4A 5274   5.411  14.342   8.610  0.1897 -0.0044 -0.1661
  330loPI   C5A 5275   5.426  14.433   8.217  0.0283  0.1149  0.1955
  330loPI   C6A 5276   5.504  14.487   7.810  0.1605 -0.1802  0.0597
  330loPI   C1B 5277   5.871  13.868   9.805  0.0704  0.2276  0.1387
  330loPI   C2B 5278   5.879  13.790   9.379 -0.0260  0.3981 -0.2939
  330loPI   C3B 5279   5.960  13.927   9.021  0.0805  0.1376  0.0775
  330loPI   C4B 5280   5.757  13.892   8.619  0.1559  0.0463 -0.0581
  331loPI    C1 5281   0.693  10.599  10.727  0.0711  0.2212  0.3118
  331loPI    C2 5282   0.456  10.351  10.931  0.1170 -0.0382  0.0562
  331loPI    C3 5283   0.772  10.518  11.111 -0.0091 -0.0326  0.2763
  331loPI   PO4 5284   0.694  10.433  10.433  0.0994  0.0376  0.0311
  331loPI   GL1 5285   0.453  10.162  10.159 -0.1953 -0.1829 -0.2158
  331loPI   GL2 5286   0.473   9.821  10.113 -0.2132 -0.0860  0.0928
  331loPI   C1A 5287   0.577  10.218   9.751 -0.3737 -0.1221  0.2218
  331loPI   C2A 5288   0.712  10.311   9.356 -0.1368 -0.2441  0.0857
  331loPI   C3A 5289   1.010  10.387   8.913  0.3510 -0.0810 -0.0605
  331loPI   C4A 5290   1.262  10.290   8.629  0.0994  0.1008 -0.2179
  331loPI   C5A 5291   1.318  10.250   8.224  0.0804  0.3089  0.0888
  331loPI   C6A 5292   1.463  10.110   7.738 -0.3935 -0.0497 -0.0373
  331loPI   C1B 5293   0.313   9.657   9.659 -0.1642 -0.4268  0.1316
  331loPI   C2B 5294   0.313   9.577   9.351 -0.1750  0.1432 -0.0484
  331loPI   C3B 5295   0.298   9.469   8.928 -0.1598  0.0009  0.0246
  331loPI   C4B 5296   0.302   9.258   8.551 -0.0770 -0.0620 -0.0483
  332loPI    C1 5297  17.410   7.394  10.602  0.3717 -0.3205  0.0534
  332loPI    C2 5298  17.397   6.999  10.663 -0.2385 -0.3287 -0.0607
  332loPI    C3 5299  17.218   7.247  10.921  0.2613 -0.1085  0.0868
  332loPI   PO4 5300  17.373   7.434  10.339 -0.0294 -0.0315 -0.2611
  332loPI   GL1 5301  17.408   7.113  10.119 -0.2853 -0.1302 -0.1629
  332loPI   GL2 5302  17.199   6.955  10.115 -0.1011 -0.0295 -0.1259
  332loPI   C1A 5303  17.523   7.424   9.782  0.1494  0.2514 -0.0768
  332loPI   C2A 5304  17.458   7.306   9.385 -0.2079  0.0843  0.2480
  332loPI   C3A 5305  17.444   7.263   8.979  0.2128 -0.3204 -0.1195
  332loPI   C4A 5306  17.280   7.266   8.575  0.0189  0.0034 -0.1149
  332loPI   C5A 5307  17.249   7.143   8.168  0.2091  0.3863 -0.1931
  332loPI   C6A 5308  17.072   6.953   8.001 -0.0754 -0.0447  0.2426
  332loPI   C1B 5309  17.397   6.870   9.666 -0.1296  0.0456 -0.1625
  332loPI   C2B 5310  17.328   6.823   9.192 -0.0897  0.0848  0.0255
  332loPI   C3B 5311  17.237   6.815   8.766 -0.1555 -0.0511  0.0046
  332loPI   C4B 5312  16.872   6.885   8.482  0.2829  0.1719  0.2071
  333loPI    C1 5313  17.214   7.956  10.425  0.1710 -0.1019 -0.0680
  333loPI    C2 5314  17.249   8.214  10.728  0.1338 -0.0733 -0.0880
  333loPI    C3 5315  17.202   7.824  10.802 -0.2094 -0.0278 -0.0503
  333loPI   PO4 5316  17.142   8.140  10.248 -0.1233 -0.1787  0.3040
  333loPI   GL1 5317  16.911   8.227   9.890  0.0959  0.2154  0.4312
  333loPI   GL2 5318  16.763   8.453  10.071 -0.2011  0.2022 -0.0962
  333loPI   C1A 5319  16.920   8.235   9.428 -0.2036 -0.0697 -0.0469
  333loPI   C2A 5320  16.905   8.580   9.176 -0.1087 -0.1670  0.0040
  333loPI   C3A 5321  16.884   8.872   8.869 -0.1414  0.1318 -0.1818
  333loPI   C4A 5322  16.940   9.035   8.467  0.0202 -0.1507  0.2739
  333loPI   C5A 5323  17.216   9.304   8.250  0.1617 -0.4527  0.3386
  333loPI   C6A 5324  17.277   9.504   7.893 -0.0834  0.2965  0.0415
  333loPI   C1B 5325  16.700   8.621   9.711 -0.2084 -0.0807  0.1171
  333loPI   C2B 5326  16.987   8.978   9.667 -0.0609 -0.2737  0.0523
  333loPI   C3B 5327  17.130   9.082   9.338 -0.3266  0.1028 -0.1563
  333loPI   C4B 5328  17.268   9.142   9.028  0.1209  0.2090 -0.1324
  334loPI    C1 5329  16.788   7.485  10.820  0.3304  0.0401 -0.0269
  334loPI    C2 5330  16.683   7.827  10.999 -0.0145 -0.0525 -0.0450
  334loPI    C3 5331  16.466   7.497  11.057  0.1925 -0.2179 -0.1977
  334loPI   PO4 5332  16.821   7.597  10.558  0.0165 -0.2406 -0.1628
  334loPI   GL1 5333  16.997   7.540  10.096 -0.2007 -0.1570  0.0080
  334loPI   GL2 5334  17.002   7.706   9.948 -0.1767 -0.0699  0.0606
  334loPI   C1A 5335  17.013   7.245   9.705  0.3240  0.1503 -0.1222
  334loPI   C2A 5336  16.892   7.278   9.300  0.4573 -0.0389 -0.1041
  334loPI   C3A 5337  16.796   7.180   8.912  0.1826  0.1770 -0.2126
  334loPI   C4A 5338  16.788   7.378   8.512 -0.0558  0.0284  0.1519
  334loPI   C5A 5339  16.743   7.268   8.067 -0.1743 -0.0634  0.0770
  334loPI   C6A 5340  16.603   7.003   7.757 -0.2281 -0.3968 -0.0156
  334loPI   C1B 5341  17.111   7.778   9.631 -0.1843  0.0150 -0.0389
  334loPI   C2B 5342  17.108   7.744   9.285  0.1841 -0.3172 -0.0724
  334loPI   C3B 5343  17.017   7.636   8.909  0.2064 -0.0267 -0.1450
  334loPI   C4B 5344  16.845   7.878   8.739  0.0675  0.1464  0.0708
  335loPI    C1 5345   0.571   5.307  11.211 -0.1596  0.0438  0.1848
  335loPI    C2 5346   0.751   5.531  11.489 -0.1197 -0.0224  0.2124
  335loPI    C3 5347   0.573   5.188  11.593  0.1619 -0.2034  0.1110
  335loPI   PO4 5348   0.614   5.189  11.051  0.0364  0.2842  0.1502
  335loPI   GL1 5349   0.545   5.168  10.613 -0.0967  0.3597  0.1175
  335loPI   GL2 5350   0.630   5.425  10.592  0.4822  0.0818 -0.6072
  335loPI   C1A 5351   0.643   5.008  10.108  0.1434 -0.1297 -0.1081
  335loPI   C2A 5352   0.649   4.869   9.657 -0.4648  0.2140  0.1132
  335loPI   C3A 5353   0.655   5.006   9.269  0.2043  0.1450 -0.0297
  335loPI   C4A 5354   0.659   4.880   8.808  0.1211 -0.1777 -0.4282
  335loPI   C5A 5355   0.758   4.787   8.439 -0.1058  0.1117 -0.1090
  335loPI   C6A 5356   0.671   4.767   7.914  0.1594 -0.1753 -0.3352
  335loPI   C1B 5357   0.763   5.474  10.145  0.0787 -0.2159 -0.1636
  335loPI   C2B 5358   0.790   5.495   9.687 -0.0607 -0.3111  0.0877
  335loPI   C3B 5359   0.768   5.464   9.226 -0.0216 -0.0281 -0.2101
  335loPI   C4B 5360   0.763   5.453   8.798  0.0152  0.0146  0.2040
  336loPI    C1 5361   9.596   4.290  10.215 -0.0230 -0.0422 -0.0844
  336loPI    C2 5362   9.305   4.477  10.417 -0.0329  0.0827 -0.2128
  336loPI    C3 5363   9.605   4.301  10.615  0.0333  0.3262 -0.0927
  336loPI   PO4 5364   9.619   4.468   9.979  0.3027 -0.1020  0.1060
  336loPI   GL1 5365  10.004   4.626   9.717  0.2160 -0.1284  0.1250
  336loPI   GL2 5366  10.314   4.651   9.843  0.0481 -0.2090 -0.0593
  336loPI   C1A 5367  10.021   4.364   9.372 -0.1170  0.1178 -0.4627
  336loPI   C2A 5368  10.057   4.157   8.993 -0.2386  0.0291 -0.0476
  336loPI   C3A 5369  10.279   4.060   8.661 -0.3498 -0.3302 -0.1796
  336loPI   C4A 5370  10.467   4.276   8.324 -0.0801 -0.4073 -0.1908
  336loPI   C5A 5371  10.640   4.424   7.918  0.2284 -0.1797 -0.1209
  336loPI   C6A 5372  10.857   4.454   7.594  0.0024  0.1302 -0.1566
  336loPI   C1B 5373  10.463   4.701   9.414  0.3570 -0.3767 -0.0647
  336loPI   C2B 5374  10.485   4.640   8.993  0.0576 -0.1225  0.2032
  336loPI   C3B 5375  10.757   4.699   8.655 -0.1961  0.1310 -0.1634
  336loPI   C4B 5376  11.085   4.847   8.320  0.0230 -0.0745 -0.2803
  337loPI    C1 5377   5.081   8.902  10.466 -0.0857  0.0355  0.1056
  337loPI    C2 5378   5.355   9.140  10.635 -0.0608 -0.0483  0.1836
  337loPI    C3 5379   5.119   8.912  10.864 -0.0774 -0.1065  0.1086
  337loPI   PO4 5380   5.092   8.983  10.175  0.1117 -0.1014 -0.1639
  337loPI   GL1 5381   4.795   8.969   9.861  0.2147  0.3604  0.1869
  337loPI   GL2 5382   4.960   9.360   9.863  0.1056  0.0468 -0.2296
  337loPI   C1A 5383   4.821   8.691   9.555  0.0447 -0.3120  0.1367
  337loPI   C2A 5384   4.669   8.539   9.121  0.2361  0.1457 -0.1775
  337loPI   C3A 5385   4.305   8.771   8.868 -0.0506 -0.0282 -0.0213
  337loPI   C4A 5386   4.083   8.935   8.449  0.2671 -0.2568  0.1079
  337loPI   C5A 5387   4.249   9.059   8.070  0.0544 -0.0760 -0.1419
  337loPI   C6A 5388   4.695   9.239   7.886  0.1798  0.0028  0.1137
  337loPI   C1B 5389   4.911   9.231   9.406 -0.0814  0.0379  0.2488
  337loPI   C2B 5390   5.053   9.345   9.045  0.1038  0.1544 -0.0955
  337loPI   C3B 5391   5.257   9.342   8.617 -0.0721  0.1132 -0.0354
  337loPI   C4B 5392   5.026   9.172   8.207 -0.0409  0.0973 -0.1141
  338loPI    C1 5393   0.019  17.126  10.670 -0.0838  0.1111 -0.0052
  338loPI    C2 5394   0.257  16.805  10.696 -0.2014  0.0185 -0.0655
  338loPI    C3 5395   0.305  17.111  10.949 -0.0511 -0.0213 -0.0452
  338loPI   PO4 5396  -0.142  17.105  10.538 -0.1623  0.0753 -0.0067
  338loPI   GL1 5397  -0.146  16.851  10.224 -0.0353  0.0050  0.2283
  338loPI   GL2 5398   0.155  16.893  10.147  0.4299  0.0210  0.1685
  338loPI   C1A 5399  -0.500  16.782   9.899  0.2861  0.3445 -0.1845
  338loPI   C2A 5400  -0.525  16.922   9.523 -0.3042  0.0217  0.3505
  338loPI   C3A 5401  -0.521  16.980   9.124  0.0145  0.0749  0.0153
  338loPI   C4A 5402  -0.476  16.839   8.662 -0.0659  0.0851  0.1398
  338loPI   C5A 5403  -0.619  16.658   8.186 -0.1218  0.0020  0.1307
  338loPI   C6A 5404  -0.871  16.965   8.049  0.0238  0.1880  0.1346
  338loPI   C1B 5405   0.106  17.011   9.724 -0.0943  0.1158  0.2380
  338loPI   C2B 5406   0.129  17.105   9.330 -0.3669 -0.0179 -0.1371
  338loPI   C3B 5407  -0.031  17.080   9.057 -0.0794  0.1230 -0.0012
  338loPI   C4B 5408   0.036  17.089   8.675 -0.0936  0.1692  0.1492
  339loPI    C1 5409   4.298   1.314  11.484 -0.0066 -0.0610 -0.3035
  339loPI    C2 5410   4.182   1.474  11.832  0.0190 -0.0199 -0.3137
  339loPI    C3 5411   4.509   1.243  11.817 -0.0140 -0.0678 -0.3002
  339loPI   PO4 5412   4.347   1.457  11.178  0.2439 -0.2229 -0.0832
  339loPI   GL1 5413   4.319   1.615  10.751  0.1360  0.1192 -0.2322
  339loPI   GL2 5414   3.966   1.651  10.804 -0.2032 -0.0699  0.0655
  339loPI   C1A 5415   4.195   1.666  10.315  0.1119  0.1236  0.0995
  339loPI   C2A 5416   4.128   1.652   9.897 -0.2608  0.1748 -0.0142
  339loPI   C3A 5417   4.062   1.657   9.415  0.1080 -0.0083 -0.2003
  339loPI   C4A 5418   4.157   1.726   8.988  0.1647  0.3612  0.0036
  339loPI   C5A 5419   4.169   1.476   8.557  0.0128 -0.0308  0.0216
  339loPI   C6A 5420   4.461   1.211   8.628 -0.2632  0.0414 -0.0330
  339loPI   C1B 5421   3.731   1.609  10.336 -0.0490 -0.1029  0.3363
  339loPI   C2B 5422   3.665   1.570   9.908 -0.4029  0.2135 -0.1271
  339loPI   C3B 5423   3.559   1.487   9.450 -0.1137 -0.0745  0.3067
  339loPI   C4B 5424   3.598   1.576   8.979 -0.0952 -0.0131  0.0998
  340loPI    C1 5425   9.552  15.068  10.403  0.1870 -0.1944  0.0142
  340loPI    C2 5426   9.621  15.451  10.311  0.0960 -0.2210 -0.1707
  340loPI    C3 5427   9.494  15.353  10.678  0.0459 -0.0668 -0.1457
  340loPI   PO4 5428   9.401  14.984  10.131 -0.0031  0.1215  0.0418
  340loPI   GL1 5429   9.582  14.734   9.807  0.0872  0.1107  0.2559
  340loPI   GL2 5430   9.865  14.749   9.868  0.0353 -0.1008  0.0895
  340loPI   C1A 5431   9.569  14.724   9.397 -0.2084  0.1250 -0.1009
  340loPI   C2A 5432   9.683  14.726   9.010 -0.1035  0.0157 -0.0760
  340loPI   C3A 5433   9.520  14.820   8.656 -0.0338 -0.3746 -0.1741
  340loPI   C4A 5434   9.329  15.012   8.252  0.2952 -0.1623  0.2568
  340loPI   C5A 5435   9.273  14.841   7.857  0.0892 -0.3137 -0.0067
  340loPI   C6A 5436   9.247  14.393   7.798  0.1162  0.1928  0.0087
  340loPI   C1B 5437   9.996  14.945   9.387  0.0562 -0.0499 -0.1894
  340loPI   C2B 5438   9.920  15.139   9.049 -0.0661 -0.2329 -0.0504
  340loPI   C3B 5439   9.635  15.387   8.836 -0.0561  0.0353  0.0438
  340loPI   C4B 5440   9.555  15.489   8.467 -0.0016  0.3701 -0.2933
  341loPI    C1 5441  14.897  10.049  10.603 -0.1914  0.0612  0.0376
  341loPI    C2 5442  15.247  10.066  10.796 -0.1246 -0.2888 -0.0452
  341loPI    C3 5443  14.964  10.339  10.870  0.1278 -0.0596  0.0932
  341loPI   PO4 5444  14.789   9.811  10.558  0.0005  0.1612 -0.1584
  341loPI   GL1 5445  14.794   9.610  10.120  0.1627 -0.0556  0.0707
  341loPI   GL2 5446  14.776   9.894  10.017 -0.2487  0.2607  0.0751
  341loPI   C1A 5447  14.729   9.393   9.771  0.2524  0.0666  0.2406
  341loPI   C2A 5448  14.613   9.314   9.352 -0.0576 -0.3436 -0.0151
  341loPI   C3A 5449  14.688   9.347   8.865 -0.1804 -0.1029 -0.1680
  341loPI   C4A 5450  14.832   9.356   8.521 -0.0915 -0.1118 -0.0276
  341loPI   C5A 5451  14.738   9.233   8.011 -0.0012 -0.3299 -0.0888
  341loPI   C6A 5452  15.030   9.096   7.665 -0.1317 -0.0818  0.1490
  341loPI   C1B 5453  14.860   9.862   9.636 -0.2497 -0.0493  0.0685
  341loPI   C2B 5454  14.840   9.873   9.141 -0.0673 -0.0547 -0.3570
  341loPI   C3B 5455  14.827   9.819   8.711 -0.1677 -0.3389 -0.1238
  341loPI   C4B 5456  14.990   9.962   8.189 -0.0973  0.1209 -0.0851
  342loPI    C1 5457   5.909   4.241  10.197  0.2862 -0.1158 -0.3693
  342loPI    C2 5458   6.221   4.490  10.206  0.2344 -0.0595  0.1417
  342loPI    C3 5459   5.853   4.627  10.284  0.1484 -0.2197  0.0235
  342loPI   PO4 5460   5.965   4.023  10.309 -0.0161 -0.0563 -0.1649
  342loPI   GL1 5461   5.925   3.652  10.032  0.0356  0.0458  0.0357
  342loPI   GL2 5462   6.104   3.456   9.937 -0.3155  0.0310 -0.0614
  342loPI   C1A 5463   5.808   3.701   9.612  0.0722 -0.0212 -0.1132
  342loPI   C2A 5464   5.526   4.007   9.358 -0.1017 -0.0231  0.0494
  342loPI   C3A 5465   5.497   3.958   8.992  0.0321  0.0467 -0.0730
  342loPI   C4A 5466   5.530   3.833   8.559  0.0181 -0.2019  0.1925
  342loPI   C5A 5467   5.565   3.411   8.382  0.1709 -0.0743 -0.1579
  342loPI   C6A 5468   5.403   2.979   8.414 -0.2687  0.0432  0.1036
  342loPI   C1B 5469   6.087   3.059   9.601  0.1234 -0.1423 -0.0645
  342loPI   C2B 5470   5.964   2.860   9.273 -0.2788  0.3010 -0.0278
  342loPI   C3B 5471   5.756   2.602   9.156  0.3156 -0.0746  0.2735
  342loPI   C4B 5472   5.805   2.579   8.667 -0.0185 -0.0020  0.0774
  343loPI    C1 5473   6.361   8.401  10.253  0.0810 -0.2025 -0.1117
  343loPI    C2 5474   6.300   8.074  10.476 -0.0978 -0.1422 -0.0707
  343loPI    C3 5475   6.043   8.381  10.495  0.1432  0.0592 -0.0044
  343loPI   PO4 5476   6.432   8.361   9.987  0.1130  0.0904 -0.1237
  343loPI   GL1 5477   6.303   8.194   9.613  0.1278  0.0948  0.4452
  343loPI   GL2 5478   6.136   8.522   9.578  0.0825  0.0787  0.0145
  343loPI   C1A 5479   6.015   8.026   9.247  0.1022 -0.2748 -0.1112
  343loPI   C2A 5480   5.902   8.063   8.855 -0.0087 -0.2096 -0.1890
  343loPI   C3A 5481   6.052   8.241   8.473 -0.0858  0.3974 -0.2333
  343loPI   C4A 5482   6.105   8.347   7.975  0.0605  0.3802  0.1466
  343loPI   C5A 5483   5.739   8.314   7.688 -0.0682  0.0558 -0.1047
  343loPI   C6A 5484   5.409   8.432   7.877 -0.0207  0.1923  0.0693
  343loPI   C1B 5485   6.043   8.510   9.176  0.2159 -0.2217  0.1181
  343loPI   C2B 5486   5.904   8.654   8.785  0.1511 -0.0807 -0.4107
  343loPI   C3B 5487   5.723   8.692   8.279 -0.3700 -0.1914 -0.4155
  343loPI   C4B 5488   5.535   8.907   7.880  0.2214 -0.1550 -0.1458
  344loPI    C1 5489  11.323  12.454   9.994 -0.1212  0.0874  0.1076
  344loPI    C2 5490  11.201  12.626   9.654 -0.3517  0.1210  0.2054
  344loPI    C3 5491  10.957  12.379   9.852 -0.0817 -0.1970  0.1508
  344loPI   PO4 5492  11.453  12.600  10.131  0.0919  0.1717  0.1463
  344loPI   GL1 5493  11.666  12.801   9.856  0.0878  0.0389 -0.2564
  344loPI   GL2 5494  11.925  12.974  10.040 -0.2202 -0.1135 -0.1412
  344loPI   C1A 5495  11.671  12.981   9.440 -0.4100  0.0785  0.0360
  344loPI   C2A 5496  11.652  13.071   8.962 -0.0177 -0.1545  0.0419
  344loPI   C3A 5497  11.456  13.072   8.539 -0.2114 -0.1429 -0.0593
  344loPI   C4A 5498  11.375  12.856   8.136 -0.0005  0.2129  0.0141
  344loPI   C5A 5499  11.125  12.895   7.734  0.2877  0.2849  0.0318
  344loPI   C6A 5500  10.697  13.048   7.636 -0.1804  0.0521 -0.0606
  344loPI   C1B 5501  12.168  12.852   9.773  0.0921 -0.2288  0.2958
  344loPI   C2B 5502  12.122  12.709   9.468  0.0943  0.2124 -0.1399
  344loPI   C3B 5503  12.133  12.761   8.988 -0.0394  0.1483 -0.2376
  344loPI   C4B 5504  11.948  12.866   8.553 -0.0944 -0.0151 -0.0959
  345loPI    C1 5505  17.708  12.287  10.855 -0.2756 -0.0248  0.0349
  345loPI    C2 5506  17.733  12.277  11.254 -0.1092  0.1838  0.0316
  345loPI    C3 5507  17.994  12.495  11.043 -0.2835  0.1879 -0.1833
  345loPI   PO4 5508  17.605  12.333  10.656 -0.1024 -0.2122  0.0394
  345loPI   GL1 5509  17.626  12.478  10.335  0.2251 -0.0274 -0.1705
  345loPI   GL2 5510  17.434  12.256  10.102 -0.1509  0.5264 -0.0433
  345loPI   C1A 5511  17.642  12.625   9.938 -0.1637 -0.0364  0.2049
  345loPI   C2A 5512  17.807  12.652   9.488  0.0831  0.1576 -0.1200
  345loPI   C3A 5513  17.832  12.568   9.090  0.0453 -0.3471  0.0261
  345loPI   C4A 5514  17.975  12.757   8.650 -0.2686  0.0444  0.0663
  345loPI   C5A 5515  17.926  12.840   8.221 -0.0889 -0.2157 -0.1483
  345loPI   C6A 5516  17.883  13.160   7.954 -0.1987 -0.1223 -0.3389
  345loPI   C1B 5517  17.643  12.169   9.727 -0.1429  0.1261 -0.0794
  345loPI   C2B 5518  17.682  12.150   9.332 -0.0894 -0.2829  0.4513
  345loPI   C3B 5519  17.700  12.163   8.789 -0.1845 -0.1142  0.0711
  345loPI   C4B 5520  17.674  12.118   8.373  0.3499 -0.1419 -0.0496
  346loPI    C1 5521  15.951   6.171  11.046  0.0393 -0.3084 -0.1053
  346loPI    C2 5522  15.594   6.000  11.104 -0.0209 -0.0988  0.1664
  346loPI    C3 5523  15.918   5.854  11.288  0.0328 -0.2746 -0.0618
  346loPI   PO4 5524  15.907   6.259  10.768 -0.2956  0.1507 -0.1500
  346loPI   GL1 5525  16.093   6.317  10.285 -0.0927 -0.1709 -0.0641
  346loPI   GL2 5526  15.895   6.070  10.211 -0.1254  0.2231 -0.0310
  346loPI   C1A 5527  16.129   6.215   9.840  0.0097  0.1879 -0.0029
  346loPI   C2A 5528  16.100   6.113   9.414  0.0039  0.0013 -0.1033
  346loPI   C3A 5529  16.009   5.883   9.046  0.1062  0.0796 -0.1158
  346loPI   C4A 5530  16.083   5.957   8.630  0.3116 -0.0023 -0.3862
  346loPI   C5A 5531  16.261   5.948   8.256 -0.2372  0.1132  0.0236
  346loPI   C6A 5532  16.682   5.980   8.255  0.4172  0.0066 -0.2118
  346loPI   C1B 5533  15.691   6.000   9.866  0.4266  0.2076 -0.1826
  346loPI   C2B 5534  15.587   5.954   9.381  0.1583  0.1445  0.3171
  346loPI   C3B 5535  15.557   5.719   8.970 -0.1723  0.0675 -0.1319
  346loPI   C4B 5536  15.578   5.804   8.487  0.0570  0.0170 -0.2762
  347loPI    C1 5537  10.177   5.477  10.389  0.0841  0.1725  0.0239
  347loPI    C2 5538   9.796   5.377  10.455  0.1241 -0.0467 -0.0675
  347loPI    C3 5539  10.071   5.317  10.739  0.1335 -0.1199 -0.0920
  347loPI   PO4 5540  10.261   5.348  10.108  0.0699  0.0645 -0.5126
  347loPI   GL1 5541  10.250   5.160   9.797 -0.2722  0.2499  0.1661
  347loPI   GL2 5542  10.423   5.246   9.444  0.1012  0.1026  0.0162
  347loPI   C1A 5543   9.980   4.982   9.419 -0.2123 -0.2068  0.0227
  347loPI   C2A 5544  10.012   4.749   9.017  0.1224  0.0608 -0.1378
  347loPI   C3A 5545  10.010   4.648   8.603 -0.2555 -0.0015 -0.2113
  347loPI   C4A 5546   9.834   4.400   8.314  0.0542 -0.1440 -0.0684
  347loPI   C5A 5547   9.630   4.089   8.060  0.1900  0.1299  0.1001
  347loPI   C6A 5548   9.402   3.935   7.676  0.3189  0.1492 -0.0730
  347loPI   C1B 5549  10.408   5.142   9.041 -0.2143  0.0614 -0.0879
  347loPI   C2B 5550  10.289   5.007   8.687 -0.0165 -0.1032  0.0234
  347loPI   C3B 5551  10.168   5.131   8.291  0.5187 -0.1646 -0.4397
  347loPI   C4B 5552   9.745   4.991   8.187  0.2001 -0.1463  0.1100
  348loPI    C1 5553  10.502   9.612  10.361  0.0753 -0.1144 -0.0125
  348loPI    C2 5554  10.717   9.561  10.694 -0.0003  0.0841  0.0684
  348loPI    C3 5555  10.368   9.756  10.709 -0.0437  0.0228 -0.1138
  348loPI   PO4 5556  10.727   9.389  10.160 -0.1618  0.0822 -0.2132
  348loPI   GL1 5557  10.735   9.203   9.790  0.2015  0.0486  0.0103
  348loPI   GL2 5558  10.908   9.118   9.555 -0.0348  0.0402  0.2312
  348loPI   C1A 5559  10.442   9.197   9.425  0.2582 -0.1170  0.1309
  348loPI   C2A 5560  10.472   9.140   8.992  0.2491 -0.0351 -0.0975
  348loPI   C3A 5561  10.310   9.153   8.528 -0.2553  0.1048  0.0360
  348loPI   C4A 5562  10.022   9.086   8.344  0.0119 -0.1591  0.2082
  348loPI   C5A 5563  10.086   9.070   7.961  0.0136 -0.0001  0.1015
  348loPI   C6A 5564  10.151   8.724   7.667 -0.0899  0.1821  0.2081
  348loPI   C1B 5565  11.000   9.155   9.229  0.1162 -0.0783  0.3101
  348loPI   C2B 5566  11.076   9.150   8.776 -0.0278  0.0355  0.0317
  348loPI   C3B 5567  11.050   9.279   8.364  0.1853  0.0690  0.1535
  348loPI   C4B 5568  10.959   9.185   7.951  0.1613  0.1789 -0.0837
  349loPI    C1 5569  17.804   7.217  10.864  0.0032  0.2801 -0.2709
  349loPI    C2 5570  18.060   7.468  11.042 -0.0543  0.2071 -0.0826
  349loPI    C3 5571  17.671   7.560  11.021 -0.1433 -0.0441  0.3468
  349loPI   PO4 5572  17.950   7.069  10.594  0.1605  0.2315 -0.0796
  349loPI   GL1 5573  17.926   7.162  10.077  0.1064 -0.2647  0.2821
  349loPI   GL2 5574  18.052   7.441   9.992 -0.2874  0.2941  0.0173
  349loPI   C1A 5575  17.874   6.981   9.716  0.1602 -0.0802  0.2080
  349loPI   C2A 5576  17.796   6.976   9.259  0.3435 -0.3268  0.2294
  349loPI   C3A 5577  17.746   6.922   8.840 -0.0296 -0.0124 -0.0048
  349loPI   C4A 5578  17.605   6.835   8.378  0.0787  0.0314  0.0308
  349loPI   C5A 5579  17.730   6.589   7.997 -0.2984 -0.0939 -0.2878
  349loPI   C6A 5580  18.001   6.431   7.668 -0.0766  0.0822  0.4622
  349loPI   C1B 5581  17.984   7.437   9.578  0.0532  0.1225  0.1429
  349loPI   C2B 5582  17.962   7.437   9.077  0.3787 -0.1010  0.2165
  349loPI   C3B 5583  17.858   7.388   8.603 -0.0235  0.0832  0.0483
  349loPI   C4B 5584  17.696   7.296   8.184  0.0303  0.0435  0.0287
  350loPI    C1 5585   5.838  10.229  10.527  0.0150 -0.0104  0.0197
  350loPI    C2 5586   5.504  10.418  10.639 -0.0929 -0.1506 -0.0620
  350loPI    C3 5587   5.860  10.550  10.765 -0.1712  0.0632 -0.0603
  350loPI   PO4 5588   5.785  10.213  10.208 -0.0725 -0.5325 -0.0913
  350loPI   GL1 5589   5.635  10.030   9.791 -0.1504  0.1230  0.0801
  350loPI   GL2 5590   5.377  10.195   9.674 -0.1583 -0.0432  0.2000
  350loPI   C1A 5591   5.750  10.097   9.358  0.2581  0.3127  0.0045
  350loPI   C2A 5592   5.761  10.035   8.938 -0.1791 -0.1096  0.0418
  350loPI   C3A 5593   6.103   9.981   8.606  0.1509 -0.0803 -0.0687
  350loPI   C4A 5594   6.194   9.951   8.107 -0.1626  0.0222  0.1888
  350loPI   C5A 5595   6.145   9.673   7.691  0.0821  0.0171 -0.0333
  350loPI   C6A 5596   6.291   9.630   7.307 -0.0910  0.0150 -0.2523
  350loPI   C1B 5597   5.338  10.352   9.257 -0.0668  0.0506 -0.0427
  350loPI   C2B 5598   5.163  10.559   8.802  0.3056  0.0347 -0.1670
  350loPI   C3B 5599   5.031  10.904   8.494  0.0810  0.2956  0.0612
  350loPI   C4B 5600   4.980  11.213   8.233  0.0622 -0.0158  0.5009
  351loPI    C1 5601  15.071   2.002  10.882 -0.0119  0.0037  0.0111
  351loPI    C2 5602  14.864   2.134  11.198 -0.0254  0.1103 -0.0419
  351loPI    C3 5603  15.068   1.791  11.222 -0.2115  0.0020  0.0097
  351loPI   PO4 5604  14.909   2.006  10.701  0.2540 -0.2970  0.2260
  351loPI   GL1 5605  14.859   1.870  10.295  0.2255  0.1194  0.1425
  351loPI   GL2 5606  14.751   1.598  10.468 -0.1597  0.2676 -0.1128
  351loPI   C1A 5607  15.073   1.954   9.906 -0.1883  0.1074  0.1198
  351loPI   C2A 5608  15.049   1.890   9.489  0.1125 -0.1323  0.0150
  351loPI   C3A 5609  15.102   1.852   9.073  0.0959  0.4586 -0.0658
  351loPI   C4A 5610  15.105   1.835   8.719 -0.0792  0.1975 -0.0797
  351loPI   C5A 5611  15.334   1.689   8.350  0.0061  0.0927  0.4314
  351loPI   C6A 5612  15.416   1.808   7.988 -0.1183 -0.1609  0.0465
  351loPI   C1B 5613  14.891   1.442  10.048  0.0487 -0.1105 -0.1842
  351loPI   C2B 5614  14.926   1.371   9.648 -0.2964  0.1175  0.2854
  351loPI   C3B 5615  14.965   1.382   9.152 -0.0233  0.0577  0.1679
  351loPI   C4B 5616  14.942   1.393   8.727  0.3687  0.0639 -0.3888
  352loPI    C1 5617   8.127   4.348  10.422 -0.0411 -0.1922  0.3480
  352loPI    C2 5618   8.240   3.965  10.442 -0.0983 -0.2405 -0.1331
  352loPI    C3 5619   7.874   4.072  10.563 -0.1005 -0.3447 -0.0459
  352loPI   PO4 5620   8.163   4.432  10.115 -0.1202 -0.0523 -0.5565
  352loPI   GL1 5621   8.327   4.568   9.748  0.1132 -0.2162 -0.3953
  352loPI   GL2 5622   8.161   4.329   9.628 -0.0119  0.1466  0.0182
  352loPI   C1A 5623   8.276   4.724   9.253 -0.3984 -0.2107 -0.0866
  352loPI   C2A 5624   8.427   4.536   8.815 -0.0957 -0.0016 -0.2231
  352loPI   C3A 5625   8.235   4.622   8.382 -0.0547 -0.3219  0.0535
  352loPI   C4A 5626   7.742   4.658   8.325  0.1709  0.2001  0.0226
  352loPI   C5A 5627   7.309   4.630   8.061  0.0434  0.1941 -0.1886
  352loPI   C6A 5628   6.960   4.657   7.833 -0.0837  0.2177  0.0007
  352loPI   C1B 5629   7.973   4.350   9.306 -0.3049 -0.1255  0.0721
  352loPI   C2B 5630   7.890   4.214   8.916 -0.2726 -0.1389 -0.3542
  352loPI   C3B 5631   7.765   4.154   8.467  0.0659 -0.2520 -0.0428
  352loPI   C4B 5632   7.730   4.284   8.012  0.3028 -0.1246 -0.0132
  353loPI    C1 5633   7.849  17.974  10.546 -0.0234  0.0852 -0.1656
  353loPI    C2 5634   7.634  18.250  10.740 -0.1208 -0.0894 -0.0219
  353loPI    C3 5635   7.904  18.032  10.938  0.0946  0.0350 -0.1742
  353loPI   PO4 5636   7.815  17.988  10.325 -0.0690  0.2407 -0.0221
  353loPI   GL1 5637   8.057  18.065  10.042 -0.1716  0.2424 -0.0863
  353loPI   GL2 5638   7.673  18.107   9.898 -0.2522 -0.1783  0.0785
  353loPI   C1A 5639   8.039  18.241   9.561  0.2140 -0.0216  0.1041
  353loPI   C2A 5640   7.844  18.340   9.055 -0.1845  0.1553 -0.0325
  353loPI   C3A 5641   7.914  18.205   8.683  0.1754  0.1555  0.2607
  353loPI   C4A 5642   8.045  18.281   8.245  0.1149 -0.5271 -0.0830
  353loPI   C5A 5643   8.170  18.546   7.866  0.1371 -0.3825  0.1549
  353loPI   C6A 5644   7.983  18.582   7.455 -0.1437  0.0064 -0.0363
  353loPI   C1B 5645   7.456  18.191   9.488  0.1831  0.0409 -0.0784
  353loPI   C2B 5646   7.326  18.212   9.078 -0.0885 -0.1645  0.0385
  353loPI   C3B 5647   7.380  18.114   8.581 -0.0388 -0.1004 -0.2229
  353loPI   C4B 5648   7.527  18.176   8.162 -0.0401  0.2380 -0.1542
  354loPI    C1 5649  10.477   8.726  10.352 -0.0799 -0.0136 -0.2022
  354loPI    C2 5650  10.184   8.718  10.623  0.0451  0.1939 -0.0585
  354loPI    C3 5651  10.420   8.399  10.574  0.0291  0.1594  0.0853
  354loPI   PO4 5652  10.421   8.867  10.158 -0.2039 -0.1447  0.2664
  354loPI   GL1 5653  10.406   8.764   9.709 -0.3110 -0.0782 -0.0266
  354loPI   GL2 5654  10.075   8.918   9.647  0.1472  0.0350  0.0715
  354loPI   C1A 5655  10.322   8.722   9.199  0.0439  0.2835 -0.1262
  354loPI   C2A 5656  10.108   8.710   8.880 -0.2077 -0.1878 -0.2152
  354loPI   C3A 5657  10.148   8.552   8.481  0.1113 -0.0706  0.0355
  354loPI   C4A 5658   9.903   8.511   8.132 -0.1896 -0.2256 -0.0873
  354loPI   C5A 5659   9.474   8.469   8.129  0.2072 -0.1097 -0.0782
  354loPI   C6A 5660   9.087   8.649   8.064 -0.0889 -0.4181 -0.2894
  354loPI   C1B 5661   9.994   9.114   9.202 -0.0064  0.5812 -0.1912
  354loPI   C2B 5662   9.935   9.249   8.861 -0.1206  0.1021 -0.0251
  354loPI   C3B 5663   9.984   9.627   8.646  0.0601  0.1984 -0.0092
  354loPI   C4B 5664  10.129   9.891   8.352 -0.0704 -0.0458  0.2188
  355loPI    C1 5665   4.151   0.390  10.994  0.1606 -0.0750  0.0986
  355loPI    C2 5666   3.878   0.259  11.255  0.1642  0.0249  0.1530
  355loPI    C3 5667   4.268   0.213  11.333  0.1689  0.2504  0.2687
  355loPI   PO4 5668   4.098   0.318  10.785 -0.4351 -0.0841 -0.2366
  355loPI   GL1 5669   3.998   0.427  10.410  0.1103  0.1561  0.0095
  355loPI   GL2 5670   3.766   0.192  10.231 -0.0519  0.0497 -0.0022
  355loPI   C1A 5671   4.235   0.316   9.950  0.1451  0.3478 -0.0103
  355loPI   C2A 5672   4.305   0.241   9.526  0.0068  0.1193  0.0584
  355loPI   C3A 5673   4.283   0.248   9.101  0.0260  0.1371 -0.0117
  355loPI   C4A 5674   4.399   0.292   8.612  0.2933 -0.1623 -0.1888
  355loPI   C5A 5675   4.432   0.596   8.357  0.3148 -0.2307 -0.1574
  355loPI   C6A 5676   4.482   1.099   8.150  0.1184  0.2392  0.1065
  355loPI   C1B 5677   3.797   0.132   9.781 -0.0249  0.1668 -0.1734
  355loPI   C2B 5678   3.809   0.213   9.315  0.0369 -0.2546  0.3012
  355loPI   C3B 5679   3.871   0.217   8.780 -0.3248 -0.2506  0.2597
  355loPI   C4B 5680   4.025   0.282   8.319  0.0308 -0.1121 -0.0296
  356loPI    C1 5681   3.900   2.616  11.302  0.0447  0.2542  0.0881
  356loPI    C2 5682   4.234   2.435  11.428  0.0424  0.1062 -0.1137
  356loPI    C3 5683   4.034   2.678  11.674  0.0722 -0.1275  0.1465
  356loPI   PO4 5684   3.947   2.610  11.056  0.0649  0.1597 -0.2049
  356loPI   GL1 5685   3.877   2.458  10.633  0.1008 -0.0356  0.4331
  356loPI   GL2 5686   4.001   2.098  10.502 -0.2527 -0.2386  0.0620
  356loPI   C1A 5687   3.966   2.550  10.190  0.2492 -0.5041  0.0985
  356loPI   C2A 5688   3.854   2.519   9.726  0.2930  0.3039  0.0789
  356loPI   C3A 5689   3.851   2.565   9.372 -0.2534 -0.0568 -0.2531
  356loPI   C4A 5690   3.818   2.478   8.997  0.3097 -0.1530  0.1975
  356loPI   C5A 5691   3.860   2.474   8.583  0.2411 -0.2740 -0.0344
  356loPI   C6A 5692   3.770   2.595   8.110 -0.1100  0.0392  0.1392
  356loPI   C1B 5693   3.883   2.035  10.052  0.0690 -0.0553  0.0333
  356loPI   C2B 5694   3.739   2.025   9.641  0.2841  0.2843 -0.2210
  356loPI   C3B 5695   3.806   2.014   9.205 -0.2460 -0.0907  0.0719
  356loPI   C4B 5696   3.767   1.876   8.662  0.0206 -0.0545 -0.2079
  357loPI    C1 5697   8.007   9.007  10.050  0.0514  0.2326 -0.1094
  357loPI    C2 5698   7.756   9.171  10.315 -0.0370 -0.1041  0.0201
  357loPI    C3 5699   8.149   9.165  10.389 -0.0680 -0.2581  0.1788
  357loPI   PO4 5700   8.004   9.142   9.837 -0.0734 -0.3603  0.0351
  357loPI   GL1 5701   8.128   9.028   9.478 -0.0652 -0.4543  0.0853
  357loPI   GL2 5702   8.467   8.919   9.428 -0.1641 -0.1961 -0.0856
  357loPI   C1A 5703   8.068   8.932   9.042 -0.1839  0.0054  0.0543
  357loPI   C2A 5704   8.083   8.811   8.625 -0.1179 -0.1302 -0.0592
  357loPI   C3A 5705   8.292   8.545   8.325  0.3042 -0.6063 -0.0246
  357loPI   C4A 5706   8.491   8.570   7.992 -0.0004 -0.0438 -0.0741
  357loPI   C5A 5707   8.629   8.767   7.536 -0.1665  0.1029 -0.1433
  357loPI   C6A 5708   8.760   9.048   7.216  0.0557  0.1484 -0.3125
  357loPI   C1B 5709   8.486   8.651   8.952 -0.1754  0.2162  0.0330
  357loPI   C2B 5710   8.728   8.631   8.577 -0.3008 -0.3743 -0.0670
  357loPI   C3B 5711   9.249   8.496   8.570 -0.2794  0.1753  0.0067
  357loPI   C4B 5712   9.575   8.288   8.560 -0.1376  0.2313  0.0249
  358loPI    C1 5713   6.977  13.557  10.765 -0.1957 -0.1551  0.0936
  358loPI    C2 5714   6.885  13.174  10.835 -0.2033 -0.1343  0.1985
  358loPI    C3 5715   6.803  13.453  11.110  0.0657 -0.0992  0.2453
  358loPI   PO4 5716   7.068  13.651  10.511 -0.1160  0.0194 -0.4546
  358loPI   GL1 5717   7.005  13.788  10.211 -0.0163  0.2245 -0.0139
  358loPI   GL2 5718   6.741  13.586  10.032 -0.2264 -0.0866  0.1768
  358loPI   C1A 5719   6.889  13.958   9.843  0.0248  0.0766  0.1492
  358loPI   C2A 5720   6.968  14.171   9.510  0.0996 -0.0794  0.1353
  358loPI   C3A 5721   6.894  14.246   9.047 -0.0813 -0.1831 -0.0907
  358loPI   C4A 5722   6.844  14.373   8.578  0.0958 -0.1161 -0.1405
  358loPI   C5A 5723   6.675  14.485   8.144 -0.2122 -0.0256 -0.3058
  358loPI   C6A 5724   6.405  14.714   7.953  0.0274  0.0853  0.1654
  358loPI   C1B 5725   6.894  13.583   9.567  0.0716 -0.2816  0.0270
  358loPI   C2B 5726   6.864  13.732   9.111  0.0352  0.1719  0.3257
  358loPI   C3B 5727   6.770  13.887   8.711 -0.1639  0.0700  0.1508
  358loPI   C4B 5728   6.843  13.955   8.277 -0.2451  0.0310  0.0896
  359loPI    C1 5729   0.889   0.956  11.273 -0.0934  0.3157 -0.1323
  359loPI    C2 5730   0.652   0.696  11.463 -0.0820  0.1954 -0.2813
  359loPI    C3 5731   1.003   0.801  11.624 -0.0374  0.0350 -0.2718
  359loPI   PO4 5732   0.918   0.903  11.080 -0.1566 -0.1893 -0.1816
  359loPI   GL1 5733   0.942   0.736  10.609  0.0391 -0.3243  0.0564
  359loPI   GL2 5734   1.212   0.809  10.580 -0.1628 -0.0995  0.2988
  359loPI   C1A 5735   0.774   0.638  10.286 -0.3494 -0.0337  0.2463
  359loPI   C2A 5736   0.584   0.641   9.892 -0.1107 -0.0562  0.1607
  359loPI   C3A 5737   0.647   0.720   9.515 -0.1059  0.0707  0.0589
  359loPI   C4A 5738   0.623   0.598   9.175 -0.0724  0.2153 -0.6669
  359loPI   C5A 5739   0.680   0.589   8.644 -0.1081 -0.0942 -0.0669
  359loPI   C6A 5740   0.687   0.217   8.341 -0.0552 -0.0040  0.1882
  359loPI   C1B 5741   1.194   0.873  10.159  0.2726 -0.0803  0.3187
  359loPI   C2B 5742   1.066   0.776   9.772 -0.1396  0.0897  0.2068
  359loPI   C3B 5743   1.139   0.821   9.386  0.1147 -0.0074  0.2112
  359loPI   C4B 5744   1.092   0.763   8.936 -0.1854  0.0848  0.1713
  360loPI    C1 5745  10.807  13.170  10.374 -0.0320 -0.2288 -0.0731
  360loPI    C2 5746  10.681  13.349  10.709 -0.0228 -0.1617 -0.1054
  360loPI    C3 5747  10.774  12.960  10.713 -0.1216 -0.1852 -0.0545
  360loPI   PO4 5748  10.672  13.250  10.151  0.0391 -0.0698  0.1389
  360loPI   GL1 5749  10.695  13.059   9.752 -0.1472 -0.0670 -0.4105
  360loPI   GL2 5750  10.688  12.810   9.681 -0.1220  0.2444  0.0520
  360loPI   C1A 5751  10.792  13.285   9.393 -0.3130 -0.2836 -0.1364
  360loPI   C2A 5752  10.808  13.615   9.078 -0.0383 -0.4203  0.1073
  360loPI   C3A 5753  10.771  13.815   8.752  0.2731 -0.1207 -0.0232
  360loPI   C4A 5754  10.776  13.758   8.351 -0.0608  0.0824  0.2613
  360loPI   C5A 5755  11.017  13.774   8.018 -0.0246  0.1983  0.2857
  360loPI   C6A 5756  10.974  13.707   7.552  0.2215  0.0310  0.0447
  360loPI   C1B 5757  10.492  12.933   9.344  0.0790 -0.1251  0.0645
  360loPI   C2B 5758  10.688  13.114   8.934  0.1879  0.0242  0.2647
  360loPI   C3B 5759  10.784  13.252   8.546 -0.2077 -0.0624  0.3799
  360loPI   C4B 5760  10.987  13.289   8.208 -0.3595 -0.1462  0.0513
  361loPI    C1 5761  14.199   8.635  10.631 -0.0122 -0.1165  0.0993
  361loPI    C2 5762  13.997   8.400  10.883  0.0167 -0.2236  0.0230
  361loPI    C3 5763  13.988   8.797  10.930 -0.1306 -0.2327  0.0795
  361loPI   PO4 5764  14.409   8.536  10.512  0.2255  0.0183 -0.1885
  361loPI   GL1 5765  14.299   8.550  10.060 -0.4525 -0.1506  0.0590
  361loPI   GL2 5766  14.198   8.787  10.101  0.0882 -0.0810 -0.3317
  361loPI   C1A 5767  14.069   8.600   9.671 -0.0753  0.1104  0.2095
  361loPI   C2A 5768  13.975   8.740   9.210  0.2119 -0.2609  0.0642
  361loPI   C3A 5769  14.039   8.839   8.901  0.1432  0.5311  0.3031
  361loPI   C4A 5770  14.050   8.858   8.522 -0.0760  0.0438 -0.1447
  361loPI   C5A 5771  14.072   8.734   8.170 -0.1739 -0.2889  0.0583
  361loPI   C6A 5772  13.897   8.490   7.808  0.1202  0.3802  0.3588
  361loPI   C1B 5773  14.569   8.927   9.804 -0.0055  0.2518 -0.0555
  361loPI   C2B 5774  14.481   8.735   9.391 -0.2752  0.4070  0.0340
  361loPI   C3B 5775  14.524   8.870   8.877  0.1304 -0.3774  0.1755
  361loPI   C4B 5776  14.578   8.951   8.517 -0.0621  0.1799  0.0290
  362loPI    C1 5777   2.282   1.567  11.289 -0.0005 -0.2820 -0.2230
  362loPI    C2 5778   2.333   1.385  11.642 -0.2292  0.0611 -0.0065
  362loPI    C3 5779   2.650   1.521  11.438 -0.1155  0.1289  0.2127
  362loPI   PO4 5780   2.140   1.409  11.170  0.2662 -0.0747 -0.1000
  362loPI   GL1 5781   2.136   1.308  10.767  0.1477  0.1618 -0.0047
  362loPI   GL2 5782   2.166   1.608  10.668 -0.1111  0.0814  0.0041
  362loPI   C1A 5783   2.090   1.156  10.346  0.0045 -0.0228  0.0470
  362loPI   C2A 5784   2.169   1.047   9.963 -0.2362  0.0380 -0.2002
  362loPI   C3A 5785   2.046   1.192   9.644 -0.0126  0.3148  0.2568
  362loPI   C4A 5786   2.076   1.106   9.209  0.2421 -0.0371  0.1160
  362loPI   C5A 5787   2.070   1.177   8.815 -0.0234 -0.1566  0.1766
  362loPI   C6A 5788   2.185   1.417   8.407 -0.0312 -0.0499 -0.0604
  362loPI   C1B 5789   2.145   1.632  10.228 -0.1845 -0.0111  0.0271
  362loPI   C2B 5790   2.298   1.655   9.825 -0.0823  0.0150  0.2239
  362loPI   C3B 5791   2.225   1.624   9.364 -0.2245  0.1199  0.0198
  362loPI   C4B 5792   2.237   1.689   8.988  0.0074 -0.2503  0.0060
  363loPI    C1 5793   0.991  16.783  10.804 -0.0145 -0.3645 -0.1124
  363loPI    C2 5794   1.206  16.967  11.086 -0.0454 -0.2955 -0.1337
  363loPI    C3 5795   1.127  16.576  11.119  0.1020 -0.3263 -0.1371
  363loPI   PO4 5796   0.813  16.857  10.785  0.1169 -0.2676 -0.0183
  363loPI   GL1 5797   0.784  17.137  10.489 -0.0194  0.1694 -0.1208
  363loPI   GL2 5798   0.444  17.218  10.403  0.3519 -0.1089  0.1479
  363loPI   C1A 5799   0.725  17.565  10.286 -0.1329  0.0544  0.1489
  363loPI   C2A 5800   0.643  17.687   9.849  0.0568 -0.0992  0.1800
  363loPI   C3A 5801   0.776  17.715   9.439 -0.7246  0.1225  0.4010
  363loPI   C4A 5802   0.656  17.727   8.980 -0.2879 -0.1661 -0.0137
  363loPI   C5A 5803   0.719  17.464   8.620  0.0059 -0.0279 -0.0960
  363loPI   C6A 5804   0.786  17.110   8.394  0.2255  0.1050  0.1229
  363loPI   C1B 5805   0.261  17.412  10.015 -0.3069  0.1830  0.0629
  363loPI   C2B 5806   0.282  17.560   9.512  0.2971 -0.1361 -0.0565
  363loPI   C3B 5807   0.164  17.540   9.086  0.1528 -0.1069  0.2317
  363loPI   C4B 5808   0.265  17.657   8.681  0.1043  0.1223  0.0385
  364loPI    C1 5809  18.298   1.058  11.218 -0.2044  0.0377  0.0895
  364loPI    C2 5810  18.069   0.894  11.502  0.2632 -0.1948  0.3444
  364loPI    C3 5811  18.218   1.263  11.552 -0.0284 -0.0528  0.1889
  364loPI   PO4 5812  18.179   0.977  10.997  0.0065 -0.1552 -0.0337
  364loPI   GL1 5813  18.292   0.899  10.590 -0.0766 -0.1982 -0.0294
  364loPI   GL2 5814  18.420   1.173  10.561 -0.1948 -0.1788 -0.3972
  364loPI   C1A 5815  18.188   0.876  10.230  0.0042  0.2092  0.0153
  364loPI   C2A 5816  18.093   0.828   9.784 -0.3664  0.1037 -0.0992
  364loPI   C3A 5817  18.179   0.951   9.373  0.1754  0.1145  0.1739
  364loPI   C4A 5818  18.168   0.958   8.954  0.1225 -0.0977 -0.2552
  364loPI   C5A 5819  18.326   0.909   8.512  0.2254 -0.3777  0.0714
  364loPI   C6A 5820  18.805   0.883   8.366 -0.2155  0.1284 -0.1425
  364loPI   C1B 5821  18.318   1.347  10.119 -0.1683 -0.4530 -0.0905
  364loPI   C2B 5822  18.152   1.310   9.690 -0.0669 -0.0422  0.1574
  364loPI   C3B 5823  18.277   1.419   9.258 -0.2201 -0.4007 -0.1760
  364loPI   C4B 5824  18.301   1.384   8.783  0.0195  0.1654 -0.0780
  365loPI    C1 5825  16.045  12.884  10.883 -0.0510 -0.0696 -0.1349
  365loPI    C2 5826  15.855  12.603  11.095 -0.0422 -0.1463 -0.2275
  365loPI    C3 5827  16.254  12.596  11.066 -0.0007  0.1572  0.1728
  365loPI   PO4 5828  15.896  13.009  10.721 -0.0153  0.2047  0.1691
  365loPI   GL1 5829  15.894  13.000  10.324 -0.1034  0.4416  0.0004
  365loPI   GL2 5830  15.753  12.986  10.173  0.3293 -0.2099 -0.3091
  365loPI   C1A 5831  16.360  13.149  10.091  0.4738  0.1062  0.0580
  365loPI   C2A 5832  16.524  13.258   9.705 -0.0146 -0.1735  0.2213
  365loPI   C3A 5833  16.586  13.192   9.271 -0.2978 -0.4442 -0.1093
  365loPI   C4A 5834  16.640  13.198   8.855 -0.0387 -0.3042  0.0159
  365loPI   C5A 5835  16.558  13.195   8.434 -0.0934 -0.0830 -0.1427
  365loPI   C6A 5836  16.344  12.945   8.003  0.1371 -0.1658 -0.2049
  365loPI   C1B 5837  15.955  13.025   9.823 -0.3491  0.0164  0.1767
  365loPI   C2B 5838  16.051  12.943   9.391 -0.1301 -0.1174 -0.3847
  365loPI   C3B 5839  16.083  13.118   8.976  0.0800  0.0108  0.1567
  365loPI   C4B 5840  16.089  13.103   8.558  0.1438  0.1460  0.1976
  366loPI    C1 5841   8.130  14.030  10.242 -0.0619  0.2050  0.1276
  366loPI    C2 5842   7.943  13.790  10.502 -0.1600  0.0921 -0.0456
  366loPI    C3 5843   8.278  13.667  10.321 -0.2055  0.0887 -0.1279
  366loPI   PO4 5844   8.030  14.044  10.084 -0.1746  0.0863 -0.1895
  366loPI   GL1 5845   7.972  13.943   9.674 -0.1664  0.3385  0.1039
  366loPI   GL2 5846   8.153  14.067   9.594 -0.1043 -0.1264 -0.1997
  366loPI   C1A 5847   7.740  14.005   9.230 -0.3625 -0.0132  0.0102
  366loPI   C2A 5848   7.762  13.991   8.836  0.3203 -0.1325 -0.2043
  366loPI   C3A 5849   7.696  14.180   8.317  0.0031 -0.0965 -0.1742
  366loPI   C4A 5850   7.608  14.144   7.866 -0.3145  0.1651  0.0769
  366loPI   C5A 5851   7.844  14.270   7.570  0.1466 -0.1876  0.0127
  366loPI   C6A 5852   8.074  14.616   7.224  0.1304  0.0796  0.0115
  366loPI   C1B 5853   8.236  14.022   9.179 -0.2007 -0.2408  0.1215
  366loPI   C2B 5854   8.247  14.091   8.751 -0.1116  0.0534  0.0932
  366loPI   C3B 5855   8.277  14.198   8.326 -0.0090  0.1047 -0.1855
  366loPI   C4B 5856   8.239  14.076   7.972  0.4501 -0.2210 -0.0603
  367loPI    C1 5857  14.087  15.477  10.778 -0.1016 -0.1097  0.2736
  367loPI    C2 5858  13.973  15.855  10.840  0.0136  0.0152 -0.2252
  367loPI    C3 5859  14.344  15.739  10.936 -0.0996 -0.0433  0.1611
  367loPI   PO4 5860  13.960  15.427  10.541 -0.0625  0.0840  0.0184
  367loPI   GL1 5861  13.996  14.991  10.222  0.0010 -0.0318  0.0064
  367loPI   GL2 5862  14.205  14.813  10.214 -0.0641 -0.4746  0.4279
  367loPI   C1A 5863  13.796  15.180   9.839 -0.2559 -0.0024 -0.1031
  367loPI   C2A 5864  13.819  15.235   9.392  0.0718  0.0359 -0.1365
  367loPI   C3A 5865  13.888  15.318   8.995  0.0091  0.0728 -0.1364
  367loPI   C4A 5866  13.939  15.226   8.575 -0.2359 -0.0429 -0.4021
  367loPI   C5A 5867  14.082  15.143   8.152 -0.0901 -0.0990  0.1194
  367loPI   C6A 5868  14.147  14.918   7.766  0.0196  0.1365  0.0053
  367loPI   C1B 5869  14.165  14.773   9.790  0.2450 -0.0290  0.0314
  367loPI   C2B 5870  14.165  14.795   9.353  0.0152 -0.0507  0.2546
  367loPI   C3B 5871  14.127  14.879   8.967  0.2236  0.0837 -0.0090
  367loPI   C4B 5872  14.231  14.863   8.604  0.0528  0.1332 -0.0137
  368loPI    C1 5873  11.276   7.763  10.429  0.1149 -0.0049 -0.0351
  368loPI    C2 5874  11.474   7.633  10.751 -0.0915 -0.0000  0.0953
  368loPI    C3 5875  11.163   7.880  10.794 -0.0632  0.0740 -0.1147
  368loPI   PO4 5876  11.405   7.710  10.155 -0.0543  0.2054 -0.0012
  368loPI   GL1 5877  11.236   7.791   9.708 -0.1566  0.0330  0.2312
  368loPI   GL2 5878  11.218   7.485   9.713  0.0903 -0.2770 -0.2138
  368loPI   C1A 5879  11.460   7.638   9.300 -0.1596  0.4833  0.1246
  368loPI   C2A 5880  11.807   7.658   9.127 -0.0447 -0.3017 -0.0504
  368loPI   C3A 5881  11.971   7.769   8.776  0.3449  0.2115  0.0265
  368loPI   C4A 5882  11.866   7.877   8.275  0.2376  0.2216  0.0832
  368loPI   C5A 5883  12.031   7.702   7.927 -0.0050 -0.0630  0.1010
  368loPI   C6A 5884  12.309   7.611   7.576  0.1677  0.3451  0.0766
  368loPI   C1B 5885  11.061   7.312   9.388 -0.2358  0.0181  0.0414
  368loPI   C2B 5886  11.087   7.140   8.995 -0.0088  0.0801 -0.2276
  368loPI   C3B 5887  11.123   7.403   8.591  0.0511  0.0877 -0.0897
  368loPI   C4B 5888  11.132   7.566   8.236  0.0289 -0.1579  0.1923
  369loPI    C1 5889   2.741   2.018  11.394  0.2080 -0.0570 -0.0859
  369loPI    C2 5890   2.918   2.376  11.377  0.0519  0.0307  0.1070
  369loPI    C3 5891   2.822   2.217  11.731 -0.1072 -0.0888  0.0113
  369loPI   PO4 5892   2.596   1.995  11.241 -0.3420  0.2543 -0.0368
  369loPI   GL1 5893   2.440   1.952  10.888  0.1750 -0.1831  0.1138
  369loPI   GL2 5894   2.781   1.799  10.670  0.1982  0.1380 -0.0299
  369loPI   C1A 5895   2.468   2.047  10.401  0.1001 -0.3054  0.0635
  369loPI   C2A 5896   2.447   2.080   9.994  0.3302 -0.0615  0.0574
  369loPI   C3A 5897   2.357   2.126   9.532 -0.4230 -0.1591  0.0772
  369loPI   C4A 5898   2.242   2.238   9.185 -0.0952 -0.1385  0.1812
  369loPI   C5A 5899   2.350   2.127   8.874  0.0521 -0.0800 -0.2235
  369loPI   C6A 5900   2.180   1.989   8.402  0.0825  0.1026  0.1702
  369loPI   C1B 5901   2.863   1.777  10.205 -0.1001 -0.1124 -0.1700
  369loPI   C2B 5902   2.748   1.784   9.706  0.0297 -0.2507 -0.0792
  369loPI   C3B 5903   2.697   1.770   9.283 -0.2350 -0.0101  0.1973
  369loPI   C4B 5904   2.822   1.755   8.922  0.0080 -0.1315  0.0825
  370loPI    C1 5905   4.515   6.819  10.984  0.4493 -0.0302 -0.0436
  370loPI    C2 5906   4.836   7.058  10.995  0.2859  0.1857  0.1215
  370loPI    C3 5907   4.480   7.195  11.116  0.1130 -0.0266 -0.1335
  370loPI   PO4 5908   4.484   6.706  10.755 -0.1332  0.0179 -0.1778
  370loPI   GL1 5909   4.426   6.788  10.304  0.0820 -0.1507  0.1286
  370loPI   GL2 5910   4.540   6.473  10.282  0.3754  0.1280 -0.1464
  370loPI   C1A 5911   4.497   7.126   9.971  0.1116  0.0155  0.1951
  370loPI   C2A 5912   4.425   7.062   9.579  0.2625 -0.1927 -0.1862
  370loPI   C3A 5913   4.311   6.950   9.152 -0.0340 -0.1602 -0.2168
  370loPI   C4A 5914   4.401   6.928   8.706 -0.3329  0.3251 -0.0965
  370loPI   C5A 5915   4.187   7.036   8.390  0.0063  0.1132  0.4075
  370loPI   C6A 5916   4.090   6.808   8.275 -0.0671  0.2951 -0.3426
  370loPI   C1B 5917   4.292   6.525   9.879 -0.0232 -0.2146 -0.1397
  370loPI   C2B 5918   4.274   6.542   9.471  0.0184 -0.0985  0.0498
  370loPI   C3B 5919   4.227   6.444   9.091  0.2897  0.0858  0.0953
  370loPI   C4B 5920   4.192   6.460   8.683 -0.2184  0.1475  0.0234
  371loPI    C1 5921  10.001  10.864  10.325  0.2073 -0.1148 -0.0097
  371loPI    C2 5922   9.664  10.737  10.498  0.1187  0.0869 -0.0314
  371loPI    C3 5923   9.977  10.490  10.466  0.0914  0.0048  0.2961
  371loPI   PO4 5924   9.919  10.980  10.147 -0.3433 -0.0559 -0.0235
  371loPI   GL1 5925   9.729  10.965   9.704 -0.1807  0.1076  0.2883
  371loPI   GL2 5926   9.996  11.260   9.684  0.0430 -0.1864 -0.1851
  371loPI   C1A 5927   9.610  11.057   9.242 -0.2713  0.1746  0.0165
  371loPI   C2A 5928   9.713  11.080   8.820  0.0303 -0.1471 -0.0771
  371loPI   C3A 5929   9.906  10.857   8.440  0.1375 -0.0554  0.1227
  371loPI   C4A 5930  10.188  10.877   8.149  0.2658 -0.1855  0.0505
  371loPI   C5A 5931  10.387  10.509   7.885 -0.4027 -0.1842  0.1798
  371loPI   C6A 5932  10.587  10.242   7.492  0.0416  0.1806 -0.2777
  371loPI   C1B 5933   9.923  11.447   9.217  0.1724 -0.0897 -0.0578
  371loPI   C2B 5934   9.959  11.479   8.697  0.0545  0.0784  0.0986
  371loPI   C3B 5935  10.001  11.499   8.166 -0.0872 -0.1570 -0.1425
  371loPI   C4B 5936  10.270  11.343   7.909  0.2219  0.1919 -0.2239
  372loPI    C1 5937  10.722   8.278  10.158  0.0671  0.0083  0.0038
  372loPI    C2 5938  10.773   7.989  10.430  0.3403 -0.0421 -0.0975
  372loPI    C3 5939  10.937   8.349  10.488  0.0036  0.0950  0.0267
  372loPI   PO4 5940  10.821   8.169   9.909  0.0048  0.0846 -0.3992
  372loPI   GL1 5941  10.529   8.300   9.648  0.2980  0.0851  0.2706
  372loPI   GL2 5942  10.782   8.517   9.503 -0.0459  0.0940  0.0123
  372loPI   C1A 5943  10.426   8.267   9.144  0.1725  0.0359 -0.1673
  372loPI   C2A 5944  10.578   8.333   8.654  0.1002  0.1028  0.0433
  372loPI   C3A 5945  10.582   8.327   8.271 -0.0381  0.1991  0.0796
  372loPI   C4A 5946  10.410   8.210   7.951 -0.0299 -0.1084 -0.3127
  372loPI   C5A 5947  10.231   7.851   7.849  0.0734 -0.0602 -0.2286
  372loPI   C6A 5948   9.788   7.547   7.744  0.2765  0.0345  0.2172
  372loPI   C1B 5949  11.002   8.693   9.173  0.1248  0.1144  0.1311
  372loPI   C2B 5950  10.764   8.775   8.851 -0.1601  0.0172 -0.0401
  372loPI   C3B 5951  10.669   8.808   8.525 -0.0883 -0.1288  0.0512
  372loPI   C4B 5952  10.540   8.806   8.099 -0.0336  0.2470  0.0652
  373loPI    C1 5953   1.363   1.136  11.626  0.1938 -0.1624 -0.1319
  373loPI    C2 5954   1.472   1.499  11.755  0.1257 -0.1327 -0.1579
  373loPI    C3 5955   1.579   1.173  11.961  0.0199 -0.0856 -0.0267
  373loPI   PO4 5956   1.345   1.277  11.303 -0.0217 -0.0079  0.1401
  373loPI   GL1 5957   1.172   1.390  10.924  0.1930 -0.0702 -0.1639
  373loPI   GL2 5958   1.006   1.242  10.688  0.1257  0.3267 -0.2513
  373loPI   C1A 5959   1.464   1.243  10.572  0.0682  0.1191 -0.3363
  373loPI   C2A 5960   1.687   1.403  10.250  0.0713  0.0119  0.0842
  373loPI   C3A 5961   1.638   1.556   9.894  0.3557  0.1281  0.0230
  373loPI   C4A 5962   1.655   1.580   9.538 -0.2776 -0.2085 -0.2081
  373loPI   C5A 5963   1.734   1.457   9.030  0.0416  0.1775 -0.1059
  373loPI   C6A 5964   1.708   1.551   8.569 -0.2455  0.0502 -0.1976
  373loPI   C1B 5965   0.834   1.166  10.317 -0.3901 -0.2244 -0.2838
  373loPI   C2B 5966   0.766   1.134   9.880  0.1391 -0.2283 -0.1793
  373loPI   C3B 5967   0.741   1.298   9.454  0.1624  0.0251  0.2067
  373loPI   C4B 5968   0.747   1.263   9.023 -0.0504 -0.1580 -0.0525
  374loPI    C1 5969   8.065  15.260  10.824 -0.1024  0.2139 -0.1575
  374loPI    C2 5970   8.378  15.425  11.012  0.0167 -0.1484 -0.0276
  374loPI    C3 5971   8.024  15.399  11.197  0.0389 -0.1789  0.0105
  374loPI   PO4 5972   8.093  15.293  10.608 -0.3600  0.0379 -0.0544
  374loPI   GL1 5973   8.210  15.362  10.137 -0.2724  0.1355  0.2323
  374loPI   GL2 5974   7.815  15.316  10.072 -0.0368  0.0618 -0.0452
  374loPI   C1A 5975   8.091  15.557   9.778 -0.1960 -0.0889  0.0696
  374loPI   C2A 5976   8.000  15.778   9.414 -0.1904  0.0598 -0.0234
  374loPI   C3A 5977   7.793  15.877   9.040 -0.0246 -0.1357 -0.1853
  374loPI   C4A 5978   7.740  16.063   8.603 -0.1187 -0.0283  0.1591
  374loPI   C5A 5979   7.728  15.992   8.154  0.0350  0.0018  0.3366
  374loPI   C6A 5980   7.689  15.694   7.847 -0.1190  0.1911  0.2964
  374loPI   C1B 5981   7.536  15.551   9.784  0.0353 -0.0711 -0.0205
  374loPI   C2B 5982   7.449  15.747   9.365 -0.0251  0.3299 -0.1405
  374loPI   C3B 5983   7.260  15.838   8.904 -0.0706  0.2111  0.0127
  374loPI   C4B 5984   7.287  15.785   8.451 -0.2371 -0.0554  0.2423
  375loPI    C1 5985   1.334  18.153  11.043  0.1712 -0.0761 -0.0998
  375loPI    C2 5986   1.098  17.867  10.894 -0.0168  0.0722 -0.0911
  375loPI    C3 5987   1.031  18.010  11.261  0.1922 -0.0035 -0.0223
  375loPI   PO4 5988   1.363  18.290  10.853 -0.0625 -0.1934 -0.1519
  375loPI   GL1 5989   1.368  18.176  10.409 -0.0513  0.0464 -0.1685
  375loPI   GL2 5990   1.743  17.995  10.333 -0.2607  0.0837 -0.0748
  375loPI   C1A 5991   1.432  18.290  10.024  0.1256 -0.2175  0.3357
  375loPI   C2A 5992   1.360  18.312   9.590 -0.2013  0.2951  0.0427
  375loPI   C3A 5993   1.436  18.396   9.170  0.0203 -0.1323  0.3123
  375loPI   C4A 5994   1.542  18.279   8.723 -0.1897  0.0736 -0.1159
  375loPI   C5A 5995   1.622  18.473   8.403 -0.0737  0.1243  0.2695
  375loPI   C6A 5996   1.686  18.278   7.992 -0.0791  0.3156 -0.0320
  375loPI   C1B 5997   1.695  17.901   9.865  0.0135 -0.0104  0.1239
  375loPI   C2B 5998   1.810  17.950   9.472 -0.0569  0.2257  0.2420
  375loPI   C3B 5999   1.805  18.028   9.039 -0.0215  0.0209 -0.0497
  375loPI   C4B 6000   2.092  18.129   8.672  0.0355  0.2455  0.1086
  376loPI    C1 6001  10.516   0.804  10.900  0.1474  0.0055  0.0865
  376loPI    C2 6002  10.193   1.040  10.879  0.0601 -0.1278 -0.1007
  376loPI    C3 6003  10.160   0.667  11.021  0.1426 -0.1231 -0.0685
  376loPI   PO4 6004  10.617   0.781  10.723 -0.0614 -0.0361  0.2281
  376loPI   GL1 6005  11.006   0.569  10.461  0.1486 -0.1398 -0.1737
  376loPI   GL2 6006  10.831   0.453  10.298 -0.0380  0.0873 -0.1988
  376loPI   C1A 6007  11.303   0.707  10.106 -0.1196 -0.0176 -0.1802
  376loPI   C2A 6008  11.554   0.796   9.671 -0.0283 -0.0244 -0.2318
  376loPI   C3A 6009  11.607   0.837   9.280  0.1005  0.1293 -0.1718
  376loPI   C4A 6010  11.519   0.910   8.806 -0.0045  0.1905  0.0626
  376loPI   C5A 6011  11.514   0.852   8.314  0.1308 -0.1719 -0.1345
  376loPI   C6A 6012  11.470   0.784   7.939 -0.2753  0.2527 -0.1387
  376loPI   C1B 6013  10.856   0.680   9.847  0.0243 -0.2221 -0.1326
  376loPI   C2B 6014  10.961   0.815   9.506  0.1703  0.1442 -0.2603
  376loPI   C3B 6015  11.066   0.890   9.040  0.0003  0.0923 -0.0705
  376loPI   C4B 6016  10.992   0.873   8.667  0.0697  0.0662  0.0502
  377loPI    C1 6017  13.815   7.490  10.839 -0.0851 -0.0192 -0.0275
  377loPI    C2 6018  13.429   7.593  10.820 -0.0465  0.1052 -0.1635
  377loPI    C3 6019  13.672   7.773  11.082 -0.1521 -0.2139  0.1623
  377loPI   PO4 6020  13.919   7.514  10.632 -0.1183  0.1461  0.1658
  377loPI   GL1 6021  14.112   7.708  10.364 -0.3853  0.0686  0.0522
  377loPI   GL2 6022  14.324   7.577  10.127  0.1493 -0.2396  0.0133
  377loPI   C1A 6023  13.851   7.804   9.985  0.0201 -0.1002  0.1367
  377loPI   C2A 6024  13.931   7.795   9.529  0.0534 -0.2199 -0.0637
  377loPI   C3A 6025  14.097   7.836   9.117  0.2377  0.0013  0.3305
  377loPI   C4A 6026  14.156   7.904   8.692  0.1928  0.1038  0.0729
  377loPI   C5A 6027  14.473   7.871   8.282  0.0712 -0.0889 -0.2421
  377loPI   C6A 6028  14.324   7.534   7.990 -0.0017 -0.1217 -0.1809
  377loPI   C1B 6029  14.369   7.629   9.685 -0.0539 -0.2187 -0.2041
  377loPI   C2B 6030  14.512   7.614   9.232  0.1790 -0.2064 -0.0437
  377loPI   C3B 6031  14.483   7.581   8.780 -0.4341  0.0280 -0.2191
  377loPI   C4B 6032  14.700   7.461   8.347  0.0564 -0.1842  0.0676
  378loPI    C1 6033  11.044   3.222  10.824 -0.1988  0.0559 -0.0331
  378loPI    C2 6034  10.944   3.478  11.115 -0.0367 -0.0018  0.0748
  378loPI    C3 6035  11.176   3.163  11.197 -0.2186 -0.1735 -0.0614
  378loPI   PO4 6036  11.099   3.415  10.573 -0.1178 -0.0980  0.1844
  378loPI   GL1 6037  11.161   3.317  10.182  0.3168 -0.2311 -0.0220
  378loPI   GL2 6038  10.969   3.486  10.056  0.0092  0.3156  0.1269
  378loPI   C1A 6039  11.493   3.296  10.023 -0.1938  0.2009 -0.0048
  378loPI   C2A 6040  11.636   3.481   9.622  0.1593 -0.1261  0.0770
  378loPI   C3A 6041  11.624   3.338   9.235 -0.1519 -0.3725 -0.0863
  378loPI   C4A 6042  11.675   3.365   8.786  0.3202 -0.2096  0.0036
  378loPI   C5A 6043  11.743   3.306   8.409 -0.1351 -0.1465  0.1930
  378loPI   C6A 6044  11.987   3.182   8.066 -0.0592  0.2948  0.2876
  378loPI   C1B 6045  11.133   3.378   9.646 -0.2356 -0.1687  0.1334
  378loPI   C2B 6046  11.149   3.100   9.241 -0.0934 -0.1428 -0.0954
  378loPI   C3B 6047  11.199   3.163   8.843  0.1619 -0.0330 -0.0934
  378loPI   C4B 6048  10.990   3.247   8.397  0.2804  0.0341 -0.1212
  379loPI    C1 6049  18.189  12.235  10.726  0.1788 -0.0321  0.1070
  379loPI    C2 6050  18.427  11.915  10.753  0.0205 -0.1775 -0.1776
  379loPI    C3 6051  18.095  11.937  10.975  0.1220 -0.1292 -0.0294
  379loPI   PO4 6052  18.331  12.376  10.472  0.0759  0.2142  0.2573
  379loPI   GL1 6053  18.213  12.234  10.186 -0.0763  0.0538 -0.2163
  379loPI   GL2 6054  17.979  12.248  10.022  0.0619 -0.1040  0.0558
  379loPI   C1A 6055  18.503  12.336   9.854 -0.3328  0.0036 -0.0138
  379loPI   C2A 6056  18.707  12.389   9.437 -0.3085  0.0954 -0.0003
  379loPI   C3A 6057  18.689  12.426   8.961  0.1437 -0.1972  0.4305
  379loPI   C4A 6058  18.689  12.433   8.522 -0.3311  0.1408  0.2214
  379loPI   C5A 6059  19.081  12.511   8.312 -0.0114  0.0089 -0.2494
  379loPI   C6A 6060  19.436  12.330   8.199 -0.3398 -0.1175 -0.0602
  379loPI   C1B 6061  18.099  12.299   9.557  0.3484  0.0756  0.3688
  379loPI   C2B 6062  18.164  12.231   9.173  0.0277 -0.1569  0.1405
  379loPI   C3B 6063  18.262  12.345   8.731 -0.1731 -0.2395  0.0803
  379loPI   C4B 6064  18.188  12.351   8.297  0.3530 -0.2379 -0.1744
  380loPI    C1 6065   6.868  12.608  10.133 -0.2186 -0.1983 -0.0766
  380loPI    C2 6066   6.778  12.258   9.960 -0.0004 -0.4412  0.2867
  380loPI    C3 6067   7.011  12.267  10.285  0.0326  0.0493  0.2585
  380loPI   PO4 6068   7.013  12.828   9.996 -0.2691 -0.0367 -0.0140
  380loPI   GL1 6069   7.087  12.849   9.570  0.0532  0.0840 -0.2768
  380loPI   GL2 6070   7.504  12.818   9.636  0.3870 -0.0143  0.1429
  380loPI   C1A 6071   6.952  12.807   9.185  0.0548 -0.1790 -0.2314
  380loPI   C2A 6072   6.956  12.893   8.671 -0.4389  0.1575  0.0378
  380loPI   C3A 6073   6.830  12.931   8.247  0.0783  0.0920 -0.4485
  380loPI   C4A 6074   7.121  12.811   7.936  0.2742  0.1986 -0.2349
  380loPI   C5A 6075   7.413  12.351   7.763  0.0552  0.2221  0.0629
  380loPI   C6A 6076   7.383  11.898   7.803  0.1567 -0.0152  0.0567
  380loPI   C1B 6077   7.404  12.799   9.117 -0.2602 -0.0197  0.2194
  380loPI   C2B 6078   7.544  13.043   8.711 -0.0395  0.0267  0.1396
  380loPI   C3B 6079   7.300  13.086   8.356  0.1909 -0.1435 -0.0853
  380loPI   C4B 6080   7.371  13.320   7.966  0.4583 -0.2352  0.0087
  381loPI    C1 6081  14.877   2.638  11.139 -0.0035  0.1735  0.0098
  381loPI    C2 6082  14.960   2.862  11.459 -0.0918  0.3416 -0.0836
  381loPI    C3 6083  14.698   2.561  11.488  0.2318  0.0719  0.1096
  381loPI   PO4 6084  15.115   2.677  10.993  0.3312  0.0764  0.2891
  381loPI   GL1 6085  15.045   2.538  10.572 -0.0295 -0.3258  0.2487
  381loPI   GL2 6086  15.115   2.759  10.393 -0.1245 -0.2192  0.1375
  381loPI   C1A 6087  15.186   2.340  10.205 -0.0652 -0.1771  0.2723
  381loPI   C2A 6088  15.199   2.560   9.880  0.0714 -0.1212  0.2017
  381loPI   C3A 6089  15.285   2.406   9.476 -0.0728  0.1968  0.0557
  381loPI   C4A 6090  15.164   2.350   9.006  0.1030 -0.2149 -0.1078
  381loPI   C5A 6091  15.203   2.322   8.542  0.2806 -0.0930 -0.1671
  381loPI   C6A 6092  15.078   2.100   8.225  0.2416 -0.0442  0.0754
  381loPI   C1B 6093  14.825   2.879  10.117 -0.3781 -0.1782 -0.2463
  381loPI   C2B 6094  14.735   2.865   9.663 -0.3771  0.1279 -0.4681
  381loPI   C3B 6095  14.884   2.728   9.212 -0.0189 -0.1953  0.1015
  381loPI   C4B 6096  14.907   2.714   8.706 -0.0654  0.1436  0.1880
  382loPI    C1 6097   3.795   4.734  10.953 -0.1088  0.0088  0.2484
  382loPI    C2 6098   4.031   5.056  10.977 -0.1245  0.0495 -0.0918
  382loPI    C3 6099   4.047   4.775  11.261  0.4854 -0.0501 -0.2105
  382loPI   PO4 6100   3.883   4.630  10.713 -0.2949  0.1931  0.0336
  382loPI   GL1 6101   3.955   4.490  10.342 -0.0927 -0.0473 -0.0362
  382loPI   GL2 6102   3.663   4.356  10.278 -0.0369 -0.1593  0.2469
  382loPI   C1A 6103   3.876   4.632   9.869  0.1402 -0.0793  0.0110
  382loPI   C2A 6104   3.783   4.475   9.457  0.1066  0.2587  0.1861
  382loPI   C3A 6105   3.798   4.409   9.023 -0.0045  0.0402 -0.1440
  382loPI   C4A 6106   3.764   4.387   8.595 -0.3776  0.0542 -0.0798
  382loPI   C5A 6107   3.437   4.427   8.306  0.1218 -0.0627 -0.0885
  382loPI   C6A 6108   3.168   4.627   8.066  0.1512 -0.1263  0.1098
  382loPI   C1B 6109   3.417   4.436   9.973 -0.2888 -0.2357  0.2115
  382loPI   C2B 6110   3.266   4.362   9.520 -0.2788 -0.1961  0.2261
  382loPI   C3B 6111   3.226   4.282   9.121 -0.0688 -0.0916 -0.1255
  382loPI   C4B 6112   3.239   4.098   8.689  0.0648  0.0629  0.1702
  383loPI    C1 6113   4.592  11.106  10.826  0.1070  0.0930  0.1124
  383loPI    C2 6114   4.550  10.728  10.951  0.1923  0.0719  0.0779
  383loPI    C3 6115   4.241  10.981  10.972  0.1617  0.0259  0.1870
  383loPI   PO4 6116   4.610  11.107  10.518 -0.0488  0.1950  0.0349
  383loPI   GL1 6117   4.630  11.138  10.035 -0.0683 -0.0279  0.1615
  383loPI   GL2 6118   4.321  11.257  10.132 -0.1120 -0.0828  0.2345
  383loPI   C1A 6119   4.762  11.309   9.635  0.3417  0.2462  0.2723
  383loPI   C2A 6120   4.738  11.273   9.222  0.2119 -0.1225  0.0381
  383loPI   C3A 6121   4.785  11.184   8.838 -0.0957  0.2703  0.3873
  383loPI   C4A 6122   4.531  11.013   8.561  0.0240  0.2193  0.3121
  383loPI   C5A 6123   4.377  10.908   8.120  0.3444 -0.2315 -0.0988
  383loPI   C6A 6124   4.405  11.155   7.700 -0.3130  0.0580 -0.1869
  383loPI   C1B 6125   4.268  11.134   9.713  0.1455  0.0092  0.0182
  383loPI   C2B 6126   4.187  11.206   9.273 -0.0423 -0.0929 -0.0734
  383loPI   C3B 6127   4.233  11.272   8.884 -0.3149  0.1039 -0.2520
  383loPI   C4B 6128   4.059  11.192   8.404  0.2301  0.1768 -0.2069
  384loPI    C1 6129  16.310   4.761  10.960 -0.1656 -0.3107 -0.1630
  384loPI    C2 6130  16.583   4.936  11.195 -0.4096  0.1647 -0.2227
  384loPI    C3 6131  16.389   4.610  11.322 -0.0583  0.0196 -0.0454
  384loPI   PO4 6132  16.400   4.799  10.720 -0.1482 -0.1983  0.1567
  384loPI   GL1 6133  16.604   4.782  10.337  0.4656 -0.2739 -0.1264
  384loPI   GL2 6134  16.678   5.050  10.351  0.0015 -0.0623  0.0078
  384loPI   C1A 6135  16.744   4.750   9.830  0.0461  0.2469 -0.0784
  384loPI   C2A 6136  16.700   4.722   9.302 -0.1736 -0.0146  0.0110
  384loPI   C3A 6137  16.644   4.790   8.809  0.1572  0.0957 -0.0147
  384loPI   C4A 6138  16.692   4.763   8.319 -0.0574  0.2765  0.2509
  384loPI   C5A 6139  16.811   4.423   8.101  0.3215  0.1149  0.3794
  384loPI   C6A 6140  17.045   4.050   7.818 -0.2492  0.5217 -0.3010
  384loPI   C1B 6141  17.007   5.086  10.048 -0.2041  0.0321  0.2198
  384loPI   C2B 6142  17.241   4.880   9.761 -0.0474  0.0837  0.0659
  384loPI   C3B 6143  17.196   4.878   9.275 -0.1734  0.0364  0.0325
  384loPI   C4B 6144  17.216   4.949   8.836  0.2452  0.3151  0.1163
  385loPI    C1 6145   3.352  10.055  10.656 -0.1108  0.1757  0.0481
  385loPI    C2 6146   3.691  10.191  10.820 -0.0099 -0.0069 -0.0075
  385loPI    C3 6147   3.348  10.214  11.024  0.0594  0.0561  0.1029
  385loPI   PO4 6148   3.347  10.193  10.461 -0.2487 -0.1122 -0.1138
  385loPI   GL1 6149   3.347  10.141  10.048 -0.3541 -0.1381  0.0151
  385loPI   GL2 6150   3.490  10.400   9.928 -0.2840  0.1196 -0.2009
  385loPI   C1A 6151   3.059  10.111   9.758  0.0687  0.2168 -0.1655
  385loPI   C2A 6152   3.048  10.253   9.444 -0.1583 -0.0745  0.2968
  385loPI   C3A 6153   2.978  10.217   9.039 -0.3803  0.2457 -0.1157
  385loPI   C4A 6154   2.877  10.337   8.700  0.0126  0.1184  0.0436
  385loPI   C5A 6155   2.731  10.395   8.332 -0.0953 -0.0574 -0.1046
  385loPI   C6A 6156   2.556  10.554   8.009  0.0673  0.0549  0.0495
  385loPI   C1B 6157   3.456  10.507   9.528 -0.0064  0.0204  0.2107
  385loPI   C2B 6158   3.450  10.379   9.094 -0.1375  0.0258 -0.0898
  385loPI   C3B 6159   3.376  10.147   8.728  0.1305  0.0123  0.0669
  385loPI   C4B 6160   3.153  10.067   8.316 -0.0721 -0.2855 -0.3712
  386loPI    C1 6161   6.559   5.631  10.705 -0.0558 -0.0481 -0.0023
  386loPI    C2 6162   6.860   5.867  10.821 -0.0707 -0.0693  0.0800
  386loPI    C3 6163   6.925   5.479  10.754 -0.0544 -0.0499 -0.0179
  386loPI   PO4 6164   6.458   5.690  10.456  0.0126 -0.0216 -0.0232
  386loPI   GL1 6165   6.233   5.407  10.175 -0.0298  0.3129  0.0719
  386loPI   GL2 6166   6.548   5.545   9.991  0.3344 -0.2769 -0.0542
  386loPI   C1A 6167   6.010   5.241   9.820  0.0163  0.0737 -0.1680
  386loPI   C2A 6168   5.840   5.031   9.422  0.4082 -0.1723 -0.3508
  386loPI   C3A 6169   5.787   4.974   9.078 -0.2996  0.1882 -0.0375
  386loPI   C4A 6170   5.755   4.882   8.622  0.0566  0.0037 -0.0218
  386loPI   C5A 6171   5.717   4.923   8.148 -0.0810 -0.1275  0.1393
  386loPI   C6A 6172   5.315   5.101   7.896  0.0360 -0.1598  0.1041
  386loPI   C1B 6173   6.369   5.515   9.602  0.0829  0.0292 -0.2102
  386loPI   C2B 6174   6.651   5.506   9.298  0.4660 -0.3543  0.2524
  386loPI   C3B 6175   6.548   5.411   8.891 -0.0273  0.2170  0.0678
  386loPI   C4B 6176   6.291   5.131   8.631  0.2901  0.4299  0.3296
  387loPI    C1 6177   1.051   0.432  11.239 -0.0555 -0.1075  0.0356
  387loPI    C2 6178   1.254   0.118  11.383  0.0183 -0.0183  0.1272
  387loPI    C3 6179   1.374   0.491  11.467  0.0653  0.0363 -0.1687
  387loPI   PO4 6180   1.153   0.430  10.956 -0.0437  0.2529  0.0799
  387loPI   GL1 6181   1.060   0.181  10.541 -0.0661  0.3640 -0.0771
  387loPI   GL2 6182   0.681   0.181  10.514  0.0222  0.3896  0.1074
  387loPI   C1A 6183   1.003   0.238   9.981 -0.0112 -0.0464 -0.0664
  387loPI   C2A 6184   0.965   0.357   9.486 -0.0383  0.1343 -0.0013
  387loPI   C3A 6185   1.004   0.319   9.132  0.0542 -0.0725 -0.2417
  387loPI   C4A 6186   1.112   0.171   8.760 -0.1240  0.0975  0.2434
  387loPI   C5A 6187   1.192   0.256   8.298  0.0143 -0.2102 -0.1139
  387loPI   C6A 6188   1.067   0.626   8.197 -0.0379 -0.2130 -0.0132
  387loPI   C1B 6189   0.515   0.168  10.212  0.1304 -0.0838 -0.0910
  387loPI   C2B 6190   0.418   0.219   9.766 -0.1607  0.0637  0.1586
  387loPI   C3B 6191   0.460   0.178   9.392 -0.0032 -0.2808 -0.1905
  387loPI   C4B 6192   0.489   0.195   8.943 -0.0038 -0.4300  0.2039
  388loPI    C1 6193  15.442  11.125  10.533 -0.0928 -0.2802  0.0293
  388loPI    C2 6194  15.736  10.917  10.707  0.1644  0.1722  0.1507
  388loPI    C3 6195  15.470  11.115  10.932 -0.0459  0.0231  0.0363
  388loPI   PO4 6196  15.568  11.177  10.250 -0.2576 -0.0160 -0.3092
  388loPI   GL1 6197  15.669  11.028   9.835  0.1021  0.1471  0.2531
  388loPI   GL2 6198  15.816  11.422   9.821  0.1568 -0.1187 -0.1313
  388loPI   C1A 6199  15.543  10.942   9.325 -0.0887 -0.2960 -0.0155
  388loPI   C2A 6200  15.522  11.014   8.838  0.2071  0.0272 -0.0254
  388loPI   C3A 6201  15.537  11.052   8.412  0.0955  0.0138 -0.2943
  388loPI   C4A 6202  15.595  11.195   8.036 -0.0403  0.0878 -0.1676
  388loPI   C5A 6203  15.579  11.170   7.635 -0.1551 -0.2424  0.1425
  388loPI   C6A 6204  15.732  11.520   7.307 -0.1642 -0.0152 -0.0395
  388loPI   C1B 6205  15.671  11.497   9.373  0.0989  0.2536  0.0716
  388loPI   C2B 6206  15.671  11.575   8.943 -0.2618 -0.0390 -0.1970
  388loPI   C3B 6207  15.648  11.553   8.450  0.0585 -0.1808 -0.0994
  388loPI   C4B 6208  15.747  11.627   8.103 -0.2632  0.0569  0.1344
  389loPI    C1 6209  18.271   4.607  11.132  0.0462 -0.1886  0.1329
  389loPI    C2 6210  17.907   4.485  11.245  0.1404 -0.3231  0.2969
  389loPI    C3 6211  18.139   4.685  11.502  0.0687  0.0245  0.0970
  389loPI   PO4 6212  18.260   4.739  10.939 -0.2134 -0.0871 -0.1223
  389loPI   GL1 6213  18.324   4.597  10.565  0.0540 -0.2200 -0.1142
  389loPI   GL2 6214  18.058   4.659  10.456  0.2771  0.3183 -0.0225
  389loPI   C1A 6215  18.431   4.346  10.192  0.1234 -0.3327 -0.2008
  389loPI   C2A 6216  18.376   4.298   9.710  0.1625  0.1474 -0.2625
  389loPI   C3A 6217  18.310   4.334   9.367 -0.0921  0.0670  0.2232
  389loPI   C4A 6218  18.413   4.316   9.013  0.0037  0.0754  0.0767
  389loPI   C5A 6219  18.464   4.156   8.571  0.0996 -0.1053  0.2536
  389loPI   C6A 6220  18.772   3.938   8.297  0.2851 -0.2138 -0.0866
  389loPI   C1B 6221  18.058   4.656  10.017 -0.0261  0.0717 -0.4135
  389loPI   C2B 6222  18.054   4.720   9.626  0.0745  0.0760 -0.0271
  389loPI   C3B 6223  18.049   4.698   9.129  0.0017 -0.1315 -0.2919
  389loPI   C4B 6224  18.083   4.668   8.690 -0.0628 -0.2463 -0.1991
  390loPI    C1 6225   9.170   7.707  10.120 -0.0935  0.0140 -0.0745
  390loPI    C2 6226   8.930   7.928  10.352 -0.1853  0.0817 -0.2314
  390loPI    C3 6227   9.042   7.562  10.470  0.0825  0.2636  0.0960
  390loPI   PO4 6228   9.345   7.908  10.043  0.0915 -0.2250 -0.1302
  390loPI   GL1 6229   9.492   8.023   9.573  0.3319 -0.1680  0.1388
  390loPI   GL2 6230   9.216   8.075   9.555  0.2280  0.3399 -0.1674
  390loPI   C1A 6231   9.680   7.843   9.150  0.0078 -0.2763 -0.5376
  390loPI   C2A 6232   9.741   7.775   8.767  0.0584 -0.0947  0.1492
  390loPI   C3A 6233   9.425   7.709   8.392  0.2664 -0.2272  0.0950
  390loPI   C4A 6234   9.292   8.007   8.020  0.3582  0.0308  0.3342
  390loPI   C5A 6235   9.352   8.304   7.675 -0.4499  0.0630 -0.1669
  390loPI   C6A 6236   9.656   8.605   7.684  0.0559  0.0199 -0.1356
  390loPI   C1B 6237   9.061   7.864   9.296  0.0887 -0.0032 -0.2260
  390loPI   C2B 6238   8.739   7.774   8.919  0.0189  0.0295  0.0090
  390loPI   C3B 6239   8.487   7.416   8.809  0.1884 -0.5109 -0.1109
  390loPI   C4B 6240   8.405   7.286   9.194  0.0469  0.0875  0.0790
  391loPI    C1 6241  13.870   1.669  11.041 -0.3915 -0.1469  0.1824
  391loPI    C2 6242  13.807   1.975  11.289 -0.2206  0.0011  0.0462
  391loPI    C3 6243  13.651   1.981  10.921  0.2688  0.2044 -0.1663
  391loPI   PO4 6244  14.155   1.666  10.999  0.0686  0.1141 -0.2153
  391loPI   GL1 6245  14.339   1.801  10.625 -0.3058 -0.1273  0.0073
  391loPI   GL2 6246  14.053   1.856  10.476  0.0070  0.0803  0.1111
  391loPI   C1A 6247  14.428   1.840  10.110 -0.0661 -0.3893 -0.1693
  391loPI   C2A 6248  14.592   1.758   9.684 -0.0363  0.1173  0.1680
  391loPI   C3A 6249  14.629   1.774   9.265 -0.2429  0.2151 -0.0974
  391loPI   C4A 6250  14.626   1.725   8.851  0.2288 -0.2314  0.1275
  391loPI   C5A 6251  14.663   1.689   8.409 -0.3034 -0.2499 -0.1025
  391loPI   C6A 6252  14.458   1.984   8.175 -0.1797  0.1983  0.1885
  391loPI   C1B 6253  13.989   1.641  10.079 -0.2332 -0.1526  0.1577
  391loPI   C2B 6254  14.071   1.666   9.734 -0.1805  0.3254 -0.1691
  391loPI   C3B 6255  14.084   1.632   9.257  0.1391 -0.2484 -0.0508
  391loPI   C4B 6256  14.074   1.525   8.803 -0.2959  0.2754  0.0937
  392loPI    C1 6257   4.174   3.358  10.640  0.1359  0.1434 -0.2798
  392loPI    C2 6258   4.320   3.372  11.012 -0.3130  0.3498 -0.1042
  392loPI    C3 6259   4.158   3.034  10.873  0.1282  0.1821 -0.2263
  392loPI   PO4 6260   4.198   3.639  10.555 -0.0914 -0.0100  0.0294
  392loPI   GL1 6261   4.188   3.728  10.202 -0.2412 -0.1073  0.0731
  392loPI   GL2 6262   4.233   4.073  10.182 -0.1222 -0.0171 -0.3989
  392loPI   C1A 6263   4.202   3.554   9.922 -0.2037  0.1013  0.2312
  392loPI   C2A 6264   4.131   3.588   9.471 -0.1134  0.0747  0.0852
  392loPI   C3A 6265   4.023   3.518   9.061  0.2203 -0.0273 -0.0854
  392loPI   C4A 6266   4.083   3.456   8.694 -0.0915 -0.3290 -0.0626
  392loPI   C5A 6267   4.130   3.591   8.403 -0.0572 -0.1445  0.1306
  392loPI   C6A 6268   4.227   3.564   7.963 -0.2726  0.3159 -0.0961
  392loPI   C1B 6269   4.172   4.047   9.754 -0.5698 -0.0607  0.1271
  392loPI   C2B 6270   4.159   4.121   9.336  0.0439  0.0116 -0.0196
  392loPI   C3B 6271   4.173   4.044   8.875  0.2576 -0.2086  0.0510
  392loPI   C4B 6272   4.175   4.086   8.467 -0.1690  0.1513 -0.1375
  393loPI    C1 6273   7.372   6.903  10.643 -0.1851 -0.1215 -0.0581
  393loPI    C2 6274   7.680   6.649  10.617  0.1497  0.2736 -0.0471
  393loPI    C3 6275   7.570   6.795  10.973 -0.2836 -0.1351 -0.0031
  393loPI   PO4 6276   7.160   6.736  10.427  0.0613  0.1762 -0.1798
  393loPI   GL1 6277   7.146   6.559   9.991  0.1532 -0.3042 -0.0028
  393loPI   GL2 6278   6.826   6.471   9.968 -0.3631  0.1384 -0.2227
  393loPI   C1A 6279   7.187   6.384   9.627 -0.0599  0.2775 -0.3235
  393loPI   C2A 6280   7.479   6.246   9.243  0.2020  0.0222  0.0157
  393loPI   C3A 6281   7.765   6.145   8.827 -0.3421  0.0035 -0.1656
  393loPI   C4A 6282   7.799   6.059   8.383  0.0555 -0.1458 -0.0307
  393loPI   C5A 6283   7.697   6.066   7.992 -0.0382 -0.3241 -0.2064
  393loPI   C6A 6284   7.810   6.090   7.582  0.0102 -0.2251 -0.0104
  393loPI   C1B 6285   6.540   6.106   9.689  0.0034 -0.1296  0.1114
  393loPI   C2B 6286   6.567   5.970   9.337  0.0790  0.2810  0.2190
  393loPI   C3B 6287   6.489   6.085   8.809  0.0943 -0.0357  0.1427
  393loPI   C4B 6288   6.305   5.868   8.420  0.1823 -0.2014  0.0893
  394loPI    C1 6289   0.891   3.738  11.383  0.0933  0.0844 -0.0220
  394loPI    C2 6290   0.959   4.025  11.653 -0.2581  0.1145  0.0382
  394loPI    C3 6291   0.890   3.650  11.773 -0.2432  0.0936 -0.0182
  394loPI   PO4 6292   0.765   3.845  11.213 -0.1883  0.0217 -0.2954
  394loPI   GL1 6293   1.035   4.130  10.763 -0.0007 -0.3831 -0.0450
  394loPI   GL2 6294   0.881   4.334  10.661 -0.3134  0.0480 -0.0633
  394loPI   C1A 6295   1.011   4.093  10.267  0.1646 -0.1774 -0.0372
  394loPI   C2A 6296   0.795   4.100   9.805 -0.0828 -0.0404 -0.1344
  394loPI   C3A 6297   0.843   4.050   9.393  0.2574 -0.0311  0.2723
  394loPI   C4A 6298   0.844   4.092   9.036 -0.0669  0.2800 -0.1311
  394loPI   C5A 6299   0.829   4.065   8.603  0.2775 -0.1041 -0.0599
  394loPI   C6A 6300   0.644   4.361   8.202 -0.0341  0.1251 -0.2564
  394loPI   C1B 6301   1.033   4.612  10.333 -0.1466  0.3712  0.0482
  394loPI   C2B 6302   0.958   4.558   9.867 -0.1742  0.1873  0.1063
  394loPI   C3B 6303   1.037   4.599   9.451 -0.1172 -0.0253  0.2957
  394loPI   C4B 6304   1.056   4.588   8.977  0.1135 -0.1752  0.1013
  395loPI    C1 6305  13.721   5.036  10.948 -0.1137 -0.1059  0.1280
  395loPI    C2 6306  13.537   4.706  10.815 -0.0863 -0.0351 -0.0909
  395loPI    C3 6307  13.344   5.057  10.816 -0.1909 -0.0874  0.3477
  395loPI   PO4 6308  13.921   5.051  10.820  0.0342 -0.2024 -0.0130
  395loPI   GL1 6309  13.987   5.100  10.432  0.0382  0.0903  0.0355
  395loPI   GL2 6310  13.643   5.194  10.375  0.0997  0.1692  0.1149
  395loPI   C1A 6311  13.995   5.027  10.024  0.0482  0.1063  0.2007
  395loPI   C2A 6312  13.988   4.963   9.619  0.1697 -0.1243  0.2770
  395loPI   C3A 6313  13.909   4.934   9.204 -0.3016 -0.0477  0.2930
  395loPI   C4A 6314  13.918   4.923   8.754 -0.2496  0.4547 -0.1017
  395loPI   C5A 6315  13.987   4.929   8.335  0.2269  0.1948  0.0682
  395loPI   C6A 6316  14.006   5.030   8.039  0.1249 -0.0488 -0.1042
  395loPI   C1B 6317  13.457   4.988   9.960  0.0388 -0.1688 -0.0406
  395loPI   C2B 6318  13.470   4.755   9.523  0.0579  0.1721  0.0909
  395loPI   C3B 6319  13.463   4.832   9.093 -0.1059  0.2698  0.1639
  395loPI   C4B 6320  13.405   4.714   8.596  0.2707 -0.2090 -0.1759
  396loPI    C1 6321  11.243  16.013  10.339  0.0134  0.0713 -0.0440
  396loPI    C2 6322  11.227  16.314  10.076 -0.2350  0.1582  0.0677
  396loPI    C3 6323  11.420  16.362  10.423 -0.1235  0.1285  0.0102
  396loPI   PO4 6324  11.149  15.771  10.151  0.1394  0.1505 -0.1179
  396loPI   GL1 6325  10.913  15.744   9.818  0.1450 -0.3265 -0.1282
  396loPI   GL2 6326  10.954  15.439   9.700  0.0660  0.1456  0.1724
  396loPI   C1A 6327  10.917  16.167   9.595  0.2744 -0.3605 -0.1557
  396loPI   C2A 6328  10.799  16.340   9.303  0.0757  0.1687 -0.4106
  396loPI   C3A 6329  10.864  16.381   8.929  0.3842 -0.0089 -0.2191
  396loPI   C4A 6330  10.801  16.071   8.532  0.0117  0.0236 -0.0397
  396loPI   C5A 6331  10.634  15.753   8.250 -0.2818 -0.0851 -0.0004
  396loPI   C6A 6332  10.481  15.663   7.757 -0.1803  0.2226  0.0167
  396loPI   C1B 6333  11.006  15.710   9.295  0.0727 -0.2087 -0.4166
  396loPI   C2B 6334  11.112  15.926   8.897 -0.2951 -0.0001  0.0737
  396loPI   C3B 6335  11.280  16.248   8.480 -0.0767  0.0347  0.2933
  396loPI   C4B 6336  11.183  16.504   8.082 -0.0406  0.0129  0.1435
  397loPI    C1 6337   6.968  15.067  10.795 -0.0035 -0.3255 -0.1849
  397loPI    C2 6338   6.682  15.315  10.926 -0.0366 -0.1796 -0.5232
  397loPI    C3 6339   6.619  14.920  10.925  0.0690 -0.2095  0.1510
  397loPI   PO4 6340   6.975  15.127  10.508 -0.1490 -0.1233  0.2458
  397loPI   GL1 6341   6.936  14.921  10.051 -0.1159  0.0696  0.0120
  397loPI   GL2 6342   6.662  15.218  10.079 -0.0099 -0.0360  0.0619
  397loPI   C1A 6343   6.805  15.089   9.611  0.0033 -0.0977  0.1205
  397loPI   C2A 6344   6.771  15.175   9.136  0.1147  0.0322  0.0289
  397loPI   C3A 6345   6.674  15.196   8.714 -0.3724 -0.0368 -0.0777
  397loPI   C4A 6346   6.622  15.092   8.226 -0.0046 -0.2373 -0.0151
  397loPI   C5A 6347   6.540  15.224   7.854 -0.1695 -0.1218 -0.5810
  397loPI   C6A 6348   6.870  15.338   7.505 -0.2232 -0.4931 -0.4999
  397loPI   C1B 6349   6.443  15.484   9.800  0.0072 -0.1133  0.0400
  397loPI   C2B 6350   6.430  15.505   9.426 -0.0959 -0.1126 -0.3161
  397loPI   C3B 6351   6.309  15.483   9.034  0.2389  0.0186 -0.1923
  397loPI   C4B 6352   6.277  15.575   8.640  0.3604 -0.1840  0.1457
  398loPI    C1 6353  16.820  12.182  10.953 -0.1422  0.2809  0.0284
  398loPI    C2 6354  17.220  12.197  10.932 -0.1340  0.0958  0.0370
  398loPI    C3 6355  17.038  12.217  11.287 -0.1322  0.1670  0.0341
  398loPI   PO4 6356  16.829  12.146  10.640 -0.0483 -0.0702 -0.3777
  398loPI   GL1 6357  16.897  12.377  10.210 -0.0936  0.1805 -0.0549
  398loPI   GL2 6358  16.684  12.404  10.096 -0.0985 -0.1771 -0.0470
  398loPI   C1A 6359  17.132  12.568   9.914  0.2043  0.1005  0.0212
  398loPI   C2A 6360  17.269  12.504   9.567 -0.0389 -0.0527  0.4352
  398loPI   C3A 6361  17.343  12.485   9.160 -0.1914 -0.0139 -0.0249
  398loPI   C4A 6362  17.330  12.470   8.693  0.2206 -0.0385 -0.3876
  398loPI   C5A 6363  17.472  12.612   8.360  0.2101  0.1439  0.0144
  398loPI   C6A 6364  17.429  12.793   8.003  0.2733 -0.0879  0.0625
  398loPI   C1B 6365  16.822  12.405   9.615 -0.1402  0.1042  0.1214
  398loPI   C2B 6366  16.878  12.348   9.166  0.3432 -0.0544 -0.1808
  398loPI   C3B 6367  16.853  12.380   8.758 -0.0589  0.2022  0.1369
  398loPI   C4B 6368  16.982  12.392   8.297  0.0372 -0.1520 -0.1587
  399loPI    C1 6369  16.502  13.110  11.031  0.3031  0.2337  0.0133
  399loPI    C2 6370  16.528  13.422  11.281  0.1181 -0.0224  0.3614
  399loPI    C3 6371  16.651  13.060  11.399  0.0167 -0.1507  0.0837
  399loPI   PO4 6372  16.720  13.161  10.805 -0.0268 -0.0525  0.4413
  399loPI   GL1 6373  16.772  13.205  10.391 -0.0683  0.0017 -0.1285
  399loPI   GL2 6374  16.876  12.890  10.341  0.3948  0.0559  0.0542
  399loPI   C1A 6375  16.955  13.378   9.996 -0.1707  0.1202  0.3023
  399loPI   C2A 6376  17.068  13.390   9.577 -0.1432 -0.0206  0.2116
  399loPI   C3A 6377  17.076  13.304   9.195 -0.3680  0.0880 -0.0833
  399loPI   C4A 6378  17.102  13.328   8.725  0.2861 -0.0781  0.2264
  399loPI   C5A 6379  17.019  13.344   8.291 -0.3560  0.0799 -0.4391
  399loPI   C6A 6380  16.880  13.153   8.018  0.1711 -0.0007  0.0151
  399loPI   C1B 6381  16.788  12.908   9.969 -0.3419  0.3312 -0.1146
  399loPI   C2B 6382  16.923  12.872   9.433 -0.3935 -0.3440  0.0790
  399loPI   C3B 6383  17.050  12.836   8.907  0.3038  0.2114 -0.3001
  399loPI   C4B 6384  17.039  12.908   8.458  0.0070 -0.0394  0.0369
  400loPI    C1 6385  15.937   8.612  10.492 -0.0414 -0.0738 -0.1024
  400loPI    C2 6386  15.670   8.686  10.780 -0.1200  0.1100 -0.2210
  400loPI    C3 6387  15.975   8.938  10.721 -0.0126 -0.0125 -0.1940
  400loPI   PO4 6388  15.764   8.571  10.248 -0.0086  0.2542 -0.0901
  400loPI   GL1 6389  15.644   8.682   9.826  0.1289  0.2930  0.1214
  400loPI   GL2 6390  15.466   8.976  10.038 -0.0317 -0.2214  0.4090
  400loPI   C1A 6391  15.386   8.691   9.392  0.5037 -0.1096  0.1544
  400loPI   C2A 6392  15.399   8.598   8.915 -0.1695  0.1227 -0.0259
  400loPI   C3A 6393  15.510   8.683   8.534  0.2317 -0.0061  0.0329
  400loPI   C4A 6394  15.705   8.629   8.178 -0.2378  0.1004 -0.2815
  400loPI   C5A 6395  16.137   8.415   8.201  0.2416 -0.0591 -0.1790
  400loPI   C6A 6396  16.188   8.211   7.740  0.0198  0.4611  0.2884
  400loPI   C1B 6397  15.503   9.181   9.629  0.2825 -0.2320 -0.0667
  400loPI   C2B 6398  15.554   9.147   9.192  0.2459  0.3632  0.1223
  400loPI   C3B 6399  15.613   9.151   8.760 -0.3053  0.1510 -0.0465
  400loPI   C4B 6400  15.576   9.165   8.423  0.1204  0.4661 -0.2344
  401loPI    C1 6401   9.502   5.184  10.083 -0.2334 -0.0542  0.1060
  401loPI    C2 6402   9.857   5.011  10.023 -0.2048  0.0606 -0.0635
  401loPI    C3 6403   9.617   4.880  10.315  0.0474  0.0912  0.1614
  401loPI   PO4 6404   9.463   5.294   9.871  0.0337  0.1783  0.1483
  401loPI   GL1 6405   9.673   5.352   9.485  0.2227 -0.1091 -0.1343
  401loPI   GL2 6406   9.909   5.469   9.549  0.0753 -0.1093  0.2226
  401loPI   C1A 6407   9.778   5.334   8.993  0.0510  0.3493  0.2265
  401loPI   C2A 6408   9.735   5.288   8.553  0.0428 -0.1165  0.2006
  401loPI   C3A 6409   9.399   5.300   8.359  0.0140  0.0937  0.1171
  401loPI   C4A 6410   9.316   5.294   7.936 -0.1670  0.0644  0.2357
  401loPI   C5A 6411   8.987   5.209   7.605 -0.0003 -0.4035 -0.0507
  401loPI   C6A 6412   9.020   5.164   7.181  0.1779  0.0298  0.0463
  401loPI   C1B 6413  10.165   5.574   9.218 -0.0801 -0.2818 -0.3342
  401loPI   C2B 6414  10.275   5.519   8.726 -0.2283  0.1370  0.0192
  401loPI   C3B 6415  10.556   5.639   8.397  0.0246 -0.2449 -0.2471
  401loPI   C4B 6416  10.381   5.417   8.001 -0.0522  0.0444 -0.2516
  402loPI    C1 6417  15.409   2.254  11.158  0.2123  0.0072 -0.0517
  402loPI    C2 6418  15.523   2.615  11.285 -0.1875  0.0631  0.1651
  402loPI    C3 6419  15.219   2.427  11.465 -0.1983 -0.2389 -0.1589
  402loPI   PO4 6420  15.475   2.329  10.863  0.1292  0.1488 -0.0129
  402loPI   GL1 6421  15.425   2.048  10.508 -0.3259  0.0059  0.1222
  402loPI   GL2 6422  15.338   1.792  10.528  0.0725 -0.0144  0.0030
  402loPI   C1A 6423  15.535   2.028  10.059 -0.1266 -0.1584 -0.0177
  402loPI   C2A 6424  15.536   2.029   9.678  0.1507  0.2942 -0.3773
  402loPI   C3A 6425  15.590   2.071   9.238  0.1389  0.2120  0.0331
  402loPI   C4A 6426  15.536   2.080   8.802 -0.1188  0.3166  0.0061
  402loPI   C5A 6427  15.744   2.027   8.461 -0.3671  0.1271  0.0250
  402loPI   C6A 6428  16.044   2.242   8.127  0.1914  0.3924  0.0455
  402loPI   C1B 6429  15.317   1.560  10.208  0.0482 -0.0189  0.3950
  402loPI   C2B 6430  15.420   1.575   9.800  0.2294  0.2513 -0.0826
  402loPI   C3B 6431  15.421   1.497   9.433 -0.2730 -0.0731 -0.1748
  402loPI   C4B 6432  15.540   1.572   9.029  0.0548  0.2785  0.1011
  403loPI    C1 6433  18.253  18.366  11.044 -0.1160  0.0913  0.2718
  403loPI    C2 6434  18.367  18.000  10.928 -0.1162  0.1180  0.1877
  403loPI    C3 6435  18.168  18.048  11.272 -0.3264  0.0097  0.0833
  403loPI   PO4 6436  18.256  18.475  10.895  0.3723  0.0953  0.2964
  403loPI   GL1 6437  18.514  18.586  10.515  0.0250  0.0500  0.0067
  403loPI   GL2 6438  18.256  18.804  10.441 -0.0362 -0.2613 -0.1124
  403loPI   C1A 6439  18.384  18.460  10.135  0.1583  0.3629 -0.4393
  403loPI   C2A 6440  18.291  18.435   9.745  0.3685 -0.0036  0.2246
  403loPI   C3A 6441  18.375  18.444   9.309 -0.1878 -0.3784  0.0898
  403loPI   C4A 6442  18.403  18.491   8.863  0.0059  0.1990 -0.2790
  403loPI   C5A 6443  18.659  18.295   8.544  0.2286  0.1185  0.3238
  403loPI   C6A 6444  18.558  17.938   8.283  0.1752 -0.1973 -0.0733
  403loPI   C1B 6445  18.023  18.780  10.020  0.1591 -0.2031  0.0478
  403loPI   C2B 6446  18.044  18.769   9.497 -0.0643 -0.0859 -0.2504
  403loPI   C3B 6447  17.949  18.867   9.169 -0.0557 -0.3954 -0.0453
  403loPI   C4B 6448  18.109  18.894   8.821 -0.1682  0.1939 -0.2907
  404loPI    C1 6449   7.606   9.975  10.185  0.0001 -0.2736 -0.0081
  404loPI    C2 6450   7.424   9.619  10.203 -0.2596 -0.1457 -0.0542
  404loPI    C3 6451   7.325   9.907  10.462 -0.1182 -0.0750 -0.0778
  404loPI   PO4 6452   7.617  10.072   9.926 -0.1850  0.1084  0.0598
  404loPI   GL1 6453   7.368  10.136   9.540 -0.0271  0.0047 -0.1748
  404loPI   GL2 6454   7.598  10.191   9.389 -0.0891 -0.3503  0.1117
  404loPI   C1A 6455   7.286   9.929   9.164 -0.0694  0.2039 -0.4746
  404loPI   C2A 6456   7.434   9.627   8.837  0.1997  0.0722 -0.3055
  404loPI   C3A 6457   7.612   9.642   8.370  0.0338  0.0094 -0.2106
  404loPI   C4A 6458   7.766   9.506   7.965 -0.0725 -0.0970  0.0687
  404loPI   C5A 6459   7.834   9.719   7.560 -0.1094 -0.2127 -0.1857
  404loPI   C6A 6460   7.973   9.787   7.128 -0.1452  0.1029 -0.0438
  404loPI   C1B 6461   7.585  10.420   9.032  0.0134 -0.0208  0.0636
  404loPI   C2B 6462   7.744  10.544   8.639 -0.1630 -0.1417 -0.3454
  404loPI   C3B 6463   7.709  10.337   8.257  0.3658 -0.2059  0.2647
  404loPI   C4B 6464   7.409  10.101   8.004 -0.1521 -0.1318  0.2911
  405loPI    C1 6465   5.729   0.432  10.811 -0.0419  0.2302  0.0671
  405loPI    C2 6466   5.541   0.671  11.071  0.0031  0.1284  0.1946
  405loPI    C3 6467   5.828   0.424  11.199  0.0901  0.1442  0.0322
  405loPI   PO4 6468   5.586   0.392  10.549 -0.0368  0.0404  0.0757
  405loPI   GL1 6469   5.497   0.346  10.197  0.0024 -0.2896  0.3269
  405loPI   GL2 6470   5.305   0.405   9.943  0.1587 -0.2178  0.0943
  405loPI   C1A 6471   5.764   0.567   9.958  0.0863  0.0148 -0.0398
  405loPI   C2A 6472   5.852   0.676   9.554 -0.0508  0.0148 -0.0558
  405loPI   C3A 6473   5.812   0.680   9.164  0.1448  0.2093  0.4718
  405loPI   C4A 6474   5.701   0.778   8.744 -0.0385 -0.1338 -0.1723
  405loPI   C5A 6475   5.772   0.670   8.340 -0.1884 -0.0030 -0.3162
  405loPI   C6A 6476   5.827   0.842   7.932 -0.0891  0.2061 -0.1100
  405loPI   C1B 6477   5.359   0.522   9.540  0.1934 -0.0352 -0.0168
  405loPI   C2B 6478   5.323   0.559   9.090 -0.0174  0.1282  0.1775
  405loPI   C3B 6479   5.297   0.483   8.644 -0.0718  0.1884 -0.1690
  405loPI   C4B 6480   5.417   0.377   8.268  0.1909  0.0101 -0.1110
  406loPI    C1 6481  14.334  12.075  10.483 -0.0613 -0.1103  0.1882
  406loPI    C2 6482  14.450  12.212  10.840  0.1868 -0.2009  0.1446
  406loPI    C3 6483  14.219  11.886  10.816 -0.1044 -0.0053  0.2332
  406loPI   PO4 6484  14.546  12.204  10.277 -0.1619  0.2941  0.2637
  406loPI   GL1 6485  14.584  12.039   9.678 -0.1817  0.0112  0.1280
  406loPI   GL2 6486  14.826  11.814   9.712  0.2535 -0.0545 -0.1942
  406loPI   C1A 6487  14.748  12.283   9.397 -0.1076  0.1067  0.1066
  406loPI   C2A 6488  14.987  12.242   8.992 -0.0877  0.0565  0.1687
  406loPI   C3A 6489  14.988  12.258   8.565 -0.0116  0.0777 -0.0182
  406loPI   C4A 6490  15.002  12.320   8.081  0.2294  0.0606  0.3033
  406loPI   C5A 6491  14.938  12.093   7.690  0.0641 -0.0957  0.0297
  406loPI   C6A 6492  14.840  11.867   7.404 -0.1370 -0.0444  0.0892
  406loPI   C1B 6493  14.810  11.827   9.221 -0.1663  0.2721 -0.0863
  406loPI   C2B 6494  14.821  11.826   8.709  0.2115  0.2447 -0.1968
  406loPI   C3B 6495  14.876  11.850   8.286  0.2630  0.0733  0.0056
  406loPI   C4B 6496  14.706  11.675   8.044 -0.0224  0.2892  0.4990
  407loPI    C1 6497   5.120   3.241  10.821  0.1006  0.1786  0.1868
  407loPI    C2 6498   5.520   3.253  10.829  0.1250 -0.2603 -0.0707
  407loPI    C3 6499   5.315   3.151  11.158  0.2016  0.2909  0.1593
  407loPI   PO4 6500   5.142   3.273  10.506  0.2301  0.1988  0.2987
  407loPI   GL1 6501   5.149   3.203  10.150 -0.0223 -0.1639 -0.2134
  407loPI   GL2 6502   5.180   3.522  10.080  0.0384  0.1706 -0.2498
  407loPI   C1A 6503   4.991   3.194   9.661  0.0736  0.0182  0.1838
  407loPI   C2A 6504   4.892   3.293   9.261 -0.1227  0.0037 -0.2551
  407loPI   C3A 6505   5.031   3.352   8.921  0.1822  0.1113  0.2440
  407loPI   C4A 6506   5.049   3.493   8.492 -0.0914 -0.2248 -0.0912
  407loPI   C5A 6507   5.010   3.251   8.161 -0.1853 -0.0786 -0.0588
  407loPI   C6A 6508   4.953   3.153   7.707 -0.0945  0.0315 -0.0374
  407loPI   C1B 6509   5.310   3.623   9.642 -0.0986 -0.1964 -0.0982
  407loPI   C2B 6510   5.285   3.606   9.278 -0.2840 -0.3478 -0.0313
  407loPI   C3B 6511   5.502   3.471   8.863 -0.0564 -0.3821 -0.1842
  407loPI   C4B 6512   6.001   3.593   8.823 -0.0095 -0.2736  0.0652
  408loPI    C1 6513   0.945   6.052  10.909  0.0900  0.0679 -0.0247
  408loPI    C2 6514   0.621   5.907  11.093 -0.0854 -0.0998 -0.4519
  408loPI    C3 6515   0.964   5.947  11.294 -0.4465  0.3853  0.0986
  408loPI   PO4 6516   0.932   5.990  10.640 -0.2002  0.0450 -0.2088
  408loPI   GL1 6517   0.948   5.941  10.263 -0.0554 -0.1240  0.2263
  408loPI   GL2 6518   1.273   6.056  10.215 -0.0762  0.0959 -0.0741
  408loPI   C1A 6519   0.893   6.006   9.818  0.1439  0.1725 -0.3787
  408loPI   C2A 6520   0.906   5.880   9.433  0.3197 -0.1397 -0.0384
  408loPI   C3A 6521   0.955   5.893   8.972  0.2073 -0.1193  0.1954
  408loPI   C4A 6522   0.904   5.879   8.523 -0.5937  0.1715 -0.2577
  408loPI   C5A 6523   1.134   5.909   8.196  0.4609 -0.1737 -0.2324
  408loPI   C6A 6524   1.182   6.109   7.811  0.0837  0.1336 -0.0152
  408loPI   C1B 6525   1.357   6.108   9.778  0.0010  0.1705  0.0724
  408loPI   C2B 6526   1.362   6.016   9.408  0.1671 -0.0663  0.0668
  408loPI   C3B 6527   1.485   5.997   8.917  0.2274 -0.0447  0.1322
  408loPI   C4B 6528   1.480   5.982   8.510  0.1050 -0.4008  0.2175
  409loPI    C1 6529   2.471  12.317  10.592  0.2811 -0.2397 -0.0400
  409loPI    C2 6530   2.436  12.575  10.288  0.2343 -0.0669  0.1103
  409loPI    C3 6531   2.143  12.312  10.363  0.1523  0.0307  0.1338
  409loPI   PO4 6532   2.743  12.201  10.525  0.3525 -0.0108  0.0848
  409loPI   GL1 6533   2.902  12.105  10.157  0.1539 -0.1181  0.1253
  409loPI   GL2 6534   2.577  12.177  10.027 -0.1412  0.1572  0.1901
  409loPI   C1A 6535   3.104  12.184   9.746 -0.4051  0.0662  0.2615
  409loPI   C2A 6536   3.073  12.066   9.314  0.0314  0.0424  0.1950
  409loPI   C3A 6537   2.941  12.216   8.927  0.2232 -0.0876  0.2855
  409loPI   C4A 6538   2.978  12.318   8.483  0.2804 -0.2210 -0.1076
  409loPI   C5A 6539   3.172  12.298   8.093 -0.2583  0.3760  0.2977
  409loPI   C6A 6540   3.521  12.367   7.885 -0.1008  0.0414 -0.2383
  409loPI   C1B 6541   2.631  11.997   9.615  0.2874 -0.3923 -0.1403
  409loPI   C2B 6542   2.444  12.039   9.188  0.2012  0.1871  0.1566
  409loPI   C3B 6543   2.372  12.152   8.871 -0.1123  0.1117  0.0866
  409loPI   C4B 6544   2.490  12.224   8.506 -0.0579 -0.0950  0.1770
  410loPI    C1 6545  16.932  17.241  10.879 -0.0695  0.0370  0.0972
  410loPI    C2 6546  17.073  17.580  11.038 -0.0348  0.0729 -0.0087
  410loPI    C3 6547  16.913  17.299  11.274  0.0366  0.1153  0.0913
  410loPI   PO4 6548  16.938  17.268  10.680  0.1264  0.0764 -0.1635
  410loPI   GL1 6549  16.837  17.279  10.352 -0.0139 -0.0875 -0.1407
  410loPI   GL2 6550  16.778  17.485  10.128 -0.0992 -0.0323 -0.1636
  410loPI   C1A 6551  17.091  17.092  10.026 -0.1883 -0.1552  0.0332
  410loPI   C2A 6552  17.159  17.072   9.556 -0.2845 -0.2221 -0.1283
  410loPI   C3A 6553  17.146  17.171   9.104  0.0731 -0.0426  0.1479
  410loPI   C4A 6554  17.053  17.053   8.658  0.0839  0.1614 -0.1358
  410loPI   C5A 6555  17.302  17.212   8.410 -0.1035 -0.1455  0.2257
  410loPI   C6A 6556  17.557  17.436   8.141 -0.1651  0.0640  0.3406
  410loPI   C1B 6557  16.842  17.538   9.641  0.0801 -0.1209  0.1385
  410loPI   C2B 6558  16.683  17.478   9.314 -0.1035 -0.0298 -0.2226
  410loPI   C3B 6559  16.712  17.485   8.856  0.0534 -0.3869 -0.0296
  410loPI   C4B 6560  16.821  17.452   8.458 -0.0540 -0.2091 -0.2074
  411loPI    C1 6561   0.905   9.060  10.736 -0.0141  0.0188 -0.1452
  411loPI    C2 6562   0.643   9.324  10.884 -0.0589 -0.0385 -0.1222
  411loPI    C3 6563   0.665   8.955  11.038  0.1315  0.0096 -0.0318
  411loPI   PO4 6564   0.887   9.118  10.414  0.2466  0.0800 -0.0407
  411loPI   GL1 6565   0.877   8.834  10.027 -0.1074 -0.0701  0.0976
  411loPI   GL2 6566   1.046   8.621  10.007 -0.1252  0.0173  0.0132
  411loPI   C1A 6567   1.044   8.942   9.621  0.3380  0.1404 -0.0730
  411loPI   C2A 6568   1.010   8.787   9.201  0.1606 -0.2673  0.2574
  411loPI   C3A 6569   0.955   8.514   8.915  0.2120  0.1830 -0.0049
  411loPI   C4A 6570   0.927   8.176   8.664 -0.0278 -0.1922  0.2883
  411loPI   C5A 6571   0.721   7.968   8.296  0.0263 -0.1173  0.0196
  411loPI   C6A 6572   0.616   7.554   8.160 -0.0249  0.0174  0.0109
  411loPI   C1B 6573   1.431   8.630   9.733  0.1643  0.1328 -0.1634
  411loPI   C2B 6574   1.387   8.458   9.363  0.1274 -0.1465 -0.0583
  411loPI   C3B 6575   1.402   8.381   8.955  0.2497 -0.0600  0.1790
  411loPI   C4B 6576   1.457   8.449   8.487  0.0770  0.0670 -0.3979
  412loPI    C1 6577   2.104   0.263  11.122 -0.1721  0.1076 -0.0791
  412loPI    C2 6578   2.314   0.114  11.427  0.2341  0.0409 -0.3832
  412loPI    C3 6579   2.355   0.499  11.326 -0.2911  0.1987 -0.0366
  412loPI   PO4 6580   2.153   0.124  10.878 -0.1873 -0.0672 -0.2847
  412loPI   GL1 6581   1.933   0.204  10.558 -0.1476 -0.2113  0.2417
  412loPI   GL2 6582   1.633   0.300  10.496 -0.1556 -0.0743  0.0486
  412loPI   C1A 6583   1.890   0.090  10.123 -0.0937  0.0852  0.0405
  412loPI   C2A 6584   1.816   0.093   9.655 -0.1009  0.0143 -0.1655
  412loPI   C3A 6585   1.912   0.188   9.176  0.2068 -0.1961 -0.1324
  412loPI   C4A 6586   1.878   0.281   8.752  0.0676 -0.1925  0.1144
  412loPI   C5A 6587   2.190   0.520   8.449  0.0966 -0.1258  0.1515
  412loPI   C6A 6588   2.568   0.678   8.492  0.3727  0.0336  0.1220
  412loPI   C1B 6589   1.509   0.389  10.007 -0.1941 -0.0463  0.0790
  412loPI   C2B 6590   1.483   0.497   9.613  0.1577  0.2323  0.1090
  412loPI   C3B 6591   1.484   0.483   9.151  0.2315 -0.2186  0.1922
  412loPI   C4B 6592   1.446   0.536   8.700  0.2368  0.0661 -0.2672
  413loPI    C1 6593  17.044   5.204  10.958  0.1738  0.1600 -0.0953
  413loPI    C2 6594  17.040   5.009  11.307  0.0852 -0.1517 -0.2666
  413loPI    C3 6595  16.888   5.378  11.282  0.2254 -0.0690  0.0550
  413loPI   PO4 6596  17.330   5.030  10.868  0.3136 -0.1969  0.1786
  413loPI   GL1 6597  17.626   5.059  10.474 -0.0943  0.2253  0.1728
  413loPI   GL2 6598  17.627   5.364  10.591  0.4174  0.0128  0.0071
  413loPI   C1A 6599  17.641   5.014  10.045  0.0524  0.0741  0.1084
  413loPI   C2A 6600  17.722   5.064   9.525  0.1807  0.0319 -0.1051
  413loPI   C3A 6601  17.645   5.086   9.093  0.1345  0.0980 -0.0722
  413loPI   C4A 6602  17.737   5.048   8.644  0.3524 -0.0190 -0.2515
  413loPI   C5A 6603  17.847   5.154   8.203 -0.1748 -0.1531 -0.2045
  413loPI   C6A 6604  17.722   5.151   7.774 -0.2604 -0.2119  0.2426
  413loPI   C1B 6605  17.394   5.463  10.152  0.0781 -0.0508 -0.2837
  413loPI   C2B 6606  17.335   5.361   9.782  0.0965  0.0869 -0.2248
  413loPI   C3B 6607  17.286   5.447   9.329 -0.2216 -0.1614 -0.1237
  413loPI   C4B 6608  17.260   5.414   8.866  0.2791  0.3886  0.3543
  414loPI    C1 6609   3.599  14.916  10.944 -0.2635  0.0775 -0.2983
  414loPI    C2 6610   3.544  15.236  11.177  0.2789  0.0039 -0.0521
  414loPI    C3 6611   3.290  14.927  11.198 -0.0482  0.2679 -0.0384
  414loPI   PO4 6612   3.640  15.077  10.703  0.0143 -0.0559 -0.1686
  414loPI   GL1 6613   3.658  15.305  10.290 -0.0709  0.1659  0.1903
  414loPI   GL2 6614   3.542  14.937  10.251  0.1897 -0.0305  0.0911
  414loPI   C1A 6615   3.557  15.252   9.893  0.0856 -0.0445  0.1778
  414loPI   C2A 6616   3.425  15.131   9.451  0.2841  0.0738 -0.1845
  414loPI   C3A 6617   3.360  15.112   8.935  0.0380 -0.2134 -0.0632
  414loPI   C4A 6618   3.308  15.151   8.468  0.1060  0.3808  0.0477
  414loPI   C5A 6619   3.266  15.301   8.048  0.2242 -0.0270  0.0710
  414loPI   C6A 6620   3.381  15.073   7.720  0.1140 -0.1467  0.2697
  414loPI   C1B 6621   3.326  14.767   9.812  0.1721 -0.2248 -0.0178
  414loPI   C2B 6622   3.206  14.672   9.417 -0.1257  0.2379  0.0721
  414loPI   C3B 6623   3.265  14.650   9.000  0.0941 -0.3158 -0.0340
  414loPI   C4B 6624   3.304  14.558   8.590 -0.1841 -0.3148  0.2955
  415loPI    C1 6625  18.259  13.939  11.044  0.1007  0.0516  0.1120
  415loPI    C2 6626  18.284  13.703  11.367  0.1550 -0.0802  0.0126
  415loPI    C3 6627  18.466  14.059  11.365  0.0570 -0.0281  0.1708
  415loPI   PO4 6628  18.165  13.690  10.858  0.1739  0.3181 -0.0854
  415loPI   GL1 6629  18.058  13.707  10.475 -0.1284 -0.3212  0.1834
  415loPI   GL2 6630  17.728  13.859  10.426 -0.0501  0.0607 -0.4266
  415loPI   C1A 6631  17.935  13.725  10.012 -0.2928 -0.1565 -0.4273
  415loPI   C2A 6632  18.108  13.600   9.577 -0.1819  0.0214  0.1775
  415loPI   C3A 6633  18.135  13.642   9.147 -0.3194  0.0437  0.0066
  415loPI   C4A 6634  18.226  13.679   8.687  0.2425 -0.2309 -0.1934
  415loPI   C5A 6635  18.359  13.621   8.261  0.3292  0.3028 -0.4307
  415loPI   C6A 6636  18.648  13.768   7.974  0.0253  0.0981  0.2060
  415loPI   C1B 6637  17.548  14.067  10.091  0.0233 -0.0400 -0.1061
  415loPI   C2B 6638  17.618  13.981   9.620  0.2331 -0.3195  0.3560
  415loPI   C3B 6639  17.778  14.038   9.196 -0.2295  0.2648  0.2330
  415loPI   C4B 6640  17.747  14.005   8.688 -0.2356  0.2098  0.0931
  416loPI    C1 6641   1.782  11.283  10.523 -0.1685  0.0551  0.2400
  416loPI    C2 6642   2.085  11.510  10.652  0.0082 -0.2084  0.2973
  416loPI    C3 6643   1.764  11.453  10.884  0.0436 -0.1650  0.3572
  416loPI   PO4 6644   1.651  11.462  10.304  0.0738 -0.2704 -0.1578
  416loPI   GL1 6645   1.317  11.582  10.149  0.2891 -0.1648  0.1783
  416loPI   GL2 6646   1.423  11.820  10.060 -0.0318  0.1182 -0.2634
  416loPI   C1A 6647   1.070  11.536   9.845  0.0791 -0.0451 -0.2853
  416loPI   C2A 6648   1.073  11.432   9.437 -0.2435  0.0933 -0.1305
  416loPI   C3A 6649   0.973  11.296   9.045 -0.1964  0.3487 -0.0680
  416loPI   C4A 6650   0.772  11.078   8.674 -0.0530  0.2244  0.1253
  416loPI   C5A 6651   0.712  10.933   8.235  0.2467  0.1684  0.1839
  416loPI   C6A 6652   1.075  11.195   8.237  0.1613 -0.4663 -0.1652
  416loPI   C1B 6653   1.570  11.687   9.563  0.0875 -0.0909  0.2219
  416loPI   C2B 6654   1.417  11.779   9.195 -0.0485 -0.0159 -0.0679
  416loPI   C3B 6655   0.944  11.732   8.888  0.0569 -0.2898  0.0624
  416loPI   C4B 6656   0.932  11.698   8.395  0.1437 -0.2020  0.2610
  417loPI    C1 6657  10.878   6.206  10.440 -0.2170  0.0833  0.2733
  417loPI    C2 6658  11.112   5.883  10.479  0.1388  0.3154  0.1192
  417loPI    C3 6659  11.098   6.157  10.771  0.2184  0.4017  0.0428
  417loPI   PO4 6660  11.016   6.278  10.213 -0.1083 -0.1089  0.1647
  417loPI   GL1 6661  10.840   6.507   9.829 -0.0269  0.3249  0.3182
  417loPI   GL2 6662  10.527   6.616   9.794 -0.1479  0.2914  0.0028
  417loPI   C1A 6663  10.851   6.225   9.396  0.0438  0.3179  0.1058
  417loPI   C2A 6664  10.907   5.881   9.142 -0.1110 -0.1044  0.0422
  417loPI   C3A 6665  10.755   5.509   8.910  0.1747 -0.1242 -0.0637
  417loPI   C4A 6666  10.738   5.185   8.589 -0.2496 -0.0396  0.1229
  417loPI   C5A 6667  10.631   4.961   8.215 -0.3064  0.1305 -0.0325
  417loPI   C6A 6668  10.258   4.658   8.133  0.2436  0.1111  0.1088
  417loPI   C1B 6669  10.402   6.486   9.345 -0.1854 -0.0768 -0.5494
  417loPI   C2B 6670  10.421   6.493   8.881 -0.0621 -0.0367  0.0616
  417loPI   C3B 6671  10.456   6.511   8.426  0.0180  0.1191 -0.2657
  417loPI   C4B 6672  10.657   6.561   8.013 -0.0245  0.1947 -0.0809
  418loPI    C1 6673  15.449  17.379  11.194 -0.0319  0.1496  0.0882
  418loPI    C2 6674  15.112  17.271  11.379  0.0653 -0.2601  0.0354
  418loPI    C3 6675  15.466  17.191  11.546  0.1423  0.0246  0.0144
  418loPI   PO4 6676  15.419  17.558  11.082 -0.0435 -0.0210  0.1523
  418loPI   GL1 6677  15.226  17.759  10.603 -0.1469  0.1068  0.2793
  418loPI   GL2 6678  15.067  17.526  10.296 -0.2041  0.0598 -0.0085
  418loPI   C1A 6679  15.239  18.061  10.237  0.1607 -0.0483 -0.1755
  418loPI   C2A 6680  15.263  18.126   9.799  0.0493  0.1530 -0.2329
  418loPI   C3A 6681  15.359  18.078   9.422 -0.1048 -0.1032 -0.2756
  418loPI   C4A 6682  15.503  18.112   8.913 -0.2235  0.0104 -0.1419
  418loPI   C5A 6683  15.425  18.022   8.389 -0.2431 -0.0803 -0.0014
  418loPI   C6A 6684  15.698  18.056   7.977 -0.1236  0.3163  0.0627
  418loPI   C1B 6685  15.247  17.657   9.911  0.4149 -0.0592  0.0799
  418loPI   C2B 6686  15.302  17.503   9.408 -0.1894 -0.1241 -0.4097
  418loPI   C3B 6687  15.308  17.526   8.965 -0.3048 -0.0292  0.2423
  418loPI   C4B 6688  15.460  17.548   8.533 -0.1076  0.0840 -0.1545
  419loPI    C1 6689   0.570   1.359  10.896  0.0639  0.0036  0.1217
  419loPI    C2 6690   0.488   1.362  11.287  0.0651 -0.1060  0.1234
  419loPI    C3 6691   0.785   1.588  11.143  0.1058 -0.1135  0.1949
  419loPI   PO4 6692   0.388   1.419  10.785  0.3548 -0.2551  0.1250
  419loPI   GL1 6693   0.348   1.562  10.315 -0.1496  0.0608 -0.4347
  419loPI   GL2 6694   0.791   1.607  10.113 -0.0179  0.0877  0.0779
  419loPI   C1A 6695   0.261   1.588   9.863  0.0462  0.0461  0.0603
  419loPI   C2A 6696   0.344   1.586   9.463 -0.1361 -0.0828  0.0396
  419loPI   C3A 6697   0.313   1.578   9.008  0.0136 -0.0773  0.0070
  419loPI   C4A 6698   0.454   1.392   8.571  0.1453  0.0384 -0.0396
  419loPI   C5A 6699   0.890   1.162   8.544 -0.1639 -0.1404 -0.0725
  419loPI   C6A 6700   1.337   0.975   8.476 -0.0139  0.2581  0.2249
  419loPI   C1B 6701   0.756   1.759   9.698  0.2281 -0.1479  0.3294
  419loPI   C2B 6702   0.802   1.719   9.216  0.0383  0.1187 -0.0324
  419loPI   C3B 6703   0.767   1.716   8.789 -0.0105 -0.1494  0.0866
  419loPI   C4B 6704   0.861   1.752   8.380  0.1957  0.0685  0.0467
  420loPI    C1 6705  13.533   2.482  11.039 -0.0739 -0.0693 -0.0277
  420loPI    C2 6706  13.631   2.837  11.197 -0.3864  0.0066  0.0030
  420loPI    C3 6707  13.647   2.506  11.422  0.4217 -0.0919 -0.1669
  420loPI   PO4 6708  13.578   2.498  10.884  0.0148 -0.3300  0.2989
  420loPI   GL1 6709  13.657   2.381  10.529  0.0419  0.3810 -0.1640
  420loPI   GL2 6710  13.399   2.536  10.442 -0.0039 -0.0202  0.0133
  420loPI   C1A 6711  13.800   2.643  10.197 -0.2728 -0.0380 -0.0317
  420loPI   C2A 6712  13.807   2.573   9.726 -0.2109  0.1022  0.1769
  420loPI   C3A 6713  13.891   2.516   9.301 -0.1424  0.0001  0.0931
  420loPI   C4A 6714  13.909   2.430   8.884  0.0500 -0.2031 -0.1711
  420loPI   C5A 6715  14.015   2.529   8.525 -0.0132  0.0274  0.0433
  420loPI   C6A 6716  14.063   2.835   8.129 -0.3032 -0.0614  0.3131
  420loPI   C1B 6717  13.385   2.469   9.989 -0.0290  0.1760 -0.0384
  420loPI   C2B 6718  13.132   2.423   9.612  0.0549 -0.1588 -0.2933
  420loPI   C3B 6719  13.433   2.428   9.367  0.0885  0.4452 -0.3440
  420loPI   C4B 6720  13.477   2.294   9.011 -0.4036  0.3447 -0.0352
  421loPI    C1 6721  14.628  17.656  10.877  0.1252  0.0605 -0.0792
  421loPI    C2 6722  14.936  17.721  11.125  0.1283 -0.1546 -0.0240
  421loPI    C3 6723  14.659  17.448  11.218 -0.1230  0.0917 -0.0360
  421loPI   PO4 6724  14.729  17.605  10.670 -0.0065 -0.0697 -0.1772
  421loPI   GL1 6725  14.800  18.033  10.460  0.2001  0.1128 -0.1018
  421loPI   GL2 6726  14.929  18.292  10.597 -0.1022  0.1602  0.3340
  421loPI   C1A 6727  14.806  18.006   9.964 -0.2650  0.0735 -0.1485
  421loPI   C2A 6728  14.855  17.924   9.537 -0.1065 -0.2335  0.2252
  421loPI   C3A 6729  14.958  17.821   9.152  0.0434  0.0167  0.1790
  421loPI   C4A 6730  15.053  17.920   8.728 -0.1448 -0.0127 -0.0586
  421loPI   C5A 6731  14.926  18.238   8.368  0.0050 -0.0256  0.0842
  421loPI   C6A 6732  15.140  18.631   8.351  0.1492 -0.0368 -0.0712
  421loPI   C1B 6733  14.985  18.472  10.106  0.3938  0.1558  0.4752
  421loPI   C2B 6734  14.955  18.485   9.650 -0.1337 -0.0453  0.4396
  421loPI   C3B 6735  15.060  18.403   9.190  0.0044 -0.0899  0.0400
  421loPI   C4B 6736  15.140  18.400   8.801  0.1571 -0.1151 -0.0793
  422loPI    C1 6737   3.645  17.454  10.778 -0.3495  0.0867  0.0393
  422loPI    C2 6738   3.425  17.266  11.055 -0.2885  0.0162  0.0402
  422loPI    C3 6739   3.765  17.450  11.160 -0.2152 -0.0930 -0.0035
  422loPI   PO4 6740   3.657  17.295  10.570 -0.1072 -0.2784  0.0600
  422loPI   GL1 6741   3.843  17.394  10.171 -0.2164 -0.3799  0.1642
  422loPI   GL2 6742   3.851  17.715  10.041  0.0060 -0.2346 -0.1667
  422loPI   C1A 6743   3.832  17.204   9.843 -0.3481  0.1152  0.0228
  422loPI   C2A 6744   3.907  17.204   9.332  0.2106 -0.1791  0.1788
  422loPI   C3A 6745   4.019  17.193   9.005 -0.1126  0.0689 -0.0010
  422loPI   C4A 6746   3.915  17.296   8.533 -0.0914  0.2257 -0.1830
  422loPI   C5A 6747   3.757  17.281   8.161 -0.0232  0.2962  0.2515
  422loPI   C6A 6748   3.632  17.649   7.931 -0.1155 -0.0973  0.1563
  422loPI   C1B 6749   3.973  17.640   9.572 -0.0724 -0.4361  0.0629
  422loPI   C2B 6750   4.177  17.628   9.135  0.1551 -0.0372 -0.0083
  422loPI   C3B 6751   3.973  17.727   8.714 -0.0872  0.1662 -0.0810
  422loPI   C4B 6752   3.894  17.743   8.310 -0.2519  0.3544  0.0684
  423loPI    C1 6753   4.604   0.104  10.916 -0.0438 -0.0726 -0.1314
  423loPI    C2 6754   4.553  -0.231  11.129  0.1704  0.0115  0.0559
  423loPI    C3 6755   4.762   0.073  11.282 -0.0977  0.2672 -0.0769
  423loPI   PO4 6756   4.688   0.003  10.650 -0.1101 -0.1079 -0.0259
  423loPI   GL1 6757   4.670   0.032  10.230 -0.1970  0.0087 -0.3144
  423loPI   GL2 6758   4.962   0.108  10.100 -0.1863 -0.2228  0.0100
  423loPI   C1A 6759   4.638  -0.097   9.789 -0.0089 -0.2045 -0.2419
  423loPI   C2A 6760   4.625  -0.119   9.372  0.2632  0.0336  0.1733
  423loPI   C3A 6761   4.661  -0.096   8.951  0.0187  0.0368 -0.2486
  423loPI   C4A 6762   4.695  -0.089   8.464 -0.1503 -0.1798  0.1269
  423loPI   C5A 6763   4.485   0.045   8.080  0.2034 -0.2494  0.2781
  423loPI   C6A 6764   4.273  -0.074   7.631  0.0836  0.0818  0.1004
  423loPI   C1B 6765   4.749   0.391   9.670 -0.1388  0.2218 -0.0967
  423loPI   C2B 6766   4.772   0.386   9.184 -0.0352 -0.0901 -0.0060
  423loPI   C3B 6767   4.821   0.349   8.789 -0.1064  0.0405  0.0994
  423loPI   C4B 6768   4.874   0.357   8.304  0.1721 -0.1706  0.2306
  424loPI    C1 6769   9.906  10.205  10.081 -0.2133  0.0162 -0.1253
  424loPI    C2 6770  10.053   9.833  10.074 -0.1106  0.0560 -0.1078
  424loPI    C3 6771   9.945   9.999  10.422 -0.0838  0.0710 -0.1066
  424loPI   PO4 6772   9.897  10.236   9.827 -0.2231 -0.3036 -0.0180
  424loPI   GL1 6773  10.089  10.272   9.488  0.1029  0.0865 -0.4553
  424loPI   GL2 6774   9.975  10.578   9.485  0.1454 -0.0440  0.1511
  424loPI   C1A 6775  10.407  10.000   9.308 -0.1536 -0.1846  0.3482
  424loPI   C2A 6776  10.389   9.641   9.048 -0.2144 -0.3289  0.0786
  424loPI   C3A 6777  10.474   9.679   8.616  0.2522 -0.2364  0.0385
  424loPI   C4A 6778  10.587   9.546   8.128  0.0890  0.0362 -0.5727
  424loPI   C5A 6779  10.323   9.511   7.841 -0.3117 -0.0693  0.2527
  424loPI   C6A 6780  10.325   9.791   7.500  0.1026 -0.3803 -0.0749
  424loPI   C1B 6781  10.147  10.970   9.343 -0.2434  0.1126 -0.1988
  424loPI   C2B 6782  10.502  10.992   9.114 -0.1066  0.2321 -0.1142
  424loPI   C3B 6783  10.835  10.668   8.789  0.1304 -0.0884 -0.0785
  424loPI   C4B 6784  10.794  10.759   8.337 -0.0975 -0.3474 -0.0119
  425loPI    C1 6785   4.608  15.474  10.733  0.0726 -0.0303 -0.1313
  425loPI    C2 6786   4.902  15.284  10.927  0.0657  0.1169  0.0264
  425loPI    C3 6787   4.597  15.443  11.132 -0.1235 -0.0314 -0.1354
  425loPI   PO4 6788   4.725  15.684  10.593 -0.2038  0.3194 -0.2230
  425loPI   GL1 6789   4.655  15.561  10.186  0.0692 -0.1198  0.2237
  425loPI   GL2 6790   4.338  15.627  10.213  0.0038  0.0360  0.2659
  425loPI   C1A 6791   4.565  15.384   9.763  0.1398 -0.2459 -0.0373
  425loPI   C2A 6792   4.441  15.414   9.398  0.1601  0.2845  0.3085
  425loPI   C3A 6793   4.333  15.424   8.950  0.2440  0.2256 -0.0696
  425loPI   C4A 6794   4.274  15.462   8.493  0.0408 -0.0501  0.3062
  425loPI   C5A 6795   4.244  15.493   7.999  0.0118 -0.2406  0.0103
  425loPI   C6A 6796   4.362  15.660   7.600 -0.2132  0.1400  0.1608
  425loPI   C1B 6797   4.061  15.314   9.889 -0.4952  0.2914 -0.2492
  425loPI   C2B 6798   3.942  15.305   9.480  0.2474 -0.2803  0.0487
  425loPI   C3B 6799   3.881  15.333   9.048 -0.0209 -0.1023  0.3731
  425loPI   C4B 6800   3.822  15.228   8.703  0.0912 -0.0146 -0.0899
  426loPI    C1 6801   4.139   8.986  10.414 -0.2560  0.5408 -0.0408
  426loPI    C2 6802   3.965   8.952  10.773 -0.2525 -0.0395 -0.0849
  426loPI    C3 6803   4.358   9.017  10.747 -0.2730  0.1297  0.0143
  426loPI   PO4 6804   3.955   9.144  10.266  0.2479 -0.0266 -0.2162
  426loPI   GL1 6805   3.724   8.911   9.899  0.1673 -0.2814  0.1238
  426loPI   GL2 6806   3.566   8.666   9.927  0.4569 -0.2775  0.0710
  426loPI   C1A 6807   3.905   8.725   9.498 -0.3267  0.0968  0.1129
  426loPI   C2A 6808   3.842   8.769   9.037 -0.1938 -0.0038  0.0119
  426loPI   C3A 6809   3.669   8.815   8.645 -0.0446  0.2404  0.3160
  426loPI   C4A 6810   3.806   8.739   8.124  0.0142  0.0165 -0.0933
  426loPI   C5A 6811   3.612   8.549   7.910 -0.0699 -0.0067  0.0564
  426loPI   C6A 6812   3.686   8.386   7.543 -0.1503  0.1348  0.1824
  426loPI   C1B 6813   3.421   8.739   9.508  0.2004 -0.1208 -0.0506
  426loPI   C2B 6814   3.315   8.654   9.007  0.0694 -0.0217 -0.0615
  426loPI   C3B 6815   3.248   8.751   8.516  0.2683 -0.0798 -0.1328
  426loPI   C4B 6816   3.163   8.626   8.152 -0.3596 -0.0917  0.2221
  427loPI    C1 6817  10.046   7.513  10.152  0.2056 -0.0854 -0.0399
  427loPI    C2 6818  10.130   7.224  10.416 -0.2420 -0.1702  0.0175
  427loPI    C3 6819  10.022   7.587  10.545 -0.0375 -0.0829 -0.0537
  427loPI   PO4 6820  10.171   7.518   9.969 -0.3968  0.0050  0.0953
  427loPI   GL1 6821  10.240   7.721   9.711  0.0943  0.1922 -0.1179
  427loPI   GL2 6822  10.537   7.777   9.670  0.0069 -0.0660  0.4615
  427loPI   C1A 6823  10.421   7.414   9.350  0.0586 -0.1273  0.0870
  427loPI   C2A 6824  10.666   7.408   8.953  0.0048  0.0784 -0.2684
  427loPI   C3A 6825  10.683   7.422   8.422  0.1747 -0.1021  0.0145
  427loPI   C4A 6826  10.695   7.509   8.009  0.0854  0.1387 -0.0674
  427loPI   C5A 6827  10.974   7.598   7.666  0.1917  0.2276  0.0810
  427loPI   C6A 6828  11.340   7.705   7.477  0.0587  0.0745 -0.1196
  427loPI   C1B 6829  10.920   7.783   9.388 -0.0053 -0.0148  0.0647
  427loPI   C2B 6830  11.098   7.744   8.954  0.0270  0.2493  0.0991
  427loPI   C3B 6831  10.909   7.901   8.544  0.0947  0.0991 -0.1197
  427loPI   C4B 6832  11.287   8.025   8.236 -0.2609 -0.0386 -0.0055
  428loPI    C1 6833   5.640  12.186  10.798  0.0718  0.1648  0.0880
  428loPI    C2 6834   5.450  12.525  10.893  0.1224  0.2058  0.0429
  428loPI    C3 6835   5.443  12.215  11.145  0.0176  0.2161  0.0531
  428loPI   PO4 6836   5.567  12.120  10.551 -0.3992  0.3627  0.0986
  428loPI   GL1 6837   5.492  12.248  10.196 -0.1170 -0.1444  0.1860
  428loPI   GL2 6838   5.299  12.471  10.097  0.0982  0.0917  0.3413
  428loPI   C1A 6839   5.873  12.409   9.923  0.0632  0.4346 -0.1014
  428loPI   C2A 6840   6.099  12.595   9.621 -0.0458 -0.2457  0.0834
  428loPI   C3A 6841   5.984  12.573   9.155  0.2774 -0.3153  0.0179
  428loPI   C4A 6842   6.044  12.622   8.719  0.0356  0.0967  0.3859
  428loPI   C5A 6843   5.823  12.642   8.422 -0.0396  0.2146 -0.2555
  428loPI   C6A 6844   5.476  12.593   8.101 -0.1197  0.1362  0.0129
  428loPI   C1B 6845   5.385  12.395   9.678  0.1510  0.2075  0.2175
  428loPI   C2B 6846   5.514  12.382   9.318  0.0801  0.1177  0.1323
  428loPI   C3B 6847   5.536  12.439   8.921 -0.0700  0.1591  0.0044
  428loPI   C4B 6848   5.381  12.413   8.563 -0.0409  0.1777 -0.0991
  429loPI    C1 6849   9.166  11.489  10.351  0.1639 -0.0658 -0.0537
  429loPI    C2 6850   9.092  11.815  10.571  0.0086  0.0542 -0.2793
  429loPI    C3 6851   9.468  11.722  10.470  0.0448  0.2241 -0.3036
  429loPI   PO4 6852   9.064  11.564  10.097 -0.1124 -0.3942  0.0551
  429loPI   GL1 6853   9.039  11.424   9.673  0.2472 -0.0535 -0.1946
  429loPI   GL2 6854   9.287  11.191   9.701  0.0005 -0.0316 -0.2714
  429loPI   C1A 6855   8.930  11.740   9.394  0.2706 -0.1701  0.0258
  429loPI   C2A 6856   9.006  11.923   9.000 -0.2817 -0.0034 -0.2668
  429loPI   C3A 6857   9.011  11.647   8.648  0.1663 -0.1053  0.1871
  429loPI   C4A 6858   8.989  11.453   8.298 -0.1433  0.1771  0.1219
  429loPI   C5A 6859   9.066  11.480   7.861  0.0604 -0.0416 -0.5903
  429loPI   C6A 6860   9.231  11.597   7.493  0.3831  0.1357  0.2317
  429loPI   C1B 6861   9.165  11.232   9.240  0.1572 -0.0438  0.1907
  429loPI   C2B 6862   9.209  11.236   8.805  0.2341 -0.2388 -0.0753
  429loPI   C3B 6863   9.285  11.100   8.462 -0.1557  0.0382 -0.1495
  429loPI   C4B 6864   9.067  10.946   8.114 -0.0997  0.1237  0.1462
  430loPI    C1 6865  16.064   2.043  10.934  0.0809  0.0373 -0.1635
  430loPI    C2 6866  15.888   2.160  11.273  0.0484  0.2161 -0.2407
  430loPI    C3 6867  16.281   2.086  11.267 -0.0209 -0.1947 -0.0652
  430loPI   PO4 6868  15.908   2.067  10.725  0.1774 -0.0141  0.2379
  430loPI   GL1 6869  16.021   2.246  10.425  0.2819 -0.2298  0.3444
  430loPI   GL2 6870  16.063   2.530  10.366  0.3199 -0.1389 -0.0567
  430loPI   C1A 6871  16.039   2.083   9.981 -0.1985 -0.0544 -0.1662
  430loPI   C2A 6872  16.174   2.065   9.635  0.0355  0.0614  0.2678
  430loPI   C3A 6873  16.133   2.222   9.113 -0.1959  0.2420  0.1736
  430loPI   C4A 6874  16.112   2.268   8.698 -0.0556  0.0402  0.3555
  430loPI   C5A 6875  16.477   2.221   8.395  0.1758 -0.0745  0.0148
  430loPI   C6A 6876  16.708   2.413   8.587  0.0415  0.0568  0.1370
  430loPI   C1B 6877  16.241   2.633   9.971  0.2848  0.0794  0.1614
  430loPI   C2B 6878  16.283   2.701   9.568 -0.4192  0.4416 -0.2068
  430loPI   C3B 6879  16.201   2.722   9.166  0.1601  0.2868  0.3206
  430loPI   C4B 6880  16.165   2.807   8.770  0.0614 -0.0285 -0.0773
  431loPI    C1 6881  10.231  11.357  10.303  0.0792 -0.2003  0.0388
  431loPI    C2 6882  10.204  11.267  10.692  0.0563  0.0900  0.1062
  431loPI    C3 6883  10.409  11.590  10.575 -0.1608  0.1546 -0.1027
  431loPI   PO4 6884  10.437  11.154  10.057 -0.0647  0.4667 -0.2275
  431loPI   GL1 6885  10.723  11.026   9.740  0.0156  0.2806  0.0037
  431loPI   GL2 6886  10.583  10.842   9.596  0.1843  0.1855 -0.0132
  431loPI   C1A 6887  10.793  11.312   9.437 -0.0411 -0.0153  0.1041
  431loPI   C2A 6888  11.182  11.407   9.371 -0.0347 -0.0787 -0.1216
  431loPI   C3A 6889  11.426  11.559   9.029 -0.0031 -0.0564  0.1921
  431loPI   C4A 6890  11.380  11.783   8.629  0.0568 -0.1144 -0.3480
  431loPI   C5A 6891  11.447  11.955   8.329 -0.1883 -0.1474 -0.0353
  431loPI   C6A 6892  11.421  11.868   7.851  0.2487 -0.1416  0.3953
  431loPI   C1B 6893  10.913  10.775   9.271 -0.2880  0.2101 -0.1029
  431loPI   C2B 6894  11.151  11.109   8.983 -0.0444 -0.1491 -0.1784
  431loPI   C3B 6895  11.303  11.207   8.585 -0.0223  0.2228 -0.0961
  431loPI   C4B 6896  11.328  11.426   8.196  0.1186  0.0530  0.1223
  432loPI    C1 6897   3.558   4.290  10.878 -0.0541 -0.0688  0.1159
  432loPI    C2 6898   3.777   4.063  11.124 -0.0051 -0.0400  0.0989
  432loPI    C3 6899   3.571   4.373  11.269 -0.1526 -0.1551  0.1381
  432loPI   PO4 6900   3.455   4.069  10.688 -0.0240 -0.1403 -0.3275
  432loPI   GL1 6901   3.328   3.945  10.276 -0.1752  0.2230 -0.1847
  432loPI   GL2 6902   3.619   3.836  10.253  0.1343  0.0129  0.1043
  432loPI   C1A 6903   3.172   3.977   9.817 -0.1333  0.0749 -0.1900
  432loPI   C2A 6904   3.061   3.828   9.424 -0.1060 -0.1792  0.2254
  432loPI   C3A 6905   3.081   3.750   8.988 -0.4840 -0.0396  0.1332
  432loPI   C4A 6906   2.955   3.582   8.583 -0.0194  0.0232 -0.1116
  432loPI   C5A 6907   3.076   3.125   8.562 -0.0085 -0.1828 -0.0391
  432loPI   C6A 6908   3.392   2.968   8.281 -0.1315 -0.1364  0.3048
  432loPI   C1B 6909   3.705   4.042   9.904 -0.0560 -0.0264 -0.2047
  432loPI   C2B 6910   3.626   3.989   9.557  0.3695  0.0711  0.1881
  432loPI   C3B 6911   3.605   3.973   9.160  0.2460  0.4193 -0.0547
  432loPI   C4B 6912   3.714   3.832   8.713 -0.2979  0.3105  0.0693
  433loPI    C1 6913  10.648  15.366  10.203 -0.1635 -0.1239  0.0293
  433loPI    C2 6914  10.469  15.210  10.525  0.3634 -0.2541  0.2707
  433loPI    C3 6915  10.861  15.291  10.534  0.3480 -0.0794 -0.2787
  433loPI   PO4 6916  10.591  15.290  10.011  0.0652 -0.1323 -0.0022
  433loPI   GL1 6917  10.201  15.402   9.807  0.0331 -0.0014 -0.1033
  433loPI   GL2 6918  10.395  15.686   9.779 -0.1170 -0.2069 -0.2060
  433loPI   C1A 6919  10.023  15.466   9.396  0.4779 -0.0078  0.0339
  433loPI   C2A 6920  10.083  15.604   8.940  0.0412 -0.2212  0.0410
  433loPI   C3A 6921  10.050  15.660   8.489 -0.1179 -0.0467 -0.1869
  433loPI   C4A 6922  10.163  15.428   8.167 -0.0145  0.3308  0.1448
  433loPI   C5A 6923  10.306  15.140   7.963  0.1093  0.4361 -0.0641
  433loPI   C6A 6924  10.104  15.142   7.598  0.0608 -0.1514  0.0614
  433loPI   C1B 6925  10.526  15.566   9.269  0.1010 -0.1229 -0.0719
  433loPI   C2B 6926  10.548  15.536   8.831 -0.1833 -0.4161 -0.1090
  433loPI   C3B 6927  10.585  15.266   8.387 -0.3555  0.1591  0.1586
  433loPI   C4B 6928  10.827  15.199   7.980 -0.2372 -0.0537 -0.0899
  434loPI    C1 6929   2.528   4.037  11.057  0.0206  0.0544  0.1224
  434loPI    C2 6930   2.670   4.101  11.425 -0.0469 -0.0886  0.1736
  434loPI    C3 6931   2.819   3.804  11.201  0.1041  0.0971  0.0246
  434loPI   PO4 6932   2.587   4.237  10.903  0.1475  0.0183  0.1939
  434loPI   GL1 6933   2.554   4.420  10.579  0.2737  0.0292  0.3084
  434loPI   GL2 6934   2.308   4.599  10.492  0.0851  0.2931 -0.0322
  434loPI   C1A 6935   2.759   4.719  10.290  0.2881  0.0017  0.1087
  434loPI   C2A 6936   2.983   4.715   9.871 -0.2106 -0.0792 -0.0276
  434loPI   C3A 6937   2.811   4.733   9.529 -0.1439 -0.3418  0.1175
  434loPI   C4A 6938   2.864   4.641   9.008 -0.4415 -0.0062  0.0612
  434loPI   C5A 6939   2.977   4.562   8.501  0.1760  0.0517 -0.1709
  434loPI   C6A 6940   3.119   4.985   8.393  0.4550 -0.2940 -0.1158
  434loPI   C1B 6941   2.347   4.651   9.998  0.1528  0.1421  0.3278
  434loPI   C2B 6942   2.372   4.647   9.618  0.3363  0.2239 -0.2687
  434loPI   C3B 6943   2.376   4.518   9.198 -0.2000 -0.0365  0.2176
  434loPI   C4B 6944   2.418   4.537   8.720  0.1873 -0.1382 -0.1927
  435loPI    C1 6945   7.162   9.199  10.362  0.1273  0.1692 -0.0614
  435loPI    C2 6946   7.302   8.882  10.561  0.3015  0.1029 -0.2861
  435loPI    C3 6947   7.206   9.216  10.759  0.1347 -0.0818 -0.0500
  435loPI   PO4 6948   7.102   9.123  10.111  0.0782 -0.2684  0.0777
  435loPI   GL1 6949   7.095   9.420   9.777  0.5027  0.0513 -0.2086
  435loPI   GL2 6950   7.257   9.670   9.616 -0.1893  0.0469 -0.3432
  435loPI   C1A 6951   6.873   9.131   9.390  0.0362  0.1642  0.0849
  435loPI   C2A 6952   6.680   9.138   9.012  0.1709 -0.1615 -0.0242
  435loPI   C3A 6953   6.598   9.120   8.608  0.0006  0.1513 -0.1979
  435loPI   C4A 6954   6.354   9.033   8.236 -0.1837 -0.1836 -0.4520
  435loPI   C5A 6955   6.097   9.298   8.058  0.2430 -0.1483 -0.0834
  435loPI   C6A 6956   5.670   9.388   7.826 -0.1994 -0.1035  0.0527
  435loPI   C1B 6957   7.204   9.394   9.283 -0.3255  0.0918 -0.0980
  435loPI   C2B 6958   7.193   9.198   8.927 -0.1096  0.2432 -0.1447
  435loPI   C3B 6959   7.203   8.823   8.551  0.0994  0.2094  0.1956
  435loPI   C4B 6960   6.916   9.042   8.219  0.3021 -0.1905  0.1543
  436loPI    C1 6961  14.247   3.200  11.086 -0.0056 -0.0825 -0.1274
  436loPI    C2 6962  14.427   2.855  11.179 -0.0374 -0.0291  0.1400
  436loPI    C3 6963  14.073   2.946  11.341 -0.0782  0.0832 -0.0101
  436loPI   PO4 6964  14.319   3.184  10.805 -0.0596  0.3497  0.1642
  436loPI   GL1 6965  14.354   3.339  10.372 -0.0650 -0.1725 -0.1519
  436loPI   GL2 6966  14.425   3.022  10.347 -0.0454 -0.3093 -0.0268
  436loPI   C1A 6967  14.463   3.216   9.864 -0.0222  0.1939 -0.1328
  436loPI   C2A 6968  14.440   3.196   9.402 -0.0231 -0.0109 -0.0112
  436loPI   C3A 6969  14.468   3.131   8.964 -0.0140 -0.0020 -0.1427
  436loPI   C4A 6970  14.530   3.198   8.608  0.2342 -0.0151 -0.0638
  436loPI   C5A 6971  14.388   3.379   8.186  0.0984 -0.0371 -0.2457
  436loPI   C6A 6972  14.587   3.347   7.779  0.2161  0.0480  0.0565
  436loPI   C1B 6973  14.257   2.771  10.021  0.0458 -0.0144 -0.2166
  436loPI   C2B 6974  14.364   2.543   9.610 -0.1339 -0.1664  0.0224
  436loPI   C3B 6975  14.432   2.645   9.234  0.0443 -0.0921  0.1015
  436loPI   C4B 6976  14.421   2.580   8.806  0.2437 -0.0088 -0.0650
  437loPI    C1 6977   9.322   8.459  10.117 -0.2114  0.0688  0.0391
  437loPI    C2 6978   9.026   8.556  10.368 -0.1303 -0.0195  0.1697
  437loPI    C3 6979   9.280   8.261  10.462 -0.2045 -0.1712 -0.0957
  437loPI   PO4 6980   9.262   8.516   9.833 -0.1529 -0.1558  0.1656
  437loPI   GL1 6981   9.543   8.704   9.414  0.1392  0.0599 -0.3264
  437loPI   GL2 6982   9.460   8.438   9.334 -0.2464 -0.1097  0.1552
  437loPI   C1A 6983   9.572   8.763   8.931 -0.2657 -0.0842  0.2922
  437loPI   C2A 6984   9.547   8.949   8.469  0.0642  0.0613  0.3789
  437loPI   C3A 6985   9.585   8.931   8.041  0.1961  0.2199 -0.2601
  437loPI   C4A 6986   9.636   9.311   7.709 -0.2273 -0.2688 -0.2131
  437loPI   C5A 6987   9.838   9.753   7.677 -0.2516 -0.2164 -0.0529
  437loPI   C6A 6988  10.040  10.052   7.808  0.1917 -0.0594  0.3426
  437loPI   C1B 6989   9.336   8.180   8.980  0.1604 -0.2476 -0.1930
  437loPI   C2B 6990   9.108   8.053   8.628  0.1270 -0.0224  0.1431
  437loPI   C3B 6991   8.943   8.240   8.258 -0.0809 -0.2766 -0.0901
  437loPI   C4B 6992   8.835   8.284   7.822  0.0881  0.2297  0.2168
  438loPI    C1 6993  15.441  14.893  11.127 -0.0616 -0.1657  0.0554
  438loPI    C2 6994  15.248  14.568  10.997 -0.2075 -0.1257  0.1693
  438loPI    C3 6995  15.213  14.682  11.379 -0.0285 -0.0671  0.1690
  438loPI   PO4 6996  15.498  14.981  10.833  0.1693  0.2851 -0.0600
  438loPI   GL1 6997  15.431  15.087  10.380 -0.0701  0.0489 -0.1664
  438loPI   GL2 6998  15.106  15.081  10.143 -0.0910  0.0064  0.1452
  438loPI   C1A 6999  15.444  14.743  10.077 -0.2737 -0.2224 -0.2289
  438loPI   C2A 7000  15.468  14.772   9.610  0.0162 -0.0998 -0.4278
  438loPI   C3A 7001  15.555  14.769   9.227 -0.0053  0.0968  0.1786
  438loPI   C4A 7002  15.676  14.819   8.865 -0.0516 -0.1536  0.1727
  438loPI   C5A 7003  15.572  14.907   8.423 -0.0677 -0.1910  0.1765
  438loPI   C6A 7004  15.560  14.926   8.036 -0.0191 -0.0239  0.1508
  438loPI   C1B 7005  15.126  15.123   9.707  0.1403  0.0736  0.0474
  438loPI   C2B 7006  15.148  15.184   9.174 -0.0844  0.1054 -0.0192
  438loPI   C3B 7007  15.175  15.111   8.778 -0.0019 -0.1330 -0.0500
  438loPI   C4B 7008  15.124  15.160   8.361  0.1880  0.1203 -0.0277
  439loPI    C1 7009  13.289   6.217  10.669 -0.1216  0.0709 -0.0548
  439loPI    C2 7010  13.002   6.413  10.868 -0.0118  0.0804  0.0958
  439loPI    C3 7011  13.321   6.271  11.064  0.2259  0.3158 -0.1118
  439loPI   PO4 7012  13.241   6.279  10.489  0.1522  0.2739  0.3507
  439loPI   GL1 7013  13.162   6.285  10.074  0.1595  0.0634  0.2800
  439loPI   GL2 7014  13.129   6.619  10.076 -0.1358 -0.1977 -0.0476
  439loPI   C1A 7015  13.324   6.106   9.826 -0.2584 -0.0679 -0.0895
  439loPI   C2A 7016  13.335   6.140   9.351 -0.0759  0.1132 -0.2676
  439loPI   C3A 7017  13.343   6.218   8.943  0.0401 -0.3591 -0.0820
  439loPI   C4A 7018  13.246   6.106   8.511  0.0095 -0.1023 -0.4032
  439loPI   C5A 7019  13.455   6.256   8.145 -0.3366  0.0187  0.2888
  439loPI   C6A 7020  13.381   6.554   7.874  0.0832 -0.0048 -0.1191
  439loPI   C1B 7021  13.364   6.609   9.689  0.0501 -0.1048 -0.0852
  439loPI   C2B 7022  13.495   6.636   9.266  0.1929 -0.0547  0.2332
  439loPI   C3B 7023  13.485   6.730   8.816  0.1048 -0.1644 -0.2746
  439loPI   C4B 7024  13.458   6.593   8.483 -0.0867  0.2367  0.0639
  440loPI    C1 7025  10.558   1.381  10.792 -0.0897 -0.2416  0.0818
  440loPI    C2 7026  10.847   1.555  11.008 -0.1183  0.1709 -0.2003
  440loPI    C3 7027  10.559   1.345  11.190  0.1628  0.0472  0.1114
  440loPI   PO4 7028  10.772   1.244  10.605  0.0728 -0.3860  0.0767
  440loPI   GL1 7029  10.952   1.024  10.270  0.1350 -0.0176 -0.0520
  440loPI   GL2 7030  10.624   0.961  10.273  0.1873 -0.1313 -0.0936
  440loPI   C1A 7031  11.149   1.150   9.950 -0.1684  0.0863 -0.1241
  440loPI   C2A 7032  11.288   1.176   9.541 -0.0288 -0.0339 -0.0326
  440loPI   C3A 7033  11.234   1.310   9.093  0.0169 -0.3108  0.0808
  440loPI   C4A 7034  11.128   1.301   8.650  0.0742  0.2031  0.3570
  440loPI   C5A 7035  11.231   1.216   8.203  0.2534 -0.0968 -0.1061
  440loPI   C6A 7036  11.465   1.288   7.850 -0.2393 -0.2138 -0.0074
  440loPI   C1B 7037  10.363   0.673  10.015 -0.0254  0.0824 -0.0582
  440loPI   C2B 7038  10.461   0.539   9.584 -0.3195  0.3023  0.1999
  440loPI   C3B 7039  10.568   0.678   9.141  0.3259 -0.0328  0.0704
  440loPI   C4B 7040  10.448   0.695   8.806 -0.1136  0.0617  0.1072
  441loPI    C1 7041   8.548  15.004  10.375 -0.2614 -0.1143  0.1643
  441loPI    C2 7042   8.685  14.683  10.571  0.1967 -0.0052  0.0369
  441loPI    C3 7043   8.510  14.981  10.773  0.1619 -0.1391  0.2078
  441loPI   PO4 7044   8.564  14.944  10.073 -0.0447  0.0586 -0.4048
  441loPI   GL1 7045   8.817  15.052   9.797 -0.0758 -0.1716 -0.0315
  441loPI   GL2 7046   8.554  15.307   9.702 -0.0879  0.4045 -0.1389
  441loPI   C1A 7047   8.733  14.932   9.394 -0.0632 -0.1508  0.1903
  441loPI   C2A 7048   8.659  15.050   9.033  0.1354 -0.1816 -0.0760
  441loPI   C3A 7049   8.531  15.081   8.642 -0.1420  0.1653  0.1675
  441loPI   C4A 7050   8.597  15.169   8.359  0.2369 -0.3188 -0.0780
  441loPI   C5A 7051   8.431  15.258   7.903 -0.1204  0.1492 -0.2086
  441loPI   C6A 7052   8.544  15.031   7.471 -0.0345  0.1930  0.0208
  441loPI   C1B 7053   8.395  15.364   9.358  0.3824 -0.2895  0.1166
  441loPI   C2B 7054   8.218  15.544   9.064 -0.0632  0.0903 -0.2190
  441loPI   C3B 7055   8.195  15.488   8.570  0.0020  0.0327  0.0248
  441loPI   C4B 7056   8.135  15.737   8.126 -0.0497  0.2490  0.3604
  442loPI    C1 7057   8.302  13.169  10.198  0.0598  0.1362  0.2113
  442loPI    C2 7058   8.069  13.267  10.508 -0.0717 -0.0527  0.1739
  442loPI    C3 7059   8.467  13.262  10.551 -0.0768  0.1779  0.2649
  442loPI   PO4 7060   8.277  13.461   9.885 -0.0623  0.1330 -0.1364
  442loPI   GL1 7061   8.260  13.564   9.420  0.0111 -0.0310  0.0432
  442loPI   GL2 7062   8.593  13.761   9.444  0.0114 -0.0976 -0.0549
  442loPI   C1A 7063   8.147  13.608   8.976 -0.4215 -0.0047  0.0781
  442loPI   C2A 7064   8.043  13.707   8.476  0.1137 -0.1460 -0.0326
  442loPI   C3A 7065   7.840  13.766   8.117 -0.1351  0.0955  0.0048
  442loPI   C4A 7066   7.708  13.728   7.681 -0.1177  0.0586  0.0884
  442loPI   C5A 7067   7.496  13.897   7.372  0.0533 -0.3939  0.0413
  442loPI   C6A 7068   7.486  14.064   6.921 -0.0440 -0.1864  0.0739
  442loPI   C1B 7069   8.614  13.732   9.029  0.4632 -0.1672  0.1345
  442loPI   C2B 7070   8.539  13.620   8.583 -0.0374  0.1846  0.1089
  442loPI   C3B 7071   8.599  13.745   8.173  0.0537  0.0403 -0.0717
  442loPI   C4B 7072   8.614  13.896   7.711  0.1506  0.1465  0.3974
  443loPI    C1 7073  15.982  17.957  10.797 -0.0000  0.0714 -0.1819
  443loPI    C2 7074  15.834  17.589  10.753  0.1908 -0.0221 -0.0581
  443loPI    C3 7075  15.874  17.745  11.119  0.1157  0.1203 -0.1100
  443loPI   PO4 7076  16.137  17.961  10.624  0.0176 -0.0690 -0.0234
  443loPI   GL1 7077  16.371  18.134  10.355 -0.0496  0.0146 -0.0406
  443loPI   GL2 7078  16.619  17.938  10.222 -0.2407  0.1376  0.1020
  443loPI   C1A 7079  16.403  18.338   9.924 -0.2399 -0.0310 -0.0294
  443loPI   C2A 7080  16.411  18.341   9.379 -0.3064  0.1117 -0.0334
  443loPI   C3A 7081  16.477  18.372   8.935  0.1558  0.0721 -0.0099
  443loPI   C4A 7082  16.374  18.278   8.569  0.0133 -0.0558 -0.0263
  443loPI   C5A 7083  16.325  18.507   8.344  0.0115  0.0787 -0.1693
  443loPI   C6A 7084  16.126  18.980   8.311  0.0078  0.5310  0.1744
  443loPI   C1B 7085  16.890  17.997   9.858  0.1746  0.3938 -0.1683
  443loPI   C2B 7086  16.815  18.023   9.428 -0.2829  0.1298 -0.0895
  443loPI   C3B 7087  16.843  18.029   8.961  0.1094 -0.0965 -0.0354
  443loPI   C4B 7088  16.927  18.031   8.584  0.0074 -0.0241 -0.3034
  444loPI    C1 7089  13.052   6.887  10.706 -0.0749 -0.0620  0.1849
  444loPI    C2 7090  13.314   6.895  11.008  0.0991  0.1353  0.0316
  444loPI    C3 7091  13.114   7.227  10.907 -0.1322  0.0124  0.0780
  444loPI   PO4 7092  13.166   6.765  10.528 -0.0005  0.2222 -0.2149
  444loPI   GL1 7093  13.595   6.628  10.354  0.1730  0.1094 -0.1027
  444loPI   GL2 7094  13.653   6.453  10.007  0.1193 -0.1612 -0.0956
  444loPI   C1A 7095  13.522   6.953   9.998 -0.1878  0.0411  0.2164
  444loPI   C2A 7096  13.538   7.067   9.502  0.0631  0.0225 -0.1496
  444loPI   C3A 7097  13.580   7.133   9.090  0.3414  0.0355 -0.2048
  444loPI   C4A 7098  13.708   7.226   8.674  0.1590  0.0708 -0.0987
  444loPI   C5A 7099  13.822   7.211   8.218 -0.1037  0.1955  0.0771
  444loPI   C6A 7100  14.120   7.055   7.923 -0.0101 -0.0030 -0.0859
  444loPI   C1B 7101  13.862   6.389   9.598 -0.0076 -0.0104  0.1528
  444loPI   C2B 7102  13.962   6.350   9.147  0.2425  0.2226  0.1556
  444loPI   C3B 7103  13.855   6.291   8.778  0.2963 -0.1288  0.0051
  444loPI   C4B 7104  13.911   6.277   8.323  0.3218  0.0263  0.0228
  445loPI    C1 7105   3.086   5.519  11.320 -0.0039  0.2734 -0.0758
  445loPI    C2 7106   3.412   5.739  11.391  0.1384 -0.0097  0.1759
  445loPI    C3 7107   3.187   5.612  11.696  0.0601 -0.2135  0.0355
  445loPI   PO4 7108   3.023   5.608  11.030  0.5041 -0.2065  0.1666
  445loPI   GL1 7109   3.060   5.646  10.572 -0.1432 -0.1289 -0.0349
  445loPI   GL2 7110   2.981   5.424  10.567 -0.0693 -0.1648  0.2275
  445loPI   C1A 7111   3.141   5.702  10.109  0.3147 -0.1133 -0.2778
  445loPI   C2A 7112   3.120   5.674   9.600  0.2167 -0.0211 -0.0080
  445loPI   C3A 7113   3.193   5.675   9.074 -0.0254  0.1937 -0.0231
  445loPI   C4A 7114   3.151   5.673   8.663 -0.2602 -0.0336  0.1595
  445loPI   C5A 7115   3.034   5.498   8.323 -0.0977 -0.2989 -0.0448
  445loPI   C6A 7116   2.920   5.138   7.977  0.1221 -0.1536 -0.0444
  445loPI   C1B 7117   3.004   5.153  10.223  0.1294  0.0337  0.0031
  445loPI   C2B 7118   2.947   5.194   9.763 -0.2827  0.1199 -0.2318
  445loPI   C3B 7119   2.927   5.181   9.284  0.0185 -0.4581  0.1270
  445loPI   C4B 7120   3.045   5.160   8.836  0.2988  0.0814 -0.2070
  446loPI    C1 7121   0.942  12.403  10.844  0.1611  0.0819 -0.0706
  446loPI    C2 7122   0.676  12.307  11.127 -0.0255 -0.0419 -0.2846
  446loPI    C3 7123   0.951  12.589  11.198 -0.3453  0.2393 -0.1329
  446loPI   PO4 7124   1.147  12.216  10.755  0.0806 -0.2613  0.1206
  446loPI   GL1 7125   1.374  12.275  10.384  0.1433  0.0496 -0.0128
  446loPI   GL2 7126   1.623  12.444  10.470 -0.1090 -0.0381 -0.1781
  446loPI   C1A 7127   1.223  12.438   9.888  0.1358  0.1275 -0.1053
  446loPI   C2A 7128   1.270  12.709   9.450 -0.1430  0.0821 -0.1441
  446loPI   C3A 7129   1.295  12.788   9.028  0.1595 -0.0272  0.0787
  446loPI   C4A 7130   1.127  12.810   8.603 -0.2495  0.1631 -0.0256
  446loPI   C5A 7131   1.409  12.740   8.271 -0.2333 -0.1139 -0.0379
  446loPI   C6A 7132   1.439  12.484   7.933  0.2829 -0.2962 -0.2093
  446loPI   C1B 7133   1.807  12.466   9.979 -0.1547  0.0495  0.0734
  446loPI   C2B 7134   1.642  12.253   9.599  0.0072  0.1837  0.1286
  446loPI   C3B 7135   1.605  12.410   9.169 -0.1345 -0.0132 -0.2364
  446loPI   C4B 7136   1.635  12.530   8.671 -0.0926  0.2334 -0.2575
  447loPI    C1 7137  17.987   1.677  11.437  0.0100 -0.0447  0.1152
  447loPI    C2 7138  17.637   1.629  11.626 -0.1762  0.1703 -0.1653
  447loPI    C3 7139  17.870   1.943  11.712 -0.0875  0.0707 -0.0363
  447loPI   PO4 7140  17.928   1.726  11.212 -0.2390  0.1798 -0.0247
  447loPI   GL1 7141  18.036   1.429  10.832  0.0273 -0.1051 -0.2088
  447loPI   GL2 7142  18.250   1.653  10.606  0.3230  0.2015  0.0568
  447loPI   C1A 7143  17.910   1.263  10.391  0.0424  0.2917  0.5116
  447loPI   C2A 7144  17.769   1.187   9.966  0.1550 -0.0973  0.3733
  447loPI   C3A 7145  17.654   1.266   9.552  0.0367 -0.1473  0.0529
  447loPI   C4A 7146  17.696   1.235   9.076 -0.2118  0.3163 -0.0286
  447loPI   C5A 7147  17.698   1.275   8.635  0.2208  0.1767 -0.0006
  447loPI   C6A 7148  17.998   1.282   8.311  0.0605  0.1040 -0.1140
  447loPI   C1B 7149  18.307   1.885  10.198 -0.1381  0.1127  0.2432
  447loPI   C2B 7150  18.326   1.895   9.622  0.1687  0.0979 -0.1161
  447loPI   C3B 7151  18.322   1.885   9.257 -0.0579 -0.0468  0.5108
  447loPI   C4B 7152  18.303   1.869   8.868  0.4418 -0.2934  0.0127
  448loPI    C1 7153  13.502  13.568  10.512  0.0216  0.0768  0.1930
  448loPI    C2 7154  13.817  13.331  10.441 -0.0356  0.0817 -0.0876
  448loPI    C3 7155  13.704  13.407  10.817  0.3066  0.0920  0.0160
  448loPI   PO4 7156  13.484  13.726  10.376 -0.0357  0.0945 -0.5500
  448loPI   GL1 7157  13.316  13.759  10.011 -0.3687  0.0956 -0.2652
  448loPI   GL2 7158  13.437  14.079   9.997 -0.3081  0.0874 -0.0866
  448loPI   C1A 7159  13.370  13.727   9.608 -0.1843  0.2437  0.0057
  448loPI   C2A 7160  13.343  13.776   9.208 -0.2763  0.1095 -0.1232
  448loPI   C3A 7161  13.372  13.671   8.747 -0.2785  0.4098  0.0269
  448loPI   C4A 7162  13.162  13.629   8.388 -0.0911 -0.1747  0.2622
  448loPI   C5A 7163  13.011  13.485   7.993 -0.1327 -0.0292 -0.0868
  448loPI   C6A 7164  12.999  13.646   7.529  0.0361  0.1280  0.2075
  448loPI   C1B 7165  13.491  14.215   9.587 -0.0666 -0.0238 -0.2669
  448loPI   C2B 7166  13.479  14.208   9.131  0.4724  0.0617 -0.2656
  448loPI   C3B 7167  13.478  14.163   8.704 -0.4194 -0.1872 -0.1450
  448loPI   C4B 7168  13.674  13.985   8.354 -0.1263 -0.2427  0.3025
  449loPI    C1 7169  17.754  11.488  10.666 -0.0467 -0.0136  0.0826
  449loPI    C2 7170  17.583  11.816  10.819 -0.0635  0.0873 -0.1471
  449loPI    C3 7171  17.579  11.473  11.025 -0.1619  0.1975  0.0373
  449loPI   PO4 7172  17.687  11.539  10.387  0.1079 -0.0217  0.1059
  449loPI   GL1 7173  17.756  11.417   9.969 -0.0266  0.2158 -0.4639
  449loPI   GL2 7174  17.608  11.718   9.949  0.4070 -0.0619 -0.4382
  449loPI   C1A 7175  17.971  11.323   9.513 -0.1033  0.0838  0.0611
  449loPI   C2A 7176  18.029  11.167   9.013  0.0129 -0.0404 -0.3973
  449loPI   C3A 7177  17.789  11.288   8.596  0.0298 -0.0373  0.1534
  449loPI   C4A 7178  17.406  11.160   8.258  0.1343  0.2071  0.2399
  449loPI   C5A 7179  17.332  10.827   7.942  0.1066 -0.1097  0.1301
  449loPI   C6A 7180  17.371  10.440   7.895 -0.1573 -0.0001 -0.0100
  449loPI   C1B 7181  17.536  11.705   9.551 -0.1504  0.0401  0.1250
  449loPI   C2B 7182  17.542  11.737   9.121  0.1906  0.1209  0.0669
  449loPI   C3B 7183  17.519  11.676   8.726 -0.2591 -0.2450 -0.1505
  449loPI   C4B 7184  17.719  11.628   8.260 -0.0672  0.2546  0.1499
  450loPI    C1 7185  13.348  17.910  10.762  0.0465 -0.0967 -0.1930
  450loPI    C2 7186  13.745  17.867  10.756  0.0539 -0.0645  0.0013
  450loPI    C3 7187  13.573  18.095  11.036 -0.1020 -0.0807 -0.0803
  450loPI   PO4 7188  13.349  17.931  10.441 -0.0019  0.0037  0.1975
  450loPI   GL1 7189  13.620  17.880  10.125 -0.0840 -0.0738 -0.4309
  450loPI   GL2 7190  13.547  17.623  10.107  0.2453  0.2074  0.1625
  450loPI   C1A 7191  13.579  17.979   9.744  0.1750  0.3210  0.0503
  450loPI   C2A 7192  13.613  18.055   9.252 -0.2972 -0.0212  0.1767
  450loPI   C3A 7193  13.682  18.162   8.766  0.2721 -0.0928 -0.0009
  450loPI   C4A 7194  13.476  18.088   8.368 -0.1847  0.1246  0.3921
  450loPI   C5A 7195  13.445  18.471   8.159  0.0258  0.0402  0.0529
  450loPI   C6A 7196  13.462  18.902   8.153 -0.0520 -0.0356 -0.0384
  450loPI   C1B 7197  13.428  17.553   9.640 -0.1665  0.2866  0.1324
  450loPI   C2B 7198  13.415  17.469   9.249  0.1412  0.2460 -0.0605
  450loPI   C3B 7199  13.406  17.680   8.770 -0.0112 -0.2985 -0.1066
  450loPI   C4B 7200  13.465  17.526   8.413  0.1550 -0.0492 -0.1565
  451loPI    C1 7201   1.852   9.390  10.808 -0.0545 -0.2844 -0.2031
  451loPI    C2 7202   1.900   9.072  11.047  0.1353  0.0510  0.2203
  451loPI    C3 7203   1.577   9.305  11.086  0.0196 -0.0588 -0.0575
  451loPI   PO4 7204   1.825   9.254  10.546  0.0634 -0.3414  0.0025
  451loPI   GL1 7205   1.852   9.072  10.200 -0.1281  0.0366  0.0865
  451loPI   GL2 7206   2.146   9.033  10.120 -0.0783 -0.1648 -0.1427
  451loPI   C1A 7207   1.637   9.093   9.746 -0.1862  0.1618 -0.0536
  451loPI   C2A 7208   1.588   8.973   9.366 -0.1168 -0.0036 -0.1445
  451loPI   C3A 7209   1.471   8.859   8.983  0.2559  0.3692 -0.0261
  451loPI   C4A 7210   1.226   8.815   8.640 -0.2607  0.1256  0.4081
  451loPI   C5A 7211   1.256   8.948   8.284  0.2573  0.1905 -0.1828
  451loPI   C6A 7212   1.170   9.127   7.912 -0.0099  0.0243  0.0876
  451loPI   C1B 7213   2.098   9.141   9.611 -0.0687 -0.2259  0.0342
  451loPI   C2B 7214   2.030   9.074   9.119 -0.1151 -0.1100 -0.1048
  451loPI   C3B 7215   2.007   9.313   8.661 -0.2248 -0.2733  0.1840
  451loPI   C4B 7216   2.376   9.504   8.512  0.1877  0.0498  0.0673
  452loPI    C1 7217  17.740   8.058  10.755 -0.0001 -0.2367  0.0122
  452loPI    C2 7218  17.544   8.035  11.103 -0.0199 -0.1350  0.0080
  452loPI    C3 7219  17.938   8.105  11.099 -0.0651  0.1322  0.0038
  452loPI   PO4 7220  17.685   7.954  10.640 -0.1282  0.0539 -0.0149
  452loPI   GL1 7221  17.716   8.059  10.221 -0.0940  0.0291  0.2702
  452loPI   GL2 7222  17.569   7.823  10.084  0.2952 -0.1524 -0.0525
  452loPI   C1A 7223  17.873   8.322   9.938 -0.0177  0.2627 -0.1254
  452loPI   C2A 7224  17.862   8.317   9.464 -0.0205  0.0106  0.0951
  452loPI   C3A 7225  17.848   8.343   9.062 -0.0993 -0.4307  0.1017
  452loPI   C4A 7226  17.644   8.299   8.696  0.3074 -0.0127 -0.1915
  452loPI   C5A 7227  17.150   8.292   8.484 -0.0212 -0.3086 -0.2037
  452loPI   C6A 7228  16.716   8.599   8.392 -0.0987 -0.3996 -0.0890
  452loPI   C1B 7229  17.599   7.875   9.686 -0.1256 -0.0086 -0.2843
  452loPI   C2B 7230  17.615   7.780   9.225 -0.0634  0.1022  0.2725
  452loPI   C3B 7231  17.476   7.716   8.782  0.0749  0.0164 -0.2131
  452loPI   C4B 7232  17.256   7.762   8.442  0.0942  0.3179 -0.1719
  453loPI    C1 7233   7.575   5.434  10.170 -0.1210 -0.0155  0.0132
  453loPI    C2 7234   7.539   5.768   9.953  0.2846  0.0295  0.0076
  453loPI    C3 7235   7.733   5.776  10.303 -0.1864 -0.0865  0.2808
  453loPI   PO4 7236   7.614   5.272   9.926 -0.0563 -0.0407 -0.1264
  453loPI   GL1 7237   7.299   4.980   9.584  0.1224  0.1780 -0.1206
  453loPI   GL2 7238   7.363   4.620   9.442 -0.1831 -0.0969  0.3135
  453loPI   C1A 7239   7.031   5.009   9.304  0.3291  0.0081 -0.2669
  453loPI   C2A 7240   7.496   5.145   9.174 -0.0573  0.3070  0.0890
  453loPI   C3A 7241   7.563   5.175   8.625  0.1670  0.1972 -0.1737
  453loPI   C4A 7242   7.603   5.133   8.119  0.2499  0.0271  0.1258
  453loPI   C5A 7243   7.386   4.981   7.710  0.1748 -0.0173  0.3841
  453loPI   C6A 7244   7.568   4.524   7.595  0.2045  0.3990 -0.0122
  453loPI   C1B 7245   7.399   4.299   9.137 -0.2301  0.0864  0.1225
  453loPI   C2B 7246   7.418   3.990   8.806 -0.1180 -0.2085  0.2762
  453loPI   C3B 7247   7.641   3.646   8.669 -0.1701  0.3099 -0.2157
  453loPI   C4B 7248   8.023   3.731   8.573 -0.1004 -0.0773  0.1102
  454loPI    C1 7249   9.681  12.131  10.304 -0.0366  0.1696 -0.2397
  454loPI    C2 7250   9.366  12.197  10.542  0.0264 -0.1198 -0.0716
  454loPI    C3 7251   9.737  12.248  10.683  0.0585  0.2864 -0.2892
  454loPI   PO4 7252   9.505  12.050  10.079  0.2185  0.5398  0.1238
  454loPI   GL1 7253   9.279  11.952   9.769 -0.1497  0.1904  0.5761
  454loPI   GL2 7254   9.469  12.172   9.620  0.1460  0.1500 -0.0465
  454loPI   C1A 7255   9.397  11.695   9.347  0.2520 -0.0410 -0.0327
  454loPI   C2A 7256   9.523  11.566   9.015  0.0809  0.0202  0.1480
  454loPI   C3A 7257   9.491  11.614   8.516 -0.1917 -0.3014 -0.0373
  454loPI   C4A 7258   9.540  11.496   8.225 -0.2809  0.0426 -0.1548
  454loPI   C5A 7259   9.667  11.617   7.837  0.2568 -0.1236  0.2491
  454loPI   C6A 7260  10.012  11.700   7.663 -0.1323  0.0920  0.1894
  454loPI   C1B 7261   9.493  12.210   9.215 -0.4904 -0.2794  0.4676
  454loPI   C2B 7262   9.321  12.140   8.712  0.0382 -0.3158  0.1020
  454loPI   C3B 7263   9.156  12.013   8.224  0.0468  0.1361  0.0347
  454loPI   C4B 7264   9.109  11.994   7.792  0.0799 -0.0088 -0.0170
  455loPI    C1 7265  16.787  10.688  10.228 -0.2137 -0.1260 -0.0764
  455loPI    C2 7266  16.925  10.395  10.462 -0.0272  0.2201  0.2593
  455loPI    C3 7267  17.106  10.475  10.114  0.1568  0.1847  0.3458
  455loPI   PO4 7268  16.430  10.597  10.237  0.1163 -0.0646  0.2148
  455loPI   GL1 7269  16.138  10.532   9.845  0.2390  0.2905  0.0729
  455loPI   GL2 7270  15.865  10.593   9.825  0.4074  0.2454  0.0993
  455loPI   C1A 7271  16.415  10.541   9.497  0.0065  0.0270  0.0220
  455loPI   C2A 7272  16.431  10.390   9.163  0.1223 -0.0893 -0.3768
  455loPI   C3A 7273  16.433  10.298   8.718 -0.0181  0.1939 -0.1044
  455loPI   C4A 7274  16.350  10.391   8.353 -0.1750  0.1774  0.2812
  455loPI   C5A 7275  16.338  10.482   7.840  0.3910  0.1682  0.1840
  455loPI   C6A 7276  16.080  10.375   7.489  0.0986 -0.1320 -0.0279
  455loPI   C1B 7277  15.945  10.597   9.363 -0.4423 -0.1061 -0.2264
  455loPI   C2B 7278  16.035  10.591   8.923  0.1966  0.0084  0.0828
  455loPI   C3B 7279  15.967  10.705   8.495  0.0028  0.3024 -0.2196
  455loPI   C4B 7280  16.087  10.806   8.110 -0.0765  0.0035 -0.0080
  456loPI    C1 7281  12.004   4.211  10.847  0.0400  0.1616 -0.0914
  456loPI    C2 7282  11.896   4.363  11.201  0.0747  0.0975 -0.0531
  456loPI    C3 7283  12.283   4.315  11.113  0.0685  0.1888 -0.1319
  456loPI   PO4 7284  11.954   4.307  10.654 -0.0318  0.2016  0.3185
  456loPI   GL1 7285  12.246   4.268  10.308 -0.2001  0.0355 -0.4067
  456loPI   GL2 7286  12.191   3.985  10.143 -0.2663  0.0499 -0.0019
  456loPI   C1A 7287  12.295   4.501  10.003 -0.1021 -0.0315 -0.0459
  456loPI   C2A 7288  12.505   4.463   9.610 -0.0448 -0.3924  0.2090
  456loPI   C3A 7289  12.556   4.522   9.092 -0.2073  0.0778  0.2478
  456loPI   C4A 7290  12.440   4.345   8.757  0.1559 -0.1308 -0.1421
  456loPI   C5A 7291  12.370   4.504   8.400 -0.0807 -0.0156  0.0674
  456loPI   C6A 7292  12.404   4.932   8.348  0.0660 -0.3057 -0.1583
  456loPI   C1B 7293  12.239   4.003   9.794 -0.2746  0.0159  0.3366
  456loPI   C2B 7294  12.331   4.065   9.362  0.4741 -0.1590  0.2020
  456loPI   C3B 7295  12.381   3.887   8.970 -0.1300 -0.0920  0.2170
  456loPI   C4B 7296  12.318   3.888   8.518  0.0668  0.0608  0.1028
  457loPI    C1 7297   8.224   9.532  10.088  0.0525  0.0973 -0.0289
  457loPI    C2 7298   8.386   9.650  10.435 -0.1321 -0.0637  0.1136
  457loPI    C3 7299   7.990   9.671  10.381 -0.1115 -0.1085 -0.0603
  457loPI   PO4 7300   8.316   9.574   9.931 -0.0974  0.1112 -0.2411
  457loPI   GL1 7301   8.180   9.781   9.556  0.0713 -0.0092  0.1658
  457loPI   GL2 7302   7.993   9.947   9.555  0.0630  0.3586  0.2790
  457loPI   C1A 7303   8.243   9.791   9.144  0.1547  0.0699 -0.0065
  457loPI   C2A 7304   8.418   9.755   8.760 -0.2538 -0.2671  0.3884
  457loPI   C3A 7305   8.546   9.540   8.470  0.0316 -0.3602 -0.2209
  457loPI   C4A 7306   8.427   9.578   8.072 -0.3772  0.2762  0.1816
  457loPI   C5A 7307   8.157   9.350   7.781  0.1484  0.3533  0.2883
  457loPI   C6A 7308   8.293   9.133   7.413  0.0198 -0.0793  0.3344
  457loPI   C1B 7309   7.776   9.714   9.272  0.2057 -0.1070  0.3196
  457loPI   C2B 7310   7.776   9.320   9.002  0.1067  0.0436 -0.1043
  457loPI   C3B 7311   7.696   9.069   8.639 -0.3873 -0.0451 -0.2311
  457loPI   C4B 7312   7.534   9.063   8.193 -0.0235  0.2881  0.0711
  458loPI    C1 7313   6.306  15.966  10.641 -0.4260  0.0497  0.0983
  458loPI    C2 7314   6.417  16.254  10.896 -0.1111  0.0091  0.0106
  458loPI    C3 7315   6.060  16.079  10.936 -0.0844  0.0344  0.3961
  458loPI   PO4 7316   6.509  16.094  10.419 -0.2532  0.1811  0.0378
  458loPI   GL1 7317   6.699  15.922  10.076  0.0974  0.1359  0.2511
  458loPI   GL2 7318   6.931  16.116   9.938  0.2040  0.2302  0.2578
  458loPI   C1A 7319   6.543  15.970   9.667  0.0594  0.3990  0.0065
  458loPI   C2A 7320   6.530  15.972   9.314 -0.0631  0.1261  0.1885
  458loPI   C3A 7321   6.427  15.988   8.867  0.1325 -0.2068  0.1505
  458loPI   C4A 7322   6.418  16.090   8.467 -0.0959  0.2500 -0.2556
  458loPI   C5A 7323   6.416  16.080   8.024 -0.2594 -0.1573  0.1473
  458loPI   C6A 7324   6.113  16.420   7.851 -0.1096 -0.1219 -0.0362
  458loPI   C1B 7325   6.988  16.095   9.523 -0.3761  0.2259  0.1910
  458loPI   C2B 7326   6.918  16.191   9.143  0.2274 -0.2219  0.4451
  458loPI   C3B 7327   6.846  16.175   8.690  0.1003 -0.0172  0.1736
  458loPI   C4B 7328   6.901  16.255   8.276 -0.1140  0.1478  0.0519
  459loPI    C1 7329  15.967  11.818  10.498 -0.0350 -0.1681 -0.0299
  459loPI    C2 7330  16.057  11.669  10.859 -0.0934 -0.1973 -0.0272
  459loPI    C3 7331  15.680  11.657  10.725 -0.1277  0.0851  0.0363
  459loPI   PO4 7332  16.022  11.963  10.434 -0.2148 -0.0424 -0.2562
  459loPI   GL1 7333  15.900  11.907   9.961  0.1542 -0.3116 -0.0887
  459loPI   GL2 7334  16.217  11.754   9.805 -0.0034  0.1565 -0.3525
  459loPI   C1A 7335  15.784  12.044   9.593  0.1846  0.1873 -0.0276
  459loPI   C2A 7336  15.799  11.994   9.121 -0.1166 -0.1086 -0.1518
  459loPI   C3A 7337  15.852  12.083   8.675  0.2841  0.0372  0.0791
  459loPI   C4A 7338  15.903  12.070   8.215  0.2464  0.1730  0.2037
  459loPI   C5A 7339  15.820  12.330   7.814  0.1623  0.0519  0.0440
  459loPI   C6A 7340  15.755  12.634   7.537  0.2003  0.3853 -0.3189
  459loPI   C1B 7341  16.150  11.726   9.374  0.1934  0.0910  0.1923
  459loPI   C2B 7342  16.204  11.600   8.940 -0.3185 -0.1009  0.1641
  459loPI   C3B 7343  16.137  11.683   8.557  0.0993  0.1397 -0.0159
  459loPI   C4B 7344  16.282  11.749   8.122 -0.1449 -0.2723  0.1110
  460loPI    C1 7345  11.922  16.619  10.716 -0.2405 -0.0122  0.0817
  460loPI    C2 7346  12.277  16.515  10.869 -0.2608 -0.2359 -0.0194
  460loPI    C3 7347  12.031  16.752  11.077  0.1773  0.3839 -0.1789
  460loPI   PO4 7348  11.906  16.383  10.535 -0.1022  0.1635  0.0591
  460loPI   GL1 7349  11.911  16.339  10.128  0.0143  0.3411 -0.1713
  460loPI   GL2 7350  12.146  16.245   9.939 -0.2294  0.1077  0.0088
  460loPI   C1A 7351  11.714  16.422   9.724  0.4114  0.0110 -0.2937
  460loPI   C2A 7352  11.324  16.372   9.397 -0.1088  0.0936  0.0473
  460loPI   C3A 7353  11.326  16.360   9.033  0.0627  0.0977  0.0562
  460loPI   C4A 7354  11.601  16.560   8.676 -0.0194  0.2437  0.1337
  460loPI   C5A 7355  11.677  16.555   8.241 -0.1752 -0.0260 -0.2319
  460loPI   C6A 7356  12.052  16.372   7.931 -0.0238 -0.0543  0.1748
  460loPI   C1B 7357  12.138  16.234   9.507 -0.1892  0.1709 -0.0784
  460loPI   C2B 7358  11.819  16.410   9.195  0.3728  0.1679  0.0796
  460loPI   C3B 7359  11.574  16.810   9.243 -0.1504 -0.0576  0.2274
  460loPI   C4B 7360  11.376  17.051   9.401 -0.0701 -0.0902 -0.0281
  461loPI    C1 7361  16.012   9.390  10.976 -0.1226 -0.0403  0.0328
  461loPI    C2 7362  15.938   9.765  11.094  0.0962 -0.0627  0.2476
  461loPI    C3 7363  15.744   9.460  11.265 -0.1866 -0.0403 -0.0262
  461loPI   PO4 7364  16.024   9.448  10.686  0.0829 -0.2727  0.0304
  461loPI   GL1 7365  16.022   9.363  10.260  0.1432 -0.0800  0.0367
  461loPI   GL2 7366  15.976   9.042  10.184  0.0857 -0.1051 -0.0830
  461loPI   C1A 7367  16.251   9.534   9.939 -0.0435 -0.2360  0.2071
  461loPI   C2A 7368  16.337   9.572   9.613 -0.1995  0.1749  0.2045
  461loPI   C3A 7369  16.406   9.612   9.193  0.1940  0.2063  0.2137
  461loPI   C4A 7370  16.296   9.665   8.732  0.0739 -0.0725 -0.1880
  461loPI   C5A 7371  16.271   9.925   8.317  0.1459 -0.2394 -0.1168
  461loPI   C6A 7372  15.916  10.265   8.161 -0.2325  0.1499 -0.1339
  461loPI   C1B 7373  15.976   9.180   9.772  0.2342  0.2784  0.2730
  461loPI   C2B 7374  16.085   9.121   9.331 -0.0336 -0.0991 -0.0495
  461loPI   C3B 7375  16.102   9.265   8.890  0.0497 -0.0176 -0.3114
  461loPI   C4B 7376  16.083   9.307   8.468 -0.1977 -0.0464 -0.1840
  462loPI    C1 7377   4.737   3.077  11.161  0.0554 -0.0471 -0.0352
  462loPI    C2 7378   4.916   2.772  11.348 -0.1870 -0.1981 -0.0460
  462loPI    C3 7379   4.549   2.887  11.458 -0.2776 -0.2011 -0.3373
  462loPI   PO4 7380   4.699   3.004  10.860 -0.3881 -0.0826 -0.2965
  462loPI   GL1 7381   4.530   3.101  10.443  0.0281 -0.4348 -0.3124
  462loPI   GL2 7382   4.223   3.010  10.312 -0.1357 -0.1518  0.3408
  462loPI   C1A 7383   4.652   3.218   9.982  0.0599  0.1736  0.1246
  462loPI   C2A 7384   4.452   3.161   9.539 -0.0469  0.0929  0.3194
  462loPI   C3A 7385   4.399   3.198   9.132 -0.0949  0.0367 -0.3085
  462loPI   C4A 7386   4.459   3.162   8.658 -0.2290  0.1593 -0.2662
  462loPI   C5A 7387   4.594   3.450   8.313 -0.0202  0.0260  0.0531
  462loPI   C6A 7388   4.563   3.887   8.232  0.2548 -0.4695 -0.0385
  462loPI   C1B 7389   4.003   3.109   9.868  0.1312 -0.1933  0.0514
  462loPI   C2B 7390   3.958   3.115   9.547  0.1068  0.3181  0.0575
  462loPI   C3B 7391   3.924   3.028   9.043  0.2083 -0.0670 -0.0097
  462loPI   C4B 7392   3.851   3.024   8.563 -0.0751  0.0437 -0.3247
  463loPI    C1 7393   1.815   0.868  11.377 -0.4056  0.2149  0.1219
  463loPI    C2 7394   2.125   0.895  11.628 -0.3592  0.1445  0.0723
  463loPI    C3 7395   1.892   1.213  11.564 -0.2720  0.2097  0.0775
  463loPI   PO4 7396   1.934   0.787  11.165  0.2525  0.1060 -0.2988
  463loPI   GL1 7397   2.060   0.610  10.736  0.1126  0.0062 -0.2420
  463loPI   GL2 7398   1.794   0.824  10.679  0.2212 -0.1371  0.3364
  463loPI   C1A 7399   2.180   0.674  10.258  0.0195 -0.2337 -0.0963
  463loPI   C2A 7400   1.908   0.607   9.849 -0.0133 -0.1562 -0.0934
  463loPI   C3A 7401   1.946   0.642   9.425  0.0414 -0.3283  0.1732
  463loPI   C4A 7402   1.977   0.705   8.941 -0.2185  0.1425  0.1671
  463loPI   C5A 7403   1.836   0.870   8.539  0.0046  0.0866  0.3474
  463loPI   C6A 7404   1.554   0.645   8.149 -0.1162 -0.0858 -0.1213
  463loPI   C1B 7405   1.693   0.800  10.262  0.0307  0.1428 -0.1087
  463loPI   C2B 7406   1.593   1.023   9.824  0.1430  0.0333 -0.2606
  463loPI   C3B 7407   1.598   1.101   9.406 -0.0941  0.0837 -0.2346
  463loPI   C4B 7408   1.522   0.994   8.927 -0.0984  0.5840  0.0224
  464loPI    C1 7409   6.705   1.057  10.294 -0.1111 -0.2792  0.0449
  464loPI    C2 7410   7.068   1.064  10.464 -0.1115 -0.2487  0.0446
  464loPI    C3 7411   6.774   1.293  10.610  0.0021  0.0977 -0.2533
  464loPI   PO4 7412   6.697   0.839  10.220  0.0539 -0.0654 -0.2391
  464loPI   GL1 7413   6.672   0.626   9.910 -0.1658 -0.1558 -0.0861
  464loPI   GL2 7414   6.961   0.544   9.884 -0.4426  0.2645  0.0624
  464loPI   C1A 7415   6.701   0.616   9.477  0.0125 -0.1299  0.1233
  464loPI   C2A 7416   6.603   0.475   9.051 -0.1794 -0.1053  0.0670
  464loPI   C3A 7417   6.632   0.486   8.615  0.0207 -0.1697  0.0147
  464loPI   C4A 7418   6.745   0.509   8.141 -0.0036  0.0518  0.2612
  464loPI   C5A 7419   6.653   0.382   7.741  0.0617  0.0041 -0.3203
  464loPI   C6A 7420   6.236   0.258   7.637  0.1479  0.1481  0.0198
  464loPI   C1B 7421   7.166   0.665   9.512 -0.2285 -0.2234  0.2583
  464loPI   C2B 7422   7.135   0.621   9.102  0.0963 -0.1114  0.0307
  464loPI   C3B 7423   7.132   0.602   8.666 -0.1587 -0.2391  0.0729
  464loPI   C4B 7424   7.278   0.569   8.288  0.0532 -0.1044  0.0686
  465loPI    C1 7425   1.904   5.492  11.153 -0.0215  0.0748  0.1452
  465loPI    C2 7426   1.990   5.102  11.173  0.1173  0.0920 -0.0773
  465loPI    C3 7427   1.655   5.242  11.341  0.0569 -0.1251 -0.0133
  465loPI   PO4 7428   2.017   5.541  10.848  0.3160  0.2392  0.0275
  465loPI   GL1 7429   2.263   5.641  10.503  0.0430  0.0543  0.3627
  465loPI   GL2 7430   2.528   5.665  10.397  0.3019  0.1207 -0.0807
  465loPI   C1A 7431   2.087   5.458  10.166 -0.0138  0.0905  0.0566
  465loPI   C2A 7432   2.123   5.447   9.738 -0.1389  0.0030 -0.3016
  465loPI   C3A 7433   2.121   5.302   9.420  0.4268 -0.0117 -0.1246
  465loPI   C4A 7434   2.181   5.377   9.040 -0.1202 -0.3756 -0.2737
  465loPI   C5A 7435   2.134   5.241   8.648 -0.0959 -0.2181 -0.2726
  465loPI   C6A 7436   2.065   4.821   8.418 -0.3529 -0.0302  0.0342
  465loPI   C1B 7437   2.695   5.627   9.964  0.0231 -0.2281  0.3517
  465loPI   C2B 7438   2.629   5.530   9.580  0.2514  0.0512 -0.0530
  465loPI   C3B 7439   2.660   5.590   9.113 -0.1805  0.4488  0.0254
  465loPI   C4B 7440   2.543   5.515   8.724  0.0003  0.1440 -0.3107
  466loPI    C1 7441  11.764   9.807  10.568  0.3195 -0.0151  0.2336
  466loPI    C2 7442  11.719  10.077  10.860  0.1505  0.1009  0.1024
  466loPI    C3 7443  11.402   9.875  10.724  0.2601 -0.0915  0.1297
  466loPI   PO4 7444  11.897   9.924  10.399 -0.1879 -0.0327  0.2795
  466loPI   GL1 7445  11.912   9.792   9.956  0.1783 -0.2545 -0.0369
  466loPI   GL2 7446  12.158   9.630   9.803 -0.0010 -0.2058 -0.1875
  466loPI   C1A 7447  11.926  10.044   9.631 -0.1550 -0.0111  0.0826
  466loPI   C2A 7448  11.881  10.083   9.279  0.1550 -0.1136  0.1245
  466loPI   C3A 7449  11.811  10.121   8.845 -0.1274  0.1408 -0.1189
  466loPI   C4A 7450  12.126  10.053   8.507  0.1293 -0.4203  0.2327
  466loPI   C5A 7451  12.272  10.082   8.176 -0.1107  0.0051 -0.0414
  466loPI   C6A 7452  12.341   9.775   7.875 -0.1595  0.0721 -0.1386
  466loPI   C1B 7453  12.273   9.477   9.494 -0.1751 -0.1859  0.0456
  466loPI   C2B 7454  12.376   9.668   9.128  0.0263  0.3770  0.1866
  466loPI   C3B 7455  12.420   9.682   8.722  0.0842 -0.0682 -0.1889
  466loPI   C4B 7456  12.538   9.717   8.359  0.0278  0.0586 -0.0342
  467loPI    C1 7457   4.746  14.175  10.624  0.1682  0.2307  0.1318
  467loPI    C2 7458   4.919  14.298  10.963  0.0487 -0.0250  0.2886
  467loPI    C3 7459   4.551  14.423  10.869  0.0774  0.0369  0.2584
  467loPI   PO4 7460   4.933  14.245  10.398  0.1150  0.0086  0.1046
  467loPI   GL1 7461   4.916  14.462  10.002  0.0712  0.1413  0.1618
  467loPI   GL2 7462   4.612  14.537   9.857 -0.0495  0.2142 -0.1107
  467loPI   C1A 7463   5.236  14.529   9.777  0.0615 -0.2329  0.1522
  467loPI   C2A 7464   5.263  14.559   9.417 -0.2380 -0.2218  0.0140
  467loPI   C3A 7465   5.161  14.720   9.056  0.2435 -0.2762  0.1549
  467loPI   C4A 7466   5.001  14.775   8.660 -0.2244  0.2366 -0.0381
  467loPI   C5A 7467   4.984  14.824   8.151 -0.2126 -0.0103  0.2415
  467loPI   C6A 7468   5.061  14.711   7.774  0.0217  0.0876  0.0482
  467loPI   C1B 7469   4.762  14.430   9.449  0.0721  0.0586  0.0415
  467loPI   C2B 7470   4.647  14.548   9.077 -0.0194  0.3239  0.0386
  467loPI   C3B 7471   4.552  14.561   8.622  0.4308 -0.0925  0.2817
  467loPI   C4B 7472   4.511  14.636   8.160 -0.3064  0.3546  0.0905
  468loPI    C1 7473   7.179   2.162  10.473 -0.0425 -0.0247  0.0709
  468loPI    C2 7474   7.506   2.368  10.373  0.0616 -0.2274 -0.0114
  468loPI    C3 7475   7.337   2.424  10.731  0.0267  0.0759 -0.0726
  468loPI   PO4 7476   6.976   2.207  10.275 -0.1635  0.0420 -0.2095
  468loPI   GL1 7477   6.961   2.406   9.956 -0.0258 -0.3648 -0.1269
  468loPI   GL2 7478   7.314   2.372   9.883  0.2790 -0.1968  0.1767
  468loPI   C1A 7479   6.541   2.250   9.713  0.0479  0.2766  0.2180
  468loPI   C2A 7480   6.411   2.329   9.349  0.1523 -0.2667 -0.0720
  468loPI   C3A 7481   6.149   2.401   8.971  0.0192  0.0055 -0.1254
  468loPI   C4A 7482   6.128   2.169   8.615  0.1376  0.3321 -0.1825
  468loPI   C5A 7483   6.150   2.367   8.263  0.0522  0.1298 -0.1190
  468loPI   C6A 7484   5.871   2.553   7.860 -0.2308  0.2007  0.1400
  468loPI   C1B 7485   7.184   2.245   9.534 -0.3668 -0.3576 -0.2078
  468loPI   C2B 7486   7.206   2.077   9.115  0.0584  0.0688  0.2515
  468loPI   C3B 7487   7.165   1.929   8.754  0.2532  0.0814 -0.0931
  468loPI   C4B 7488   6.986   1.922   8.356 -0.0794  0.0268  0.2451
  469loPI    C1 7489   8.567  14.185  10.429 -0.1228  0.2755  0.0772
  469loPI    C2 7490   8.804  14.145  10.749 -0.0520  0.2080  0.0169
  469loPI    C3 7491   8.438  14.302  10.789 -0.0864  0.0965  0.1499
  469loPI   PO4 7492   8.769  14.256  10.210  0.3456  0.1911  0.2339
  469loPI   GL1 7493   9.039  14.291   9.914  0.2074  0.0349 -0.0467
  469loPI   GL2 7494   8.995  14.139   9.655 -0.0174  0.1906  0.1279
  469loPI   C1A 7495   9.110  14.633   9.577  0.1512 -0.0866  0.0967
  469loPI   C2A 7496   9.093  14.563   9.174  0.2132 -0.0999  0.3557
  469loPI   C3A 7497   8.959  14.705   8.754 -0.0084 -0.0092 -0.1618
  469loPI   C4A 7498   8.913  14.773   8.321 -0.2702  0.0017 -0.0695
  469loPI   C5A 7499   8.772  14.710   7.842  0.0157  0.0978  0.0210
  469loPI   C6A 7500   8.818  14.297   7.578 -0.3734 -0.0302  0.0556
  469loPI   C1B 7501   8.995  13.984   9.284  0.0436 -0.3430  0.2986
  469loPI   C2B 7502   8.996  14.075   8.901  0.2785 -0.1722  0.2457
  469loPI   C3B 7503   8.797  14.146   8.537 -0.0951  0.2104  0.0519
  469loPI   C4B 7504   8.794  14.310   8.171  0.1167 -0.1221 -0.0452
  470loPI    C1 7505   0.039  10.983  10.584  0.2380 -0.2660  0.0016
  470loPI    C2 7506   0.102  11.209  10.908  0.0350 -0.2792  0.0516
  470loPI    C3 7507   0.046  10.815  10.947  0.1274 -0.2987 -0.0110
  470loPI   PO4 7508   0.231  11.142  10.379 -0.1597 -0.3134  0.3965
  470loPI   GL1 7509   0.189  11.505  10.087  0.0007  0.3046  0.3575
  470loPI   GL2 7510  -0.138  11.627  10.038  0.0367  0.1100 -0.1263
  470loPI   C1A 7511   0.103  11.325   9.720  0.0863  0.1506 -0.0457
  470loPI   C2A 7512   0.055  11.408   9.197 -0.1132 -0.0627  0.0540
  470loPI   C3A 7513  -0.017  11.455   8.754 -0.0430 -0.0713 -0.0242
  470loPI   C4A 7514  -0.089  11.391   8.358 -0.1518  0.2868  0.0011
  470loPI   C5A 7515   0.004  11.555   8.020 -0.0092  0.2166  0.2697
  470loPI   C6A 7516   0.032  11.861   7.659 -0.1310  0.2216  0.1375
  470loPI   C1B 7517  -0.343  11.830   9.721 -0.1055 -0.1869 -0.0687
  470loPI   C2B 7518  -0.345  11.741   9.265 -0.3411 -0.0147  0.1440
  470loPI   C3B 7519  -0.347  11.856   8.922  0.2136  0.2308  0.4712
  470loPI   C4B 7520  -0.333  11.832   8.543 -0.3491  0.3602 -0.0132
  471loPI    C1 7521   0.791   4.382  11.267 -0.1924  0.0756  0.1856
  471loPI    C2 7522   0.657   4.754  11.327 -0.2123  0.0510  0.2963
  471loPI    C3 7523   1.035   4.661  11.417 -0.1605  0.0845  0.1171
  471loPI   PO4 7524   0.468   4.320  11.064 -0.1980  0.4729 -0.2303
  471loPI   GL1 7525   0.322   4.213  10.674 -0.0639  0.0777 -0.3556
  471loPI   GL2 7526   0.043   4.012  10.554 -0.1213  0.1698 -0.0168
  471loPI   C1A 7527   0.516   4.544  10.342 -0.1397  0.4810  0.0143
  471loPI   C2A 7528   0.511   4.492   9.952  0.2365 -0.0722  0.2493
  471loPI   C3A 7529   0.465   4.392   9.534 -0.0528  0.1747  0.0270
  471loPI   C4A 7530   0.555   4.450   9.179  0.0782 -0.0049 -0.0695
  471loPI   C5A 7531   0.493   4.417   8.810 -0.2747 -0.0397 -0.1805
  471loPI   C6A 7532   0.195   4.665   8.496 -0.2038  0.1247  0.3865
  471loPI   C1B 7533  -0.076   3.871  10.167  0.1287  0.2611  0.4083
  471loPI   C2B 7534  -0.206   3.796   9.758  0.0694  0.0185 -0.0029
  471loPI   C3B 7535  -0.160   3.829   9.306 -0.0271 -0.2384 -0.1992
  471loPI   C4B 7536  -0.092   3.822   9.007 -0.2018  0.1425  0.1487
  472loPI    C1 7537  16.389  15.562  10.959 -0.2287  0.1545  0.0379
  472loPI    C2 7538  16.320  15.890  11.177 -0.0832  0.0815  0.1961
  472loPI    C3 7539  16.187  15.534  11.303 -0.2046  0.0726  0.0457
  472loPI   PO4 7540  16.562  15.758  10.746 -0.1983  0.1531 -0.0363
  472loPI   GL1 7541  16.447  16.065  10.376 -0.0682  0.1484 -0.1646
  472loPI   GL2 7542  16.725  16.278  10.301  0.2351  0.1115 -0.4463
  472loPI   C1A 7543  16.349  15.861  10.119 -0.2595 -0.0177 -0.0774
  472loPI   C2A 7544  16.266  15.802   9.783  0.0704 -0.1473  0.0447
  472loPI   C3A 7545  16.304  15.966   9.380  0.0575  0.3013 -0.1340
  472loPI   C4A 7546  16.356  16.012   8.993  0.2865 -0.2602 -0.3614
  472loPI   C5A 7547  16.269  15.891   8.640  0.0745  0.1650  0.2097
  472loPI   C6A 7548  16.244  15.442   8.455 -0.1684  0.4054  0.0322
  472loPI   C1B 7549  16.481  16.470   9.956  0.2295 -0.1415 -0.1469
  472loPI   C2B 7550  16.379  16.468   9.528  0.2313  0.1692 -0.1889
  472loPI   C3B 7551  16.434  16.488   9.144 -0.0425  0.0240 -0.2741
  472loPI   C4B 7552  16.430  16.479   8.747 -0.1062 -0.0268 -0.4110
  473loPI    C1 7553   1.391   8.893  10.848  0.1374 -0.1224  0.1023
  473loPI    C2 7554   1.520   8.802  11.215  0.2205  0.0518  0.1170
  473loPI    C3 7555   1.199   9.037  11.168  0.2156  0.0372  0.0784
  473loPI   PO4 7556   1.643   8.827  10.697  0.2861  0.2203 -0.1033
  473loPI   GL1 7557   1.902   8.554  10.467 -0.2428  0.3262  0.3840
  473loPI   GL2 7558   1.873   8.269  10.323 -0.0329 -0.1970  0.0861
  473loPI   C1A 7559   1.975   8.630   9.921  0.1240 -0.2828  0.2075
  473loPI   C2A 7560   1.898   8.595   9.475  0.0036  0.0295 -0.1431
  473loPI   C3A 7561   1.898   8.549   9.080 -0.0958  0.1841  0.3746
  473loPI   C4A 7562   1.879   8.785   8.756  0.0776  0.3596  0.0655
  473loPI   C5A 7563   1.714   8.931   8.414 -0.0875  0.2507  0.0430
  473loPI   C6A 7564   1.768   9.054   7.961  0.0321  0.0766 -0.1188
  473loPI   C1B 7565   1.850   8.167   9.857  0.0044  0.0386  0.3300
  473loPI   C2B 7566   1.827   8.117   9.388  0.1150  0.1696  0.1038
  473loPI   C3B 7567   1.817   8.023   8.943  0.0254 -0.3877  0.1986
  473loPI   C4B 7568   1.545   7.968   8.669 -0.2865  0.3500  0.2201
  474loPI    C1 7569  13.916  16.359  10.746  0.2378 -0.0434 -0.2826
  474loPI    C2 7570  13.835  16.402  11.135 -0.2039 -0.3036 -0.3403
  474loPI    C3 7571  14.186  16.250  11.020 -0.0933 -0.2795 -0.0432
  474loPI   PO4 7572  13.833  16.514  10.635  0.0279  0.2091 -0.0042
  474loPI   GL1 7573  13.765  16.534  10.179 -0.1288  0.1537 -0.1148
  474loPI   GL2 7574  14.062  16.678  10.201 -0.1490 -0.0079 -0.1665
  474loPI   C1A 7575  13.747  16.665   9.805 -0.0605  0.1306 -0.1189
  474loPI   C2A 7576  13.631  16.604   9.351  0.0830  0.0766 -0.1466
  474loPI   C3A 7577  13.644  16.671   8.894 -0.1077  0.1350  0.2159
  474loPI   C4A 7578  13.690  16.622   8.493 -0.2325 -0.0046  0.1852
  474loPI   C5A 7579  13.555  16.690   8.121 -0.1123 -0.0858 -0.0152
  474loPI   C6A 7580  13.452  16.359   8.028  0.0516 -0.1728 -0.4524
  474loPI   C1B 7581  14.195  16.751   9.745  0.0951  0.1593  0.1608
  474loPI   C2B 7582  14.147  16.700   9.302  0.2661 -0.2365  0.1167
  474loPI   C3B 7583  14.192  16.804   8.860  0.0655 -0.0770  0.1626
  474loPI   C4B 7584  14.206  16.813   8.418  0.0604 -0.0098  0.1317
  475loPI    C1 7585   0.533  18.088  11.276  0.0354 -0.0059  0.1778
  475loPI    C2 7586   0.228  17.892  11.445 -0.0457 -0.0502 -0.0172
  475loPI    C3 7587   0.231  18.292  11.442  0.0077 -0.0479  0.1792
  475loPI   PO4 7588   0.580  17.963  11.028  0.0589  0.4883  0.0341
  475loPI   GL1 7589   0.699  17.975  10.603 -0.1160  0.0164 -0.0082
  475loPI   GL2 7590   0.348  18.120  10.549  0.1548  0.1677 -0.0137
  475loPI   C1A 7591   0.837  18.079  10.162 -0.1953  0.2665 -0.2223
  475loPI   C2A 7592   0.912  18.143   9.746  0.0833 -0.1847 -0.1034
  475loPI   C3A 7593   0.833  18.240   9.301  0.3938 -0.2193 -0.0955
  475loPI   C4A 7594   0.783  18.167   8.866  0.0230  0.1259 -0.4597
  475loPI   C5A 7595   0.692  17.992   8.517  0.0822  0.0598  0.0695
  475loPI   C6A 7596   0.620  17.670   8.200  0.1317 -0.1332  0.1354
  475loPI   C1B 7597   0.368  18.009  10.201  0.3065  0.3017  0.0331
  475loPI   C2B 7598   0.340  18.110   9.802 -0.0439  0.0647  0.7925
  475loPI   C3B 7599   0.361  18.018   9.380 -0.1289  0.2160 -0.1591
  475loPI   C4B 7600   0.240  18.029   8.992 -0.3700 -0.0476  0.2561
  476loPI    C1 7601  12.685  14.261  10.689 -0.0316 -0.1346 -0.2807
  476loPI    C2 7602  12.941  14.159  10.979  0.0110 -0.0561 -0.2906
  476loPI    C3 7603  12.960  14.523  10.814 -0.4367  0.1384  0.0662
  476loPI   PO4 7604  12.684  14.079  10.516  0.0533 -0.0573  0.1148
  476loPI   GL1 7605  12.927  14.177  10.172  0.0164 -0.1554  0.0819
  476loPI   GL2 7606  12.857  13.928   9.997 -0.1906  0.1168  0.0703
  476loPI   C1A 7607  12.673  14.367   9.896 -0.0697 -0.1812  0.1129
  476loPI   C2A 7608  12.670  14.577   9.421 -0.1533 -0.2220 -0.0124
  476loPI   C3A 7609  12.383  14.705   9.178 -0.1378 -0.2014 -0.2676
  476loPI   C4A 7610  12.049  14.939   8.925 -0.1455 -0.0770 -0.4272
  476loPI   C5A 7611  11.758  15.110   8.553 -0.0036  0.0262 -0.1029
  476loPI   C6A 7612  11.824  15.340   8.130 -0.2956  0.0406 -0.2149
  476loPI   C1B 7613  12.989  14.161   9.591 -0.0143  0.1803  0.0805
  476loPI   C2B 7614  12.973  14.204   9.194  0.2779  0.2099  0.2865
  476loPI   C3B 7615  13.022  14.101   8.835  0.3441 -0.6284 -0.0787
  476loPI   C4B 7616  12.985  14.128   8.409 -0.1320 -0.2533 -0.3300
  477loPI    C1 7617  18.200  16.577  10.927 -0.2549 -0.1078  0.0189
  477loPI    C2 7618  18.504  16.671  11.170 -0.1866  0.1033 -0.1448
  477loPI    C3 7619  18.127  16.695  11.302 -0.1425  0.0465 -0.0066
  477loPI   PO4 7620  18.303  16.379  10.794 -0.0578 -0.2170  0.0885
  477loPI   GL1 7621  18.400  16.371  10.366 -0.1215 -0.2626  0.0226
  477loPI   GL2 7622  18.812  16.539  10.293  0.1042 -0.1356  0.1609
  477loPI   C1A 7623  18.357  16.414   9.984 -0.2627 -0.0701  0.1432
  477loPI   C2A 7624  18.258  16.568   9.614 -0.0922  0.1970  0.0134
  477loPI   C3A 7625  18.177  16.571   9.107  0.2098 -0.0759 -0.1142
  477loPI   C4A 7626  18.409  16.536   8.762 -0.4393 -0.3255  0.2797
  477loPI   C5A 7627  18.316  16.589   8.402 -0.4418  0.2307 -0.1356
  477loPI   C6A 7628  18.404  16.952   8.143  0.2694 -0.2913 -0.3416
  477loPI   C1B 7629  18.757  16.601   9.780  0.1430 -0.0236 -0.3044
  477loPI   C2B 7630  18.704  16.629   9.362  0.0219 -0.0430  0.0842
  477loPI   C3B 7631  18.789  16.753   9.005  0.0580  0.1986 -0.3270
  477loPI   C4B 7632  18.819  16.891   8.561  0.1478 -0.2538 -0.0096
  478loPI    C1 7633  16.655  16.720  11.363  0.1980 -0.0967 -0.3285
  478loPI    C2 7634  16.539  16.338  11.342  0.0391 -0.0543 -0.2450
  478loPI    C3 7635  16.684  16.484  11.685  0.0368 -0.0220 -0.2577
  478loPI   PO4 7636  16.779  16.785  11.057  0.3081 -0.0056 -0.3727
  478loPI   GL1 7637  16.787  16.667  10.592 -0.0906 -0.2765 -0.1365
  478loPI   GL2 7638  17.009  16.777  10.497  0.3314  0.1992  0.0302
  478loPI   C1A 7639  16.612  16.950  10.159  0.2453  0.0734 -0.0802
  478loPI   C2A 7640  16.636  16.899   9.718 -0.1265  0.1410  0.0350
  478loPI   C3A 7641  16.708  17.003   9.275  0.0573 -0.0899  0.2659
  478loPI   C4A 7642  16.534  16.997   8.874 -0.0143 -0.0655 -0.4058
  478loPI   C5A 7643  16.455  17.037   8.470  0.0742  0.0360  0.0943
  478loPI   C6A 7644  16.245  17.344   8.194 -0.0008 -0.0303 -0.2455
  478loPI   C1B 7645  16.987  16.573  10.023  0.1160 -0.2329  0.1033
  478loPI   C2B 7646  16.868  16.491   9.570  0.0004  0.1841  0.1529
  478loPI   C3B 7647  16.903  16.546   9.134  0.1365 -0.2670 -0.0355
  478loPI   C4B 7648  16.899  16.622   8.781 -0.2951 -0.0572 -0.3979
  479loPI    C1 7649   6.398   6.983  10.100 -0.1283  0.0488  0.1798
  479loPI    C2 7650   6.286   6.873  10.468 -0.0323 -0.1375  0.1544
  479loPI    C3 7651   6.650   6.779  10.334 -0.0539 -0.0385  0.0244
  479loPI   PO4 7652   6.391   7.318   9.999 -0.2158 -0.0494  0.3132
  479loPI   GL1 7653   6.627   7.523   9.687 -0.1189 -0.1110  0.1560
  479loPI   GL2 7654   6.353   7.658   9.439  0.0072  0.0004  0.0296
  479loPI   C1A 7655   6.734   7.292   9.387 -0.0542 -0.0103  0.1381
  479loPI   C2A 7656   6.648   6.966   9.087  0.1015  0.1217  0.0625
  479loPI   C3A 7657   6.658   6.603   8.809  0.1292 -0.0424  0.0061
  479loPI   C4A 7658   6.622   6.383   8.407 -0.0857 -0.0230  0.0442
  479loPI   C5A 7659   6.361   6.213   8.084  0.0766 -0.0418 -0.1876
  479loPI   C6A 7660   5.975   6.148   7.875  0.1941  0.0595  0.0958
  479loPI   C1B 7661   6.314   7.332   8.981  0.1141 -0.1154  0.0711
  479loPI   C2B 7662   6.146   7.186   8.665  0.1449 -0.0132 -0.1681
  479loPI   C3B 7663   5.961   7.089   8.227 -0.4134 -0.2368  0.3087
  479loPI   C4B 7664   6.053   6.958   7.786  0.1997 -0.2910  0.0833
  480loPI    C1 7665   6.241  11.978  10.699 -0.0669 -0.1182  0.2648
  480loPI    C2 7666   6.047  12.009  11.048  0.0192 -0.0119  0.3040
  480loPI    C3 7667   6.176  12.338  10.861  0.0649 -0.0754  0.2233
  480loPI   PO4 7668   6.078  11.905  10.544  0.1156 -0.0075 -0.1271
  480loPI   GL1 7669   5.898  11.965  10.183 -0.3702  0.1983  0.1070
  480loPI   GL2 7670   6.111  11.946   9.948  0.4027  0.1334  0.0545
  480loPI   C1A 7671   5.615  11.968   9.792 -0.2375  0.0201 -0.0400
  480loPI   C2A 7672   5.509  11.874   9.331  0.0079 -0.2225 -0.0076
  480loPI   C3A 7673   5.460  11.953   8.841 -0.0133 -0.0411 -0.3517
  480loPI   C4A 7674   5.378  11.895   8.373  0.2335 -0.0698 -0.0249
  480loPI   C5A 7675   5.277  12.153   8.032 -0.2223 -0.1173 -0.0871
  480loPI   C6A 7676   5.295  12.446   7.621 -0.0944 -0.4275 -0.0102
  480loPI   C1B 7677   6.060  12.081   9.555  0.1386 -0.0564  0.0052
  480loPI   C2B 7678   6.294  12.213   9.136  0.0936  0.0142 -0.0799
  480loPI   C3B 7679   6.431  12.292   8.776  0.1477 -0.0299  0.0279
  480loPI   C4B 7680   6.692  12.388   8.322 -0.0107 -0.0375 -0.1781
  481loPI    C1 7681   2.911  17.259  11.068 -0.2841 -0.1581 -0.2726
  481loPI    C2 7682   3.047  17.036  11.371  0.0424  0.0306 -0.2747
  481loPI    C3 7683   2.686  17.207  11.394  0.0136 -0.0570 -0.0462
  481loPI   PO4 7684   2.970  17.111  10.860 -0.4991 -0.4726 -0.2526
  481loPI   GL1 7685   3.160  17.145  10.407  0.0989 -0.0546  0.0585
  481loPI   GL2 7686   2.838  17.166  10.405 -0.1501  0.2318 -0.1008
  481loPI   C1A 7687   3.382  17.087   9.994  0.0689 -0.1445 -0.0145
  481loPI   C2A 7688   3.369  16.981   9.540  0.0124 -0.2584 -0.2057
  481loPI   C3A 7689   3.536  16.980   9.108 -0.1352  0.2474  0.2515
  481loPI   C4A 7690   3.453  17.086   8.654 -0.2812  0.1625 -0.0533
  481loPI   C5A 7691   3.274  17.121   8.312  0.2871 -0.0383 -0.1437
  481loPI   C6A 7692   3.425  17.194   7.831 -0.1042 -0.0990  0.2497
  481loPI   C1B 7693   2.992  17.405  10.023 -0.3727  0.2805  0.1277
  481loPI   C2B 7694   2.999  17.465   9.610 -0.3018  0.1737  0.1309
  481loPI   C3B 7695   2.959  17.453   9.215 -0.2212 -0.2045  0.0033
  481loPI   C4B 7696   2.979  17.494   8.834  0.2522 -0.1617  0.0001
  482loPI    C1 7697  15.182   9.553  10.728 -0.0613  0.0058 -0.0283
  482loPI    C2 7698  15.562   9.674  10.763 -0.0599 -0.0101  0.0127
  482loPI    C3 7699  15.326   9.658  11.086 -0.0014 -0.3101  0.0434
  482loPI   PO4 7700  15.207   9.470  10.383  0.1242  0.1378 -0.1514
  482loPI   GL1 7701  15.470   9.502   9.978  0.2245 -0.0387  0.1758
  482loPI   GL2 7702  15.273   9.522   9.864  0.2618  0.0348 -0.2031
  482loPI   C1A 7703  15.742   9.644   9.608  0.0730 -0.1214 -0.0234
  482loPI   C2A 7704  15.738   9.594   9.219 -0.1997 -0.1110 -0.0358
  482loPI   C3A 7705  15.753   9.625   8.754  0.1103 -0.0415 -0.1122
  482loPI   C4A 7706  15.783   9.708   8.352 -0.2269  0.2853 -0.2191
  482loPI   C5A 7707  15.620   9.813   7.985 -0.1361  0.2915  0.0855
  482loPI   C6A 7708  15.227   9.801   7.746 -0.1205 -0.1761  0.0175
  482loPI   C1B 7709  15.186   9.500   9.390 -0.1056 -0.0865  0.0952
  482loPI   C2B 7710  15.283   9.527   8.968  0.0596 -0.1919 -0.0825
  482loPI   C3B 7711  15.288   9.575   8.490  0.0627 -0.2849  0.2586
  482loPI   C4B 7712  15.240   9.414   8.046 -0.0472 -0.2497 -0.1460
  483loPI    C1 7713   9.532  16.797  10.650  0.2478 -0.3269 -0.1484
  483loPI    C2 7714   9.852  16.684  10.861  0.1137 -0.1257  0.1697
  483loPI    C3 7715   9.516  16.792  11.050  0.0645  0.2835 -0.1380
  483loPI   PO4 7716   9.636  16.914  10.436  0.0748 -0.1391 -0.0278
  483loPI   GL1 7717   9.727  17.076  10.125  0.1883  0.1837 -0.2726
  483loPI   GL2 7718   9.412  17.183  10.061  0.1841 -0.0778 -0.0142
  483loPI   C1A 7719   9.955  16.971   9.765  0.0396  0.2481 -0.3082
  483loPI   C2A 7720  10.162  16.978   9.316 -0.4609 -0.0315 -0.0808
  483loPI   C3A 7721  10.128  16.930   8.886  0.2842 -0.2368 -0.2279
  483loPI   C4A 7722  10.393  16.795   8.531  0.1675  0.3139  0.0213
  483loPI   C5A 7723  10.363  16.888   8.092 -0.4244  0.1165 -0.0507
  483loPI   C6A 7724  10.453  16.978   7.678 -0.1088 -0.0758  0.1502
  483loPI   C1B 7725   9.576  17.299   9.616  0.1173  0.0751 -0.0690
  483loPI   C2B 7726   9.500  17.261   9.207  0.0142  0.2225  0.3193
  483loPI   C3B 7727   9.575  17.449   8.834  0.1399  0.1471  0.0732
  483loPI   C4B 7728   9.885  17.384   8.417  0.1004  0.1959  0.1321
  484loPI    C1 7729   5.298   7.188  10.768 -0.2907 -0.0492 -0.0038
  484loPI    C2 7730   5.348   7.449  11.067 -0.0125 -0.0976 -0.0049
  484loPI    C3 7731   5.300   7.060  11.147  0.2442 -0.1356 -0.0270
  484loPI   PO4 7732   5.112   7.323  10.532 -0.0793 -0.0921  0.1872
  484loPI   GL1 7733   4.973   7.146  10.096 -0.0935  0.2692  0.0215
  484loPI   GL2 7734   5.092   7.482  10.070  0.2690 -0.4883  0.0545
  484loPI   C1A 7735   4.902   7.245   9.623  0.2535  0.1898 -0.2263
  484loPI   C2A 7736   4.779   7.196   9.251  0.1297  0.1825 -0.1317
  484loPI   C3A 7737   4.890   7.117   8.848  0.1230 -0.0159  0.0476
  484loPI   C4A 7738   4.767   7.030   8.379  0.0727 -0.1372  0.1441
  484loPI   C5A 7739   4.566   7.183   8.080  0.0386  0.3224 -0.0208
  484loPI   C6A 7740   4.175   7.244   7.802  0.1037  0.1767  0.1602
  484loPI   C1B 7741   5.078   7.668   9.713  0.2443  0.3657 -0.1284
  484loPI   C2B 7742   4.998   7.619   9.259  0.0621 -0.1602  0.2267
  484loPI   C3B 7743   4.894   7.593   8.764 -0.3793 -0.1024 -0.0740
  484loPI   C4B 7744   4.700   7.646   8.380 -0.3504  0.1397  0.3716
  485loPI    C1 7745  17.675   4.055  11.239 -0.0894  0.0318 -0.0126
  485loPI    C2 7746  17.505   3.783  11.478  0.2817 -0.2283 -0.0378
  485loPI    C3 7747  17.903   3.791  11.434  0.2567  0.1596 -0.2346
  485loPI   PO4 7748  17.577   4.053  11.009 -0.0066  0.1689 -0.1964
  485loPI   GL1 7749  17.583   3.923  10.551  0.0437  0.0550  0.0247
  485loPI   GL2 7750  17.756   3.590  10.551 -0.1171 -0.1090 -0.1343
  485loPI   C1A 7751  17.920   4.167  10.351  0.1445 -0.2546 -0.0035
  485loPI   C2A 7752  17.923   4.208   9.973  0.2261  0.1402  0.0146
  485loPI   C3A 7753  17.932   4.130   9.569  0.4920 -0.2611  0.2274
  485loPI   C4A 7754  17.917   4.220   9.042  0.1471 -0.2407 -0.1257
  485loPI   C5A 7755  18.014   4.146   8.721  0.3698  0.1147 -0.1575
  485loPI   C6A 7756  18.016   3.770   8.543 -0.1776 -0.1382 -0.2972
  485loPI   C1B 7757  17.801   3.575  10.129  0.0219  0.4908 -0.1957
  485loPI   C2B 7758  17.739   3.552   9.759  0.2308 -0.1317  0.2234
  485loPI   C3B 7759  17.777   3.659   9.395 -0.0082 -0.0235  0.3797
  485loPI   C4B 7760  17.795   3.770   9.004 -0.2439 -0.1355 -0.0222
  486loPI    C1 7761   2.918   7.055  11.201  0.2399  0.1432  0.0351
  486loPI    C2 7762   2.703   7.099  11.535 -0.0196 -0.1710 -0.0860
  486loPI    C3 7763   3.087   6.991  11.557  0.0534  0.1197  0.1204
  486loPI   PO4 7764   2.646   7.000  11.039 -0.1695 -0.0370 -0.0825
  486loPI   GL1 7765   2.643   7.118  10.634  0.2789  0.4956  0.0492
  486loPI   GL2 7766   2.522   6.799  10.495  0.0522  0.0910 -0.0346
  486loPI   C1A 7767   2.931   7.090  10.284  0.0572 -0.0223  0.0026
  486loPI   C2A 7768   2.984   7.161   9.897 -0.0947  0.0527 -0.1509
  486loPI   C3A 7769   2.989   7.089   9.401  0.2308 -0.1717 -0.1165
  486loPI   C4A 7770   2.978   7.050   8.998 -0.0818  0.1135 -0.2111
  486loPI   C5A 7771   2.947   7.057   8.670  0.0008 -0.1959 -0.3455
  486loPI   C6A 7772   2.539   6.872   8.349  0.2891  0.1693  0.1437
  486loPI   C1B 7773   2.489   6.966  10.115  0.3617 -0.0617  0.0223
  486loPI   C2B 7774   2.480   6.956   9.732  0.2503  0.3859  0.1810
  486loPI   C3B 7775   2.511   6.865   9.313 -0.1605  0.0701  0.0431
  486loPI   C4B 7776   2.475   6.944   8.886  0.0095 -0.4594 -0.1060
  487loPI    C1 7777   7.808  13.101  10.082  0.0564 -0.0709 -0.0488
  487loPI    C2 7778   7.908  12.815  10.343 -0.1377 -0.0374  0.0640
  487loPI    C3 7779   7.536  12.831  10.196 -0.1225  0.1441  0.0424
  487loPI   PO4 7780   7.925  13.114   9.844  0.0232 -0.2077 -0.1506
  487loPI   GL1 7781   7.841  13.170   9.459  0.1991 -0.3450  0.2631
  487loPI   GL2 7782   8.096  12.875   9.329 -0.2469  0.2561 -0.4743
  487loPI   C1A 7783   7.760  13.486   9.206 -0.0261 -0.3266 -0.0188
  487loPI   C2A 7784   7.699  13.536   8.882 -0.3178 -0.0210 -0.1986
  487loPI   C3A 7785   7.512  13.566   8.504  0.2795  0.0214  0.0572
  487loPI   C4A 7786   7.328  13.802   8.160  0.1579  0.3251  0.0529
  487loPI   C5A 7787   7.182  13.953   7.729 -0.1205  0.1739 -0.0718
  487loPI   C6A 7788   7.125  14.258   7.380 -0.1868 -0.1500  0.2185
  487loPI   C1B 7789   8.013  13.069   8.966  0.0762  0.1144 -0.0045
  487loPI   C2B 7790   7.918  13.249   8.519 -0.0685 -0.1327 -0.2923
  487loPI   C3B 7791   7.809  13.237   8.151 -0.3156  0.2529  0.0011
  487loPI   C4B 7792   7.888  13.274   7.756 -0.1484  0.0596  0.0901
  488loPI    C1 7793  13.312  12.897  10.664 -0.2387  0.0506  0.1326
  488loPI    C2 7794  13.283  12.954  11.059  0.0817  0.2534  0.1302
  488loPI    C3 7795  13.498  12.649  10.916 -0.0657  0.1574  0.1118
  488loPI   PO4 7796  13.382  13.055  10.569  0.1217 -0.2186  0.0063
  488loPI   GL1 7797  13.410  13.268  10.125  0.0233  0.1712  0.0302
  488loPI   GL2 7798  13.647  13.393   9.997 -0.1603  0.1804  0.3669
  488loPI   C1A 7799  13.274  13.255   9.672  0.1430 -0.0369  0.0572
  488loPI   C2A 7800  13.184  13.287   9.219 -0.0698  0.0897 -0.0474
  488loPI   C3A 7801  13.352  13.211   8.675  0.1380 -0.0126  0.1530
  488loPI   C4A 7802  13.362  13.144   8.227  0.5238 -0.2414 -0.3182
  488loPI   C5A 7803  13.392  13.268   7.772 -0.0057  0.0411 -0.1826
  488loPI   C6A 7804  13.523  13.228   7.316  0.0955 -0.1264 -0.0009
  488loPI   C1B 7805  13.688  13.415   9.467 -0.0871  0.0256 -0.0676
  488loPI   C2B 7806  13.703  13.419   9.077 -0.0527  0.5646 -0.1246
  488loPI   C3B 7807  13.827  13.324   8.714 -0.1793 -0.2673  0.1075
  488loPI   C4B 7808  13.710  13.520   8.360  0.0054  0.0653  0.1350
  489loPI    C1 7809  11.465  13.107  10.372  0.1557 -0.0227 -0.2434
  489loPI    C2 7810  11.336  12.771  10.547  0.0311  0.1111 -0.0748
  489loPI    C3 7811  11.726  12.859  10.546  0.0489  0.0352  0.0036
  489loPI   PO4 7812  11.397  13.131  10.108  0.1360 -0.0199  0.1107
  489loPI   GL1 7813  11.278  13.104   9.691  0.0627  0.3811 -0.4183
  489loPI   GL2 7814  11.262  13.355   9.539  0.0144 -0.0828 -0.0782
  489loPI   C1A 7815  11.053  12.875   9.317  0.0503  0.1718 -0.0392
  489loPI   C2A 7816  11.190  12.874   8.871  0.0393 -0.1940 -0.3106
  489loPI   C3A 7817  10.971  12.778   8.466 -0.1652 -0.0977 -0.0628
  489loPI   C4A 7818  10.832  12.786   8.087 -0.0175  0.0995  0.1596
  489loPI   C5A 7819  10.814  12.507   7.704 -0.2457 -0.3650 -0.0484
  489loPI   C6A 7820  10.853  12.077   7.655  0.1371  0.4248  0.0892
  489loPI   C1B 7821  11.262  13.339   9.136  0.1255 -0.0262  0.0208
  489loPI   C2B 7822  11.197  13.592   8.640 -0.0980  0.1206  0.0628
  489loPI   C3B 7823  11.382  13.640   8.349  0.0440  0.1015 -0.0272
  489loPI   C4B 7824  11.395  13.435   7.854  0.0923  0.2446 -0.2580
  490loPI    C1 7825   8.152   3.398  10.238 -0.2282  0.1822  0.1312
  490loPI    C2 7826   7.834   3.587  10.391 -0.3328  0.1328 -0.0229
  490loPI    C3 7827   7.810   3.198  10.299 -0.1898  0.0996  0.0769
  490loPI   PO4 7828   8.293   3.608  10.149 -0.0605 -0.1669 -0.0792
  490loPI   GL1 7829   8.287   3.709   9.712  0.1798  0.0965 -0.2633
  490loPI   GL2 7830   8.576   3.469   9.749 -0.2781  0.0388  0.2667
  490loPI   C1A 7831   8.440   4.019   9.277 -0.1421 -0.1606  0.0654
  490loPI   C2A 7832   8.385   4.039   8.753 -0.0930 -0.0860  0.0549
  490loPI   C3A 7833   8.265   4.108   8.330  0.0328 -0.0274 -0.4075
  490loPI   C4A 7834   8.085   3.930   7.940  0.3888 -0.3527 -0.0252
  490loPI   C5A 7835   8.011   3.653   7.614 -0.0718 -0.1032 -0.0689
  490loPI   C6A 7836   8.166   3.463   7.258  0.2428  0.2690 -0.0634
  490loPI   C1B 7837   8.488   3.526   9.300 -0.1483 -0.0065 -0.0245
  490loPI   C2B 7838   8.401   3.551   8.910  0.0736  0.1876  0.1490
  490loPI   C3B 7839   8.596   3.637   8.517  0.4067 -0.1822  0.0867
  490loPI   C4B 7840   8.559   3.548   8.128 -0.0899 -0.1374 -0.0582
  491loPI    C1 7841  17.551   2.651  11.140  0.3900 -0.1001 -0.1736
  491loPI    C2 7842  17.321   2.457  11.403  0.1694  0.1278 -0.1941
  491loPI    C3 7843  17.587   2.727  11.532  0.1381  0.1601 -0.1974
  491loPI   PO4 7844  17.339   2.675  10.903 -0.2743  0.0706  0.3550
  491loPI   GL1 7845  17.555   2.394  10.514  0.1242 -0.1262 -0.0070
  491loPI   GL2 7846  17.873   2.309  10.355 -0.0252  0.0113  0.1888
  491loPI   C1A 7847  17.504   2.558  10.132  0.0132  0.1390  0.0358
  491loPI   C2A 7848  17.597   2.673   9.717  0.1845  0.0353  0.0854
  491loPI   C3A 7849  17.536   2.686   9.274  0.3654 -0.1438 -0.0799
  491loPI   C4A 7850  17.627   2.596   8.811 -0.3386  0.0437 -0.0693
  491loPI   C5A 7851  17.669   2.697   8.413 -0.2432  0.2437  0.2009
  491loPI   C6A 7852  17.495   2.708   8.027 -0.2893  0.0164  0.0506
  491loPI   C1B 7853  17.928   2.261   9.936 -0.4812  0.0443 -0.0001
  491loPI   C2B 7854  17.978   2.271   9.423 -0.3989  0.2059  0.0790
  491loPI   C3B 7855  17.942   2.186   9.022  0.0063  0.0280  0.1105
  491loPI   C4B 7856  17.953   2.293   8.621  0.0486  0.0989 -0.1134
  492loPI    C1 7857   9.723   0.870  10.822  0.2298 -0.1976  0.0201
  492loPI    C2 7858   9.657   1.226  10.992  0.1419 -0.2928  0.1882
  492loPI    C3 7859   9.720   0.904  11.221 -0.0113 -0.4295  0.0405
  492loPI   PO4 7860   9.574   0.901  10.523 -0.1209  0.0146 -0.0131
  492loPI   GL1 7861   9.884   1.021  10.229 -0.2229  0.1145  0.0926
  492loPI   GL2 7862  10.191   1.239  10.223 -0.1940  0.1449  0.1303
  492loPI   C1A 7863  10.043   1.019   9.830 -0.0151 -0.2993  0.0622
  492loPI   C2A 7864  10.219   0.953   9.523  0.2179  0.2113 -0.0468
  492loPI   C3A 7865  10.195   0.969   9.141  0.2396  0.3202 -0.0157
  492loPI   C4A 7866  10.082   1.001   8.713 -0.2469  0.0564  0.0623
  492loPI   C5A 7867   9.991   1.014   8.300 -0.1463 -0.1419 -0.0084
  492loPI   C6A 7868   9.681   0.929   8.072 -0.1276 -0.0028 -0.1129
  492loPI   C1B 7869  10.262   1.560   9.859 -0.0981  0.1577 -0.3752
  492loPI   C2B 7870  10.234   1.522   9.459  0.0663 -0.2201  0.1538
  492loPI   C3B 7871  10.231   1.506   8.899  0.0489 -0.4062 -0.1663
  492loPI   C4B 7872  10.269   1.456   8.450  0.0064 -0.0579  0.3911
  493loPI    C1 7873   3.134  10.952  10.740 -0.0782  0.0291  0.1288
  493loPI    C2 7874   3.359  10.987  11.069  0.2730 -0.2454 -0.0756
  493loPI    C3 7875   3.412  10.676  10.822 -0.0024 -0.0559 -0.3811
  493loPI   PO4 7876   3.112  11.167  10.632 -0.1856 -0.1462  0.0136
  493loPI   GL1 7877   3.022  11.309  10.267 -0.2897  0.1498  0.3418
  493loPI   GL2 7878   2.990  10.973  10.177  0.1739  0.2707 -0.2201
  493loPI   C1A 7879   2.725  11.199   9.832 -0.0402  0.2151 -0.0383
  493loPI   C2A 7880   2.727  11.085   9.412 -0.0840 -0.2832 -0.0855
  493loPI   C3A 7881   2.759  11.170   9.040  0.0495  0.1324 -0.0843
  493loPI   C4A 7882   2.691  11.321   8.666  0.0693  0.1950  0.2176
  493loPI   C5A 7883   2.642  11.463   8.321 -0.1979  0.2101  0.0122
  493loPI   C6A 7884   2.383  11.384   7.967 -0.2985 -0.2679 -0.0110
  493loPI   C1B 7885   3.119  10.817   9.808  0.1303 -0.0439 -0.0495
  493loPI   C2B 7886   3.154  10.830   9.284  0.1563 -0.0473 -0.2382
  493loPI   C3B 7887   3.320  10.805   8.851 -0.1686  0.0564 -0.1050
  493loPI   C4B 7888   3.251  10.573   8.427 -0.0441 -0.1497  0.1949
  494loPI    C1 7889   1.061  10.902  10.519 -0.1237  0.0817 -0.0282
  494loPI    C2 7890   1.315  11.122  10.303 -0.4405  0.3806 -0.1049
  494loPI    C3 7891   1.317  11.149  10.702  0.0290 -0.0449 -0.0688
  494loPI   PO4 7892   1.135  10.672  10.420 -0.0802 -0.2510  0.1891
  494loPI   GL1 7893   1.171  10.507  10.102  0.0971  0.0537  0.2049
  494loPI   GL2 7894   1.249  10.737   9.932  0.1767 -0.4004 -0.0369
  494loPI   C1A 7895   1.129  10.365   9.622 -0.1808 -0.0287 -0.0940
  494loPI   C2A 7896   1.287  10.401   9.293  0.0049 -0.0597 -0.0819
  494loPI   C3A 7897   1.398  10.693   8.946  0.0589 -0.1260  0.1454
  494loPI   C4A 7898   1.272  10.819   8.499 -0.2324  0.0285  0.0301
  494loPI   C5A 7899   1.445  10.813   8.043  0.2827 -0.2433 -0.0884
  494loPI   C6A 7900   1.557  10.549   7.770 -0.2767  0.2047  0.0700
  494loPI   C1B 7901   1.301  10.842   9.535  0.0288 -0.0829 -0.0781
  494loPI   C2B 7902   1.538  11.147   9.397 -0.1038 -0.0665  0.3682
  494loPI   C3B 7903   1.450  11.198   8.948 -0.0864 -0.0625 -0.1839
  494loPI   C4B 7904   1.304  11.438   8.626  0.0805  0.3412  0.1397
  495loPI    C1 7905   0.162   6.617  11.099  0.1755 -0.0486 -0.0134
  495loPI    C2 7906   0.249   6.231  11.159  0.0325 -0.0666  0.0830
  495loPI    C3 7907  -0.124   6.364  11.218  0.0470  0.0568 -0.0948
  495loPI   PO4 7908   0.241   6.605  10.851  0.1374 -0.1513  0.1332
  495loPI   GL1 7909   0.285   6.588  10.379  0.2234 -0.1333  0.1788
  495loPI   GL2 7910   0.168   6.325  10.324  0.1202 -0.1620 -0.0763
  495loPI   C1A 7911   0.572   6.324  10.030  0.1033  0.0587 -0.2031
  495loPI   C2A 7912   0.552   6.325   9.616 -0.1734 -0.1476 -0.0760
  495loPI   C3A 7913   0.521   6.281   9.195  0.3649 -0.3147  0.0726
  495loPI   C4A 7914   0.605   6.251   8.764 -0.0989 -0.1495 -0.1603
  495loPI   C5A 7915   0.717   6.470   8.389 -0.1092  0.1662  0.1196
  495loPI   C6A 7916   0.840   6.360   8.078 -0.2687 -0.1834 -0.0158
  495loPI   C1B 7917   0.077   6.165   9.879 -0.0628 -0.0194  0.0008
  495loPI   C2B 7918   0.054   6.167   9.484  0.1123  0.0326  0.1273
  495loPI   C3B 7919  -0.014   6.185   9.030 -0.0243  0.2138  0.0767
  495loPI   C4B 7920   0.059   6.330   8.584 -0.0725 -0.1591 -0.0599
  496loPI    C1 7921   1.768  14.650  10.705  0.0816 -0.0052 -0.0958
  496loPI    C2 7922   1.974  14.914  10.923 -0.0760  0.0648 -0.0298
  496loPI    C3 7923   2.070  14.526  10.936 -0.0262  0.0806  0.0941
  496loPI   PO4 7924   1.775  14.802  10.470 -0.3265  0.1480  0.0625
  496loPI   GL1 7925   1.659  15.037  10.152 -0.2590 -0.1682 -0.0518
  496loPI   GL2 7926   1.919  15.084   9.882 -0.0326 -0.1892 -0.2666
  496loPI   C1A 7927   1.427  15.012   9.685 -0.3136  0.1596  0.3071
  496loPI   C2A 7928   1.403  15.135   9.233  0.0704 -0.2159  0.0159
  496loPI   C3A 7929   1.494  15.066   8.921  0.0133 -0.1194 -0.1548
  496loPI   C4A 7930   1.534  15.181   8.463 -0.3317 -0.1871 -0.1120
  496loPI   C5A 7931   1.595  15.069   8.011 -0.0527 -0.2872 -0.1677
  496loPI   C6A 7932   1.657  15.169   7.533  0.1340  0.0787 -0.1206
  496loPI   C1B 7933   1.916  15.167   9.504  0.1638 -0.1994  0.0264
  496loPI   C2B 7934   2.034  15.208   9.124  0.1069 -0.0315  0.0522
  496loPI   C3B 7935   2.035  15.258   8.646  0.1594 -0.0209 -0.0483
  496loPI   C4B 7936   1.929  15.523   8.318 -0.0832  0.1293  0.2568
  497loPI    C1 7937   5.927   1.516  10.754 -0.0199 -0.1866 -0.1468
  497loPI    C2 7938   5.626   1.561  11.013 -0.1170 -0.0177 -0.2868
  497loPI    C3 7939   5.989   1.455  11.144 -0.1467  0.1379 -0.0732
  497loPI   PO4 7940   5.785   1.412  10.560  0.3942 -0.1612  0.1589
  497loPI   GL1 7941   5.627   1.315  10.140  0.0611  0.2202  0.2266
  497loPI   GL2 7942   5.669   1.589  10.027  0.0890 -0.1158 -0.2517
  497loPI   C1A 7943   5.648   1.033   9.830 -0.2045 -0.1597  0.1053
  497loPI   C2A 7944   5.500   0.999   9.439  0.0714  0.0943 -0.0255
  497loPI   C3A 7945   5.332   1.121   9.052 -0.0959  0.1280 -0.0054
  497loPI   C4A 7946   5.319   1.069   8.613 -0.0213  0.0012 -0.2942
  497loPI   C5A 7947   5.464   1.175   8.159  0.0061 -0.0824 -0.0004
  497loPI   C6A 7948   5.492   1.074   7.677 -0.1482  0.2109  0.0768
  497loPI   C1B 7949   5.410   1.455   9.565 -0.1251 -0.3046 -0.0830
  497loPI   C2B 7950   5.393   1.584   9.117 -0.2681 -0.4536 -0.1768
  497loPI   C3B 7951   5.333   1.590   8.727  0.2449  0.0624 -0.0205
  497loPI   C4B 7952   5.515   1.687   8.357 -0.1721 -0.0680 -0.0275
  498loPI    C1 7953   2.768   6.036  11.128  0.0709 -0.0988 -0.0336
  498loPI    C2 7954   3.028   6.006  11.430  0.0695 -0.0031 -0.0226
  498loPI    C3 7955   2.712   5.761  11.413  0.0323  0.0361  0.0904
  498loPI   PO4 7956   2.868   6.041  10.884 -0.0380 -0.0077 -0.3524
  498loPI   GL1 7957   2.659   6.229  10.556  0.0176  0.1105  0.0354
  498loPI   GL2 7958   2.423   6.088  10.641  0.1562 -0.0526  0.1153
  498loPI   C1A 7959   2.785   6.142  10.214  0.0977  0.1187  0.1798
  498loPI   C2A 7960   2.818   6.172   9.800  0.0883  0.1007  0.3257
  498loPI   C3A 7961   2.750   6.061   9.411  0.2025 -0.0459  0.1898
  498loPI   C4A 7962   2.807   6.043   8.978  0.1709 -0.0204 -0.0492
  498loPI   C5A 7963   2.765   5.916   8.499 -0.1038  0.2305 -0.0700
  498loPI   C6A 7964   2.617   5.821   8.136 -0.1714 -0.4954 -0.1091
  498loPI   C1B 7965   2.210   6.036  10.217 -0.1292  0.0495  0.0440
  498loPI   C2B 7966   2.343   5.948   9.828 -0.1225  0.2603  0.2927
  498loPI   C3B 7967   2.249   5.788   9.384 -0.4618 -0.3199 -0.0054
  498loPI   C4B 7968   2.288   5.912   8.971 -0.0591  0.0131  0.0988
  499loPI    C1 7969   1.151   7.140  10.850  0.0093  0.2250 -0.3560
  499loPI    C2 7970   1.202   7.533  10.797  0.1763  0.2392 -0.1082
  499loPI    C3 7971   1.350   7.355  11.123 -0.1511  0.0217 -0.0734
  499loPI   PO4 7972   1.098   7.005  10.623 -0.0477 -0.0561 -0.1606
  499loPI   GL1 7973   1.245   6.938  10.287 -0.0191 -0.1383  0.1690
  499loPI   GL2 7974   1.476   6.750  10.264 -0.0478  0.0012 -0.0014
  499loPI   C1A 7975   1.187   6.979   9.925  0.0631  0.4497  0.0332
  499loPI   C2A 7976   1.240   6.877   9.452  0.0138  0.0505 -0.1500
  499loPI   C3A 7977   1.148   6.875   9.071 -0.2023  0.2499 -0.0128
  499loPI   C4A 7978   1.129   6.802   8.746 -0.1100 -0.0322  0.0070
  499loPI   C5A 7979   1.180   6.811   8.373  0.0758 -0.2710 -0.0950
  499loPI   C6A 7980   1.305   6.451   8.200 -0.3701 -0.0586 -0.1454
  499loPI   C1B 7981   1.457   6.611   9.841  0.0926  0.0618 -0.0081
  499loPI   C2B 7982   1.545   6.525   9.454 -0.2473 -0.0319  0.0671
  499loPI   C3B 7983   1.513   6.497   9.085 -0.4199 -0.0146 -0.1683
  499loPI   C4B 7984   1.574   6.500   8.657 -0.1743  0.2331  0.2786
  500loPI    C1 7985  12.789  11.855  10.373 -0.2901 -0.0391  0.2629
  500loPI    C2 7986  12.612  11.563  10.580 -0.3589 -0.0728  0.1570
  500loPI    C3 7987  12.574  11.943  10.699 -0.1536 -0.1187  0.3756
  500loPI   PO4 7988  12.848  11.715  10.176 -0.0216  0.2094 -0.3070
  500loPI   GL1 7989  13.189  11.711   9.821  0.1917 -0.2112 -0.0428
  500loPI   GL2 7990  13.414  11.809   9.708  0.1702 -0.1478  0.1556
  500loPI   C1A 7991  12.949  11.729   9.384  0.0595  0.0617  0.0687
  500loPI   C2A 7992  12.928  11.733   8.943  0.0212  0.0405  0.3138
  500loPI   C3A 7993  12.957  11.879   8.518  0.0986  0.1045 -0.0347
  500loPI   C4A 7994  12.886  11.940   8.197 -0.0585 -0.0135  0.0657
  500loPI   C5A 7995  12.983  11.829   7.814  0.1943  0.4104 -0.2109
  500loPI   C6A 7996  12.966  11.622   7.297 -0.1307  0.0559 -0.0049
  500loPI   C1B 7997  13.363  11.931   9.256  0.2081  0.0231 -0.1358
  500loPI   C2B 7998  13.464  11.738   8.889  0.1072 -0.2065  0.0379
  500loPI   C3B 7999  13.470  11.876   8.487 -0.1394  0.0050  0.0362
  500loPI   C4B 8000  13.394  11.879   8.122 -0.2255 -0.2382  0.1647
  501loPI    C1 8001   1.459  14.753  11.057  0.0449  0.0057 -0.0677
  501loPI    C2 8002   1.451  14.362  10.973 -0.2329 -0.0246  0.0847
  501loPI    C3 8003   1.633  14.492  11.305  0.0008 -0.0058 -0.0486
  501loPI   PO4 8004   1.141  14.798  10.936 -0.0266 -0.1286  0.0468
  501loPI   GL1 8005   0.910  14.872  10.477 -0.1314 -0.1173 -0.2315
  501loPI   GL2 8006   0.695  14.863  10.327 -0.3289  0.1258  0.0353
  501loPI   C1A 8007   1.095  14.721  10.061 -0.0541 -0.1749  0.2397
  501loPI   C2A 8008   0.894  14.911   9.651 -0.2576  0.2624 -0.4906
  501loPI   C3A 8009   0.963  14.974   9.204 -0.0447  0.0111  0.2680
  501loPI   C4A 8010   1.009  15.019   8.700 -0.4343  0.0910  0.0870
  501loPI   C5A 8011   1.048  15.024   8.240  0.3074 -0.0655 -0.0153
  501loPI   C6A 8012   0.747  14.715   7.898 -0.1639 -0.1335 -0.1572
  501loPI   C1B 8013   0.451  14.909   9.913 -0.2171 -0.0458 -0.0047
  501loPI   C2B 8014   0.370  14.802   9.509  0.0049 -0.2570 -0.1999
  501loPI   C3B 8015   0.397  14.809   9.166  0.1175 -0.4128  0.2619
  501loPI   C4B 8016   0.416  15.001   8.745  0.1233 -0.0565 -0.0269
  502loPI    C1 8017   7.752   7.362  10.257  0.0803 -0.1554  0.0286
  502loPI    C2 8018   8.136   7.271  10.320  0.0824 -0.0311  0.1987
  502loPI    C3 8019   7.849   7.069  10.512  0.0608 -0.1428  0.0506
  502loPI   PO4 8020   7.715   7.399  10.020 -0.1806 -0.1357 -0.1233
  502loPI   GL1 8021   7.665   7.169   9.699  0.1220  0.1750 -0.2171
  502loPI   GL2 8022   7.949   7.382   9.545  0.0971 -0.0479  0.2186
  502loPI   C1A 8023   7.516   7.243   9.278  0.0215  0.1144  0.0484
  502loPI   C2A 8024   7.117   7.255   9.055  0.2657 -0.0392 -0.0626
  502loPI   C3A 8025   7.055   6.940   8.802  0.0293 -0.1168 -0.3252
  502loPI   C4A 8026   6.995   6.712   8.394 -0.4044 -0.0386  0.0893
  502loPI   C5A 8027   7.155   6.703   7.951  0.3769  0.2250  0.1312
  502loPI   C6A 8028   7.345   6.542   7.685 -0.1705 -0.1036 -0.1606
  502loPI   C1B 8029   7.969   7.505   9.107 -0.1126  0.0527 -0.0111
  502loPI   C2B 8030   7.809   7.504   8.642 -0.2909  0.0293 -0.0089
  502loPI   C3B 8031   7.599   7.523   8.275 -0.0618  0.4158  0.0235
  502loPI   C4B 8032   7.528   7.446   7.923  0.1246 -0.0476  0.2567
  503loPI    C1 8033   8.845  15.825  10.784  0.1353 -0.0734 -0.2329
  503loPI    C2 8034   9.236  15.764  10.838  0.1454  0.0824 -0.1238
  503loPI    C3 8035   9.055  16.071  11.020 -0.0142  0.0502 -0.2270
  503loPI   PO4 8036   8.781  15.892  10.575 -0.0941 -0.0240  0.3644
  503loPI   GL1 8037   8.595  15.913  10.176  0.1771 -0.0156  0.1796
  503loPI   GL2 8038   8.707  15.723  10.042  0.0774  0.0318 -0.2504
  503loPI   C1A 8039   8.589  16.239   9.859 -0.1599  0.0247 -0.2317
  503loPI   C2A 8040   8.569  16.394   9.432 -0.1451 -0.0083 -0.2156
  503loPI   C3A 8041   8.534  16.588   9.059  0.1252  0.2225  0.0266
  503loPI   C4A 8042   8.402  16.552   8.697  0.0386 -0.2963  0.3341
  503loPI   C5A 8043   8.521  16.684   8.288  0.0480 -0.2026 -0.0682
  503loPI   C6A 8044   8.559  16.560   7.862  0.0376 -0.4038 -0.1434
  503loPI   C1B 8045   8.515  15.789   9.626 -0.3501 -0.2282 -0.0459
  503loPI   C2B 8046   8.389  15.937   9.168 -0.2702 -0.2174 -0.1743
  503loPI   C3B 8047   8.225  16.133   8.803  0.1274  0.2216  0.2132
  503loPI   C4B 8048   8.151  16.275   8.314 -0.1641  0.3827  0.0293
  504loPI    C1 8049   8.969  10.142   9.848  0.3641 -0.0313  0.2147
  504loPI    C2 8050   9.150   9.874   9.613 -0.0696 -0.1299 -0.0155
  504loPI    C3 8051   8.783   9.801   9.755  0.0148  0.1195  0.3438
  504loPI   PO4 8052   9.271  10.242   9.917  0.0070 -0.2375  0.0315
  504loPI   GL1 8053   9.508  10.387   9.536  0.1664  0.1770 -0.1844
  504loPI   GL2 8054   9.569  10.111   9.448  0.0614 -0.2687 -0.0023
  504loPI   C1A 8055   9.584  10.481   9.132  0.1205  0.0200  0.4933
  504loPI   C2A 8056   9.722  10.512   8.753  0.0409 -0.3656 -0.2948
  504loPI   C3A 8057   9.888  10.359   8.412  0.0881 -0.0929  0.0544
  504loPI   C4A 8058   9.818  10.451   7.955  0.0375 -0.1359 -0.0236
  504loPI   C5A 8059   9.964  10.497   7.623 -0.2677 -0.0730 -0.0079
  504loPI   C6A 8060  10.121  10.217   7.369 -0.0184  0.2211  0.1200
  504loPI   C1B 8061   9.161  10.207   9.231  0.4458  0.1005  0.0998
  504loPI   C2B 8062   9.021  10.094   8.772 -0.0907 -0.1998  0.1612
  504loPI   C3B 8063   8.717  10.133   8.469 -0.4201  0.1248 -0.2001
  504loPI   C4B 8064   8.493  10.130   8.110 -0.0483 -0.0341 -0.2016
  505loPI    C1 8065   5.617  11.536  10.277  0.0983  0.0430  0.2360
  505loPI    C2 8066   5.344  11.481  10.564 -0.0951  0.1314  0.0721
  505loPI    C3 8067   5.298  11.777  10.299  0.0996  0.0724 -0.0295
  505loPI   PO4 8068   5.718  11.232  10.171  0.2755 -0.2596 -0.2529
  505loPI   GL1 8069   5.637  10.916   9.869 -0.0811 -0.0274  0.2536
  505loPI   GL2 8070   5.682  10.647   9.697  0.1328  0.1213  0.3597
  505loPI   C1A 8071   5.355  10.974   9.419 -0.0085 -0.1405 -0.3457
  505loPI   C2A 8072   5.293  10.994   8.955 -0.0373 -0.0815 -0.0595
  505loPI   C3A 8073   5.422  11.231   8.602  0.2936  0.3109  0.0879
  505loPI   C4A 8074   5.463  11.407   8.271  0.1928  0.2172 -0.0484
  505loPI   C5A 8075   5.367  11.654   7.887 -0.2643 -0.1500 -0.0569
  505loPI   C6A 8076   5.473  11.874   7.585  0.1321  0.0668  0.3104
  505loPI   C1B 8077   5.795  10.686   9.241  0.0916 -0.3569 -0.1124
  505loPI   C2B 8078   5.639  10.544   8.884 -0.3325 -0.0249  0.0370
  505loPI   C3B 8079   5.681  10.345   8.392  0.0651 -0.0065 -0.0536
  505loPI   C4B 8080   5.708  10.082   8.105 -0.3924 -0.2349  0.1733
  506loPI    C1 8081  15.023   3.945  10.640 -0.0281 -0.0308  0.0471
  506loPI    C2 8082  15.189   4.230  10.413 -0.3333  0.1909  0.0966
  506loPI    C3 8083  15.086   4.310  10.791 -0.0507 -0.1060  0.2404
  506loPI   PO4 8084  15.115   3.729  10.541 -0.0943  0.2682 -0.3458
  506loPI   GL1 8085  15.085   3.513  10.236 -0.0337  0.2766 -0.0769
  506loPI   GL2 8086  14.857   3.371  10.215 -0.0750 -0.1972 -0.0065
  506loPI   C1A 8087  15.425   3.504   9.878  0.0865 -0.1078 -0.0993
  506loPI   C2A 8088  15.333   3.449   9.492  0.2896  0.1578 -0.3197
  506loPI   C3A 8089  15.492   3.455   9.036 -0.1463  0.0400 -0.1837
  506loPI   C4A 8090  15.508   3.444   8.638  0.5393  0.0202  0.1045
  506loPI   C5A 8091  15.491   3.660   8.251  0.2294  0.2998  0.2112
  506loPI   C6A 8092  15.748   3.668   7.822  0.0418  0.2865 -0.0026
  506loPI   C1B 8093  14.939   3.309   9.752  0.3397  0.0897  0.2822
  506loPI   C2B 8094  14.926   3.221   9.253  0.4997 -0.1029 -0.2441
  506loPI   C3B 8095  14.955   3.301   8.810 -0.0678  0.3007  0.0541
  506loPI   C4B 8096  15.069   3.404   8.300  0.0338 -0.0811 -0.1034
  507loPI    C1 8097  13.031   1.751  10.898 -0.0187 -0.2719  0.1363
  507loPI    C2 8098  12.966   1.644  11.277  0.2317  0.2745  0.3445
  507loPI    C3 8099  12.730   1.915  11.103  0.1652  0.0823  0.1300
  507loPI   PO4 8100  13.259   1.619  10.846  0.0386 -0.0037  0.2199
  507loPI   GL1 8101  13.513   1.467  10.732 -0.0419  0.2015  0.0009
  507loPI   GL2 8102  13.731   1.446  10.512  0.1404  0.2502 -0.0769
  507loPI   C1A 8103  13.471   1.450  10.133 -0.2610  0.1926 -0.0945
  507loPI   C2A 8104  13.561   1.508   9.584 -0.4077 -0.1646  0.3357
  507loPI   C3A 8105  13.564   1.435   9.264  0.2857 -0.0945  0.3157
  507loPI   C4A 8106  13.534   1.462   8.732  0.2840  0.1380 -0.0525
  507loPI   C5A 8107  13.800   1.449   8.379  0.0085 -0.4016 -0.0278
  507loPI   C6A 8108  14.204   1.595   8.074  0.0473  0.0138  0.0724
  507loPI   C1B 8109  13.921   1.197  10.275  0.1711  0.2439 -0.1231
  507loPI   C2B 8110  13.881   1.168   9.836 -0.0127 -0.1834 -0.0046
  507loPI   C3B 8111  13.936   1.133   9.477 -0.1838 -0.1471  0.2607
  507loPI   C4B 8112  13.964   1.176   9.097 -0.2060 -0.0830  0.0981
  508loPI    C1 8113   4.534   5.178  10.723  0.1191  0.1654 -0.1248
  508loPI    C2 8114   4.832   4.979  10.544  0.0673  0.1392 -0.1822
  508loPI    C3 8115   4.894   5.158  10.896  0.1142  0.0210 -0.1300
  508loPI   PO4 8116   4.466   5.325  10.547  0.2612  0.3103  0.3568
  508loPI   GL1 8117   4.227   5.375  10.192 -0.1676 -0.0277 -0.2787
  508loPI   GL2 8118   3.828   5.314  10.088 -0.0361 -0.0535 -0.1426
  508loPI   C1A 8119   4.089   5.558   9.732 -0.0141 -0.4244 -0.2649
  508loPI   C2A 8120   4.127   5.432   9.308 -0.1472  0.0223  0.2238
  508loPI   C3A 8121   4.001   5.419   8.932  0.1593  0.3901  0.0987
  508loPI   C4A 8122   4.024   5.533   8.463  0.2115  0.1038 -0.1239
  508loPI   C5A 8123   3.993   5.443   8.112  0.1225  0.1453  0.0763
  508loPI   C6A 8124   3.879   5.148   7.778 -0.2917  0.0299 -0.0501
  508loPI   C1B 8125   3.880   5.117   9.674 -0.0834  0.1149 -0.0230
  508loPI   C2B 8126   3.847   5.007   9.259  0.0395 -0.1225 -0.0515
  508loPI   C3B 8127   3.866   4.902   8.796  0.0568  0.1861 -0.0432
  508loPI   C4B 8128   3.698   5.090   8.297  0.2608  0.0312 -0.1867
  509loPI    C1 8129   6.010   2.793  10.559  0.0488 -0.0455  0.0244
  509loPI    C2 8130   6.390   2.736  10.670  0.0446  0.2513  0.2020
  509loPI    C3 8131   6.164   3.004  10.862 -0.2338  0.1301  0.0491
  509loPI   PO4 8132   5.894   2.458  10.390  0.1921 -0.0840  0.2696
  509loPI   GL1 8133   5.424   2.314  10.352  0.0438  0.0372 -0.1277
  509loPI   GL2 8134   5.165   2.224  10.447 -0.0375  0.0918 -0.1326
  509loPI   C1A 8135   5.407   2.384   9.904 -0.2263  0.1310  0.1732
  509loPI   C2A 8136   5.273   2.451   9.547 -0.1561 -0.0176 -0.1431
  509loPI   C3A 8137   5.188   2.493   9.144 -0.0782  0.0900  0.0365
  509loPI   C4A 8138   5.202   2.568   8.744  0.1555 -0.1457 -0.1595
  509loPI   C5A 8139   5.060   2.456   8.352 -0.2193 -0.4820  0.0900
  509loPI   C6A 8140   5.095   2.727   7.999  0.0542 -0.1308  0.1400
  509loPI   C1B 8141   4.965   2.263  10.119  0.1705  0.0938  0.1753
  509loPI   C2B 8142   4.774   2.320   9.747 -0.0218 -0.0131 -0.0956
  509loPI   C3B 8143   4.795   2.308   9.307  0.0280 -0.1676  0.0096
  509loPI   C4B 8144   4.698   2.336   8.898 -0.1557  0.1887  0.0932
  510loPI    C1 8145   2.887   9.388  10.871 -0.2125 -0.2236 -0.0231
  510loPI    C2 8146   3.254   9.293  10.744 -0.1351 -0.0097  0.0362
  510loPI    C3 8147   3.094   9.101  11.057  0.0084  0.0352  0.1384
  510loPI   PO4 8148   2.723   9.401  10.565  0.0257 -0.3420  0.0795
  510loPI   GL1 8149   2.884   9.337  10.125 -0.3172  0.0549  0.1492
  510loPI   GL2 8150   2.685   9.323   9.957  0.1892 -0.1950  0.0024
  510loPI   C1A 8151   3.173   9.189   9.738  0.2019 -0.2440 -0.0224
  510loPI   C2A 8152   3.279   9.183   9.370 -0.1230 -0.2126  0.2351
  510loPI   C3A 8153   3.364   9.115   8.926 -0.0749  0.3626  0.4820
  510loPI   C4A 8154   3.417   9.177   8.473 -0.2129  0.0346  0.1170
  510loPI   C5A 8155   3.421   9.087   8.093  0.5356  0.3578  0.3434
  510loPI   C6A 8156   3.066   8.993   7.805 -0.2771 -0.1079 -0.2180
  510loPI   C1B 8157   2.599   9.250   9.522  0.0090  0.0704  0.1761
  510loPI   C2B 8158   2.911   9.359   9.115 -0.2286 -0.0941  0.0934
  510loPI   C3B 8159   2.868   9.378   8.629  0.0180  0.0496 -0.1766
  510loPI   C4B 8160   2.701   9.418   8.165  0.0820 -0.2743 -0.0605
  511loPI    C1 8161  14.759  16.168  10.733  0.1899  0.0523  0.2764
  511loPI    C2 8162  14.707  16.036  11.107  0.1630  0.0083  0.2574
  511loPI    C3 8163  15.052  16.210  11.001  0.2337 -0.1295  0.2587
  511loPI   PO4 8164  14.501  16.175  10.631  0.2402 -0.0080  0.1506
  511loPI   GL1 8165  14.251  15.794  10.415 -0.0261 -0.1747 -0.2393
  511loPI   GL2 8166  14.088  16.113  10.299  0.0710 -0.0155 -0.1170
  511loPI   C1A 8167  14.484  15.859  10.078 -0.0417  0.0878  0.2105
  511loPI   C2A 8168  14.433  15.737   9.609  0.1344  0.0413  0.0083
  511loPI   C3A 8169  14.513  15.810   9.150 -0.0266  0.3070  0.2431
  511loPI   C4A 8170  14.434  15.984   8.816 -0.1135  0.2164 -0.2037
  511loPI   C5A 8171  14.493  16.236   8.414 -0.1408 -0.0212  0.3228
  511loPI   C6A 8172  14.524  16.551   8.125 -0.1200 -0.0121  0.1935
  511loPI   C1B 8173  14.041  16.244   9.926 -0.3017 -0.1272 -0.0496
  511loPI   C2B 8174  13.982  16.281   9.513 -0.0407 -0.2762  0.0234
  511loPI   C3B 8175  14.003  16.252   9.011 -0.0687 -0.0092 -0.1459
  511loPI   C4B 8176  14.095  16.363   8.628  0.2934 -0.0385  0.1512
  512loPI    C1 8177   2.396  13.588  10.695  0.3318  0.0755  0.2250
  512loPI    C2 8178   2.330  13.966  10.808 -0.1905  0.0035  0.1834
  512loPI    C3 8179   2.588  13.739  11.013  0.0390  0.3426  0.2795
  512loPI   PO4 8180   2.438  13.684  10.367 -0.2220 -0.3526 -0.0261
  512loPI   GL1 8181   1.991  13.807  10.244 -0.0143  0.2913 -0.3707
  512loPI   GL2 8182   1.750  13.777  10.167 -0.0974  0.3079  0.3219
  512loPI   C1A 8183   2.088  13.807   9.831 -0.0783  0.0678 -0.0598
  512loPI   C2A 8184   2.022  13.908   9.434  0.2479  0.1292  0.1555
  512loPI   C3A 8185   2.158  13.909   9.030  0.1182 -0.1565 -0.2635
  512loPI   C4A 8186   2.057  13.926   8.613  0.1542 -0.0823  0.1969
  512loPI   C5A 8187   2.129  13.879   8.242 -0.1955 -0.0232 -0.2401
  512loPI   C6A 8188   2.035  13.562   7.862  0.0461 -0.1216  0.0139
  512loPI   C1B 8189   1.623  13.682   9.755 -0.0125 -0.1320  0.1861
  512loPI   C2B 8190   1.572  13.636   9.253 -0.0168 -0.0874 -0.0178
  512loPI   C3B 8191   1.641  13.798   8.871  0.2281  0.2848  0.3656
  512loPI   C4B 8192   1.641  13.657   8.401 -0.0041 -0.0102  0.0851
  513loPI    C1 8193  17.280   4.543  11.237 -0.4398  0.4169  0.1027
  513loPI    C2 8194  16.980   4.285  11.179  0.1163 -0.1992 -0.1519
  513loPI    C3 8195  17.231   4.235  11.487 -0.0065  0.2876  0.0364
  513loPI   PO4 8196  17.351   4.539  11.009  0.2027  0.2569  0.0707
  513loPI   GL1 8197  17.488   4.417  10.662  0.0539  0.0147  0.1597
  513loPI   GL2 8198  17.335   4.655  10.541 -0.1283  0.2515 -0.2543
  513loPI   C1A 8199  17.633   4.570  10.211  0.0423  0.0605 -0.1549
  513loPI   C2A 8200  17.597   4.538   9.815  0.0385  0.0967  0.0570
  513loPI   C3A 8201  17.603   4.588   9.348 -0.1585  0.4382 -0.0751
  513loPI   C4A 8202  17.552   4.539   8.878 -0.0920 -0.2379  0.0684
  513loPI   C5A 8203  17.677   4.533   8.440 -0.0073 -0.1444  0.2612
  513loPI   C6A 8204  17.671   4.705   8.064  0.0964 -0.0550  0.2193
  513loPI   C1B 8205  17.132   4.584  10.184  0.0359 -0.0734 -0.2309
  513loPI   C2B 8206  17.103   4.371   9.861  0.2022  0.4777 -0.0456
  513loPI   C3B 8207  17.051   4.406   9.482  0.0371  0.1667  0.3928
  513loPI   C4B 8208  17.062   4.433   9.051 -0.4040 -0.1993  0.1055
  514loPI    C1 8209   8.233   2.902  10.452 -0.0911 -0.1860  0.0385
  514loPI    C2 8210   8.086   3.166  10.714 -0.2224 -0.3035  0.0849
  514loPI    C3 8211   8.300   2.854  10.844  0.0930 -0.1207  0.0159
  514loPI   PO4 8212   8.405   2.978  10.325  0.0305 -0.0776 -0.3975
  514loPI   GL1 8213   8.426   3.041   9.996 -0.2266  0.1072  0.4095
  514loPI   GL2 8214   8.113   2.960   9.865 -0.0063  0.1352  0.0433
  514loPI   C1A 8215   8.443   3.039   9.534 -0.1172 -0.2391  0.0398
  514loPI   C2A 8216   8.373   2.976   9.104  0.2454  0.1925 -0.1252
  514loPI   C3A 8217   8.197   2.783   8.768 -0.1278  0.0938  0.0713
  514loPI   C4A 8218   8.174   2.777   8.332 -0.0707 -0.3819 -0.2666
  514loPI   C5A 8219   8.295   2.866   8.052  0.3714  0.0231  0.2038
  514loPI   C6A 8220   8.632   2.977   7.940  0.3413  0.1249  0.1297
  514loPI   C1B 8221   7.986   2.834   9.470  0.0163  0.2739  0.0362
  514loPI   C2B 8222   7.810   2.698   9.077 -0.2323 -0.1144 -0.0233
  514loPI   C3B 8223   7.723   2.593   8.653 -0.1538  0.0270  0.0614
  514loPI   C4B 8224   7.695   2.561   8.260  0.5492  0.2855  0.0103
  515loPI    C1 8225   6.412  12.588  10.431 -0.0555  0.3702 -0.1774
  515loPI    C2 8226   6.320  12.410  10.085 -0.0055  0.1076 -0.0574
  515loPI    C3 8227   6.062  12.399  10.391  0.1393 -0.0543  0.0612
  515loPI   PO4 8228   6.479  12.849  10.351  0.4081 -0.0091  0.0112
  515loPI   GL1 8229   6.408  13.078   9.979  0.2419 -0.0408  0.2613
  515loPI   GL2 8230   6.544  12.845   9.825 -0.0372 -0.0819  0.2709
  515loPI   C1A 8231   6.087  13.046   9.671  0.1796  0.0171 -0.0436
  515loPI   C2A 8232   6.131  13.056   9.281  0.3471 -0.1345 -0.0936
  515loPI   C3A 8233   6.158  13.047   8.906 -0.0737 -0.0759 -0.4048
  515loPI   C4A 8234   5.985  13.090   8.469  0.2461 -0.1095 -0.0877
  515loPI   C5A 8235   5.876  12.985   8.018 -0.0697  0.1632  0.0083
  515loPI   C6A 8236   6.008  12.710   7.721  0.0370 -0.0506 -0.2386
  515loPI   C1B 8237   6.585  13.062   9.470  0.0398 -0.1681 -0.0190
  515loPI   C2B 8238   6.656  13.186   9.097 -0.2677 -0.2397 -0.2250
  515loPI   C3B 8239   6.573  13.217   8.634  0.0090  0.0377  0.3330
  515loPI   C4B 8240   6.446  13.220   8.327  0.0417  0.1128  0.3320
  516loPI    C1 8241   0.335   2.477  11.279 -0.0834 -0.0160  0.2423
  516loPI    C2 8242  -0.031   2.441  11.437 -0.0647  0.0253  0.2951
  516loPI    C3 8243   0.268   2.211  11.570 -0.1185 -0.1575  0.1065
  516loPI   PO4 8244   0.206   2.402  10.951 -0.0248 -0.0192 -0.0566
  516loPI   GL1 8245  -0.021   2.611  10.631  0.2413  0.0078 -0.1598
  516loPI   GL2 8246   0.071   2.882  10.386 -0.1713  0.1075 -0.2262
  516loPI   C1A 8247   0.067   2.444  10.207  0.0291  0.0267  0.0297
  516loPI   C2A 8248  -0.001   2.390   9.800  0.4396  0.3498 -0.2151
  516loPI   C3A 8249   0.049   2.404   9.324  0.1577  0.1348  0.1076
  516loPI   C4A 8250   0.039   2.419   8.818 -0.0305  0.1036 -0.7018
  516loPI   C5A 8251   0.065   2.302   8.449  0.3936 -0.1372 -0.4117
  516loPI   C6A 8252   0.041   2.181   7.965 -0.0391  0.2802  0.2874
  516loPI   C1B 8253   0.246   2.989  10.036  0.0572 -0.0966  0.1987
  516loPI   C2B 8254   0.239   3.049   9.594 -0.1842  0.0029 -0.0227
  516loPI   C3B 8255   0.108   2.924   9.186  0.2376 -0.0510 -0.1717
  516loPI   C4B 8256   0.243   2.905   8.774 -0.1605 -0.0078  0.0566
  517loPI    C1 8257   4.982  17.943  10.746 -0.0816 -0.0123  0.1722
  517loPI    C2 8258   5.380  17.959  10.782 -0.0477  0.0840 -0.1954
  517loPI    C3 8259   5.149  18.202  11.001  0.0894 -0.0131  0.0623
  517loPI   PO4 8260   4.927  17.982  10.484 -0.1873 -0.0441  0.0016
  517loPI   GL1 8261   4.833  17.608  10.253  0.3760  0.2497 -0.1017
  517loPI   GL2 8262   4.985  17.403  10.012 -0.1763 -0.3211  0.0708
  517loPI   C1A 8263   4.684  17.794   9.873  0.0717 -0.1541 -0.1296
  517loPI   C2A 8264   4.623  17.759   9.492  0.0005  0.2229  0.2526
  517loPI   C3A 8265   4.700  17.724   9.147  0.0592  0.0540  0.2839
  517loPI   C4A 8266   4.553  17.813   8.709  0.1501 -0.1748 -0.0755
  517loPI   C5A 8267   4.495  17.819   8.303  0.0157  0.1600  0.2431
  517loPI   C6A 8268   4.170  17.974   7.998 -0.1558 -0.1918  0.0393
  517loPI   C1B 8269   5.082  17.408   9.579 -0.3650 -0.0363  0.1912
  517loPI   C2B 8270   5.002  17.364   9.123 -0.0449 -0.1783 -0.0184
  517loPI   C3B 8271   4.873  17.456   8.724  0.0230 -0.1669  0.0154
  517loPI   C4B 8272   4.892  17.451   8.337  0.0383 -0.2218  0.2917
  518loPI    C1 8273   1.667  16.799  11.121  0.1146  0.0416 -0.1130
  518loPI    C2 8274   1.627  16.433  11.277 -0.1295  0.1232  0.0207
  518loPI    C3 8275   1.885  16.692  11.439  0.0461  0.0110 -0.0763
  518loPI   PO4 8276   1.577  16.726  10.860  0.2135  0.1393 -0.2331
  518loPI   GL1 8277   1.738  16.830  10.451 -0.1321  0.0837  0.3308
  518loPI   GL2 8278   1.727  16.521  10.314  0.3819  0.0027 -0.0500
  518loPI   C1A 8279   1.493  16.956  10.059  0.3570  0.0604 -0.1750
  518loPI   C2A 8280   1.285  16.891   9.726 -0.0274  0.4966  0.4965
  518loPI   C3A 8281   1.369  17.066   9.287  0.0947  0.0633  0.0189
  518loPI   C4A 8282   1.514  16.922   8.983 -0.2556 -0.0580  0.0431
  518loPI   C5A 8283   1.791  16.719   8.684 -0.1452 -0.1528 -0.1503
  518loPI   C6A 8284   1.762  16.455   8.326  0.5175  0.4026 -0.1429
  518loPI   C1B 8285   1.763  16.584   9.902 -0.0637  0.2362 -0.2857
  518loPI   C2B 8286   1.914  16.515   9.502  0.0817 -0.1895  0.0717
  518loPI   C3B 8287   1.865  16.450   9.158 -0.2387  0.0853 -0.0593
  518loPI   C4B 8288   1.754  16.153   8.896  0.1293  0.0538  0.1291
  519loPI    C1 8289  12.291   7.406  10.766  0.0790 -0.0170 -0.0430
  519loPI    C2 8290  12.580   7.682  10.741  0.0972 -0.0352 -0.0344
  519loPI    C3 8291  12.509   7.498  11.089 -0.0894  0.1468  0.0259
  519loPI   PO4 8292  12.233   7.261  10.518 -0.1377  0.1531 -0.2933
  519loPI   GL1 8293  12.456   7.533  10.243 -0.3390 -0.1154 -0.1287
  519loPI   GL2 8294  12.490   7.282  10.009  0.0011 -0.0367  0.2245
  519loPI   C1A 8295  12.480   7.838   9.899 -0.1141 -0.0834 -0.1863
  519loPI   C2A 8296  12.656   7.961   9.603  0.0187 -0.0461 -0.1952
  519loPI   C3A 8297  12.680   8.047   9.260 -0.0636  0.1182 -0.0459
  519loPI   C4A 8298  12.654   8.197   8.853 -0.0712  0.1844  0.1679
  519loPI   C5A 8299  12.743   8.191   8.439 -0.1932  0.1789 -0.2755
  519loPI   C6A 8300  12.726   8.404   8.072 -0.2711 -0.1303 -0.0249
  519loPI   C1B 8301  12.538   7.356   9.615  0.1813 -0.0259  0.6309
  519loPI   C2B 8302  12.584   7.539   9.247 -0.1715 -0.1169 -0.0493
  519loPI   C3B 8303  12.615   7.709   8.808 -0.2573  0.6408 -0.0849
  519loPI   C4B 8304  12.356   7.929   8.481 -0.2966 -0.2029  0.2296
  520loPI    C1 8305  12.434  16.930  10.624  0.1549  0.0385 -0.1738
  520loPI    C2 8306  12.753  16.724  10.751 -0.0628 -0.0496  0.2504
  520loPI    C3 8307  12.540  16.942  11.010 -0.3554  0.0001 -0.0256
  520loPI   PO4 8308  12.449  16.765  10.387 -0.0982 -0.3613  0.5360
  520loPI   GL1 8309  12.689  16.942  10.049 -0.1162  0.2105  0.0491
  520loPI   GL2 8310  12.563  16.555   9.907  0.1322  0.0037 -0.0192
  520loPI   C1A 8311  12.812  16.856   9.616 -0.2775 -0.0175 -0.0387
  520loPI   C2A 8312  12.766  16.875   9.124 -0.1316 -0.1710 -0.2273
  520loPI   C3A 8313  12.947  16.840   8.706  0.1811 -0.1410 -0.0622
  520loPI   C4A 8314  12.720  16.721   8.290  0.1465  0.0701 -0.1706
  520loPI   C5A 8315  12.547  16.433   7.920 -0.0585  0.0612 -0.2187
  520loPI   C6A 8316  12.420  16.027   7.782  0.1109  0.0400  0.0301
  520loPI   C1B 8317  12.658  16.311   9.513 -0.1607  0.0177 -0.1340
  520loPI   C2B 8318  12.646  16.182   9.099  0.3068 -0.1193 -0.1316
  520loPI   C3B 8319  12.577  16.421   8.700  0.1200  0.0131  0.2876
  520loPI   C4B 8320  12.728  16.244   8.442  0.0679  0.0817  0.0665
  521loPI    C1 8321  15.100  12.951  10.408 -0.1142 -0.1576 -0.3914
  521loPI    C2 8322  15.147  12.775  10.764 -0.3856  0.1316 -0.2070
  521loPI    C3 8323  15.457  12.807  10.514 -0.1374  0.1206  0.0943
  521loPI   PO4 8324  14.863  13.174  10.438 -0.1966  0.2675 -0.0121
  521loPI   GL1 8325  14.730  13.292  10.091 -0.2858 -0.1357  0.0498
  521loPI   GL2 8326  14.753  13.543   9.975 -0.2574 -0.0318  0.0541
  521loPI   C1A 8327  14.541  13.126   9.704 -0.2663  0.0650  0.2130
  521loPI   C2A 8328  14.621  13.117   9.317 -0.0417  0.1903 -0.3472
  521loPI   C3A 8329  14.704  13.169   8.806  0.2407  0.0461 -0.0808
  521loPI   C4A 8330  14.696  13.197   8.395 -0.3474 -0.0966 -0.1866
  521loPI   C5A 8331  15.017  13.346   8.093 -0.0321 -0.0576  0.1655
  521loPI   C6A 8332  15.082  13.466   7.665 -0.2970 -0.2526  0.3580
  521loPI   C1B 8333  14.632  13.590   9.518 -0.0325  0.2511 -0.0096
  521loPI   C2B 8334  14.753  13.739   9.120  0.2436  0.2288 -0.1237
  521loPI   C3B 8335  14.884  13.622   8.715 -0.0037 -0.0612  0.1632
  521loPI   C4B 8336  14.739  13.767   8.306 -0.1019  0.0971  0.2617
  522loPI    C1 8337  10.870   0.334  10.865  0.0955  0.0063 -0.0159
  522loPI    C2 8338  10.932   0.576  11.178  0.0501 -0.3470  0.2720
  522loPI    C3 8339  10.578   0.395  11.132  0.0950 -0.3883  0.0797
  522loPI   PO4 8340  11.034   0.198  10.819  0.1215 -0.1771 -0.1301
  522loPI   GL1 8341  11.226   0.005  10.429  0.0735 -0.0555 -0.0843
  522loPI   GL2 8342  11.460   0.284  10.360  0.2816 -0.1971  0.0880
  522loPI   C1A 8343  11.332  -0.170  10.003 -0.2058  0.0583  0.3650
  522loPI   C2A 8344  11.220  -0.087   9.572 -0.5749  0.0090 -0.1579
  522loPI   C3A 8345  11.257  -0.096   9.160 -0.0988 -0.2856  0.1178
  522loPI   C4A 8346  11.474  -0.042   8.724  0.2708  0.0877  0.1029
  522loPI   C5A 8347  11.316  -0.004   8.200 -0.1254 -0.0783  0.0402
  522loPI   C6A 8348  11.354   0.232   7.851  0.2188  0.2573  0.0381
  522loPI   C1B 8349  11.336   0.280   9.884  0.0533 -0.1247  0.0713
  522loPI   C2B 8350  11.405   0.370   9.427 -0.0882  0.2380 -0.2853
  522loPI   C3B 8351  11.350   0.422   9.040 -0.2218 -0.3242  0.2152
  522loPI   C4B 8352  11.465   0.446   8.635  0.5228  0.0352 -0.2182
  523loPI    C1 8353   6.935   5.768  10.312  0.0707  0.1108  0.1098
  523loPI    C2 8354   7.102   6.072  10.113  0.1413  0.0464  0.0706
  523loPI    C3 8355   6.705   6.051  10.149  0.1347  0.1253  0.0443
  523loPI   PO4 8356   7.095   5.553  10.178  0.1476 -0.1079 -0.0321
  523loPI   GL1 8357   7.209   5.461   9.730  0.3004 -0.1382 -0.0972
  523loPI   GL2 8358   7.022   5.753   9.736  0.0801  0.0967 -0.0233
  523loPI   C1A 8359   7.164   5.492   9.309 -0.2714  0.1452 -0.1854
  523loPI   C2A 8360   7.093   5.300   8.890 -0.1080 -0.2492  0.0237
  523loPI   C3A 8361   6.814   5.254   8.528  0.1772  0.4147 -0.2114
  523loPI   C4A 8362   6.579   5.039   8.213 -0.4541  0.1145  0.0103
  523loPI   C5A 8363   6.203   5.166   8.020  0.0924  0.0398 -0.0203
  523loPI   C6A 8364   5.875   5.536   7.968 -0.0101 -0.3471  0.1386
  523loPI   C1B 8365   7.041   5.943   9.314  0.0030  0.0245 -0.1777
  523loPI   C2B 8366   6.875   5.879   8.935  0.0109  0.1834 -0.1679
  523loPI   C3B 8367   6.847   5.790   8.535  0.3084 -0.0962  0.1307
  523loPI   C4B 8368   6.760   5.938   8.128 -0.1181  0.1681 -0.2387
  524loPI    C1 8369   3.022   7.871  11.143  0.0833  0.1291 -0.2277
  524loPI    C2 8370   2.980   8.190  11.381  0.0694  0.0721 -0.1530
  524loPI    C3 8371   3.295   7.948  11.426 -0.1675 -0.1931  0.1108
  524loPI   PO4 8372   2.922   8.006  10.884  0.2623 -0.2984 -0.2112
  524loPI   GL1 8373   2.943   7.880  10.421 -0.0910 -0.0995 -0.3228
  524loPI   GL2 8374   2.766   7.582  10.380 -0.1054  0.2984 -0.6040
  524loPI   C1A 8375   3.084   7.598  10.057 -0.1381 -0.3068  0.0253
  524loPI   C2A 8376   3.041   7.619   9.603  0.0233  0.0326 -0.3092
  524loPI   C3A 8377   3.109   7.598   9.232 -0.0756  0.1459 -0.1520
  524loPI   C4A 8378   3.120   7.548   8.855 -0.0344 -0.0703 -0.0994
  524loPI   C5A 8379   3.074   7.560   8.422 -0.1741 -0.0672  0.2280
  524loPI   C6A 8380   2.879   7.265   8.173  0.0341 -0.0718 -0.2679
  524loPI   C1B 8381   2.586   7.454   9.972 -0.0887 -0.1360  0.0853
  524loPI   C2B 8382   2.593   7.391   9.567 -0.0168 -0.3763 -0.0879
  524loPI   C3B 8383   2.598   7.393   9.156 -0.6995  0.1939 -0.4180
  524loPI   C4B 8384   2.521   7.406   8.767 -0.1075  0.0483 -0.1216
  525loPI    C1 8385   0.747   7.321  11.149 -0.1689  0.1317 -0.0196
  525loPI    C2 8386   0.827   7.683  11.297  0.0711  0.2279 -0.3708
  525loPI    C3 8387   0.895   7.357  11.518 -0.0041  0.3868 -0.1083
  525loPI   PO4 8388   0.761   7.410  10.839  0.3116 -0.0610 -0.1425
  525loPI   GL1 8389   0.501   7.288  10.477 -0.3226 -0.0002  0.4836
  525loPI   GL2 8390   0.827   7.319  10.300 -0.1242  0.1587 -0.2756
  525loPI   C1A 8391   0.389   7.196  10.005  0.1039 -0.0827 -0.2146
  525loPI   C2A 8392  -0.025   7.181   9.780 -0.0734  0.2544 -0.1737
  525loPI   C3A 8393  -0.072   7.157   9.366  0.0109  0.1108 -0.3343
  525loPI   C4A 8394  -0.152   7.003   8.948  0.2916  0.1235  0.1123
  525loPI   C5A 8395  -0.238   7.001   8.516 -0.1911 -0.1310 -0.0224
  525loPI   C6A 8396  -0.303   6.919   8.100 -0.0418  0.1085  0.1574
  525loPI   C1B 8397   0.817   7.309   9.828  0.3917 -0.1394 -0.0784
  525loPI   C2B 8398   0.883   7.223   9.422  0.1889  0.1491  0.1058
  525loPI   C3B 8399   0.818   7.234   9.025 -0.0885 -0.0808 -0.3932
  525loPI   C4B 8400   0.769   7.497   8.620 -0.0626  0.0941  0.2291
  526loPI    C1 8401   1.421  10.332  10.625  0.0429  0.1340  0.0407
  526loPI    C2 8402   1.050  10.218  10.718  0.0299  0.1163 -0.0322
  526loPI    C3 8403   1.234  10.497  10.937 -0.0508  0.1722 -0.0352
  526loPI   PO4 8404   1.544  10.223  10.422 -0.4022  0.3674  0.0111
  526loPI   GL1 8405   1.781  10.244  10.092 -0.0089  0.2097 -0.1701
  526loPI   GL2 8406   1.591  10.387   9.854 -0.2852  0.1948 -0.2914
  526loPI   C1A 8407   2.029  10.035   9.805  0.2984 -0.0170 -0.0528
  526loPI   C2A 8408   2.156  10.033   9.370 -0.2780 -0.0248 -0.3140
  526loPI   C3A 8409   2.065   9.940   8.964 -0.3129 -0.2851  0.1433
  526loPI   C4A 8410   2.207   9.990   8.464 -0.1429  0.0406 -0.1844
  526loPI   C5A 8411   2.319  10.110   8.147 -0.0253  0.0380  0.1726
  526loPI   C6A 8412   2.081  10.364   7.920 -0.3071 -0.5697  0.2884
  526loPI   C1B 8413   1.647  10.141   9.499  0.2183 -0.2207  0.3105
  526loPI   C2B 8414   1.612  10.062   9.060  0.2218 -0.1550  0.0071
  526loPI   C3B 8415   1.625   9.850   8.696 -0.1849 -0.2679  0.1184
  526loPI   C4B 8416   1.715   9.965   8.318  0.1780 -0.1875  0.0104
  527loPI    C1 8417   9.517   5.773  10.228  0.1981  0.0870  0.0727
  527loPI    C2 8418   9.489   6.114  10.436 -0.2517  0.0210  0.1305
  527loPI    C3 8419   9.806   5.875  10.485  0.0720  0.4288  0.0843
  527loPI   PO4 8420   9.462   5.850   9.941  0.0631 -0.1110 -0.1101
  527loPI   GL1 8421   9.305   6.220   9.554  0.0072  0.1399 -0.1157
  527loPI   GL2 8422   9.526   6.375   9.502 -0.0527 -0.3548  0.2380
  527loPI   C1A 8423   9.288   6.139   9.148  0.0688 -0.0485  0.2983
  527loPI   C2A 8424   9.509   6.241   8.842  0.1174 -0.0212 -0.1584
  527loPI   C3A 8425   9.467   6.661   8.622 -0.0204 -0.3390  0.1767
  527loPI   C4A 8426   9.517   6.969   8.255  0.1472  0.0075 -0.2127
  527loPI   C5A 8427   9.468   7.310   8.063 -0.0668  0.0731  0.2235
  527loPI   C6A 8428   9.145   7.515   7.915 -0.1025 -0.1282 -0.1258
  527loPI   C1B 8429   9.906   6.399   9.196  0.2164  0.0358 -0.0369
  527loPI   C2B 8430   9.949   6.519   8.759 -0.0907 -0.0766 -0.1483
  527loPI   C3B 8431   9.919   6.308   8.439 -0.0483  0.1066  0.0815
  527loPI   C4B 8432   9.454   6.119   8.351 -0.1196  0.2489 -0.4058
  528loPI    C1 8433  16.170   8.200  10.434  0.0245  0.0082 -0.0347
  528loPI    C2 8434  15.799   8.060  10.380  0.0147 -0.1284  0.3551
  528loPI    C3 8435  15.910   8.199  10.738  0.3662 -0.1653  0.2639
  528loPI   PO4 8436  16.269   8.254  10.205  0.3914  0.0546  0.2924
  528loPI   GL1 8437  16.376   8.146   9.745 -0.0982 -0.1121  0.0872
  528loPI   GL2 8438  16.245   7.945   9.577  0.3823 -0.2871 -0.0080
  528loPI   C1A 8439  16.477   8.288   9.255  0.0298  0.1117 -0.1262
  528loPI   C2A 8440  16.632   8.352   8.854  0.1250  0.0957 -0.0594
  528loPI   C3A 8441  16.529   8.112   8.448  0.0823  0.0807  0.0963
  528loPI   C4A 8442  16.709   7.795   8.252 -0.0830 -0.2613 -0.2927
  528loPI   C5A 8443  17.023   7.672   7.936 -0.2210 -0.0821 -0.1991
  528loPI   C6A 8444  17.564   7.677   7.820 -0.3050  0.0577 -0.0836
  528loPI   C1B 8445  15.919   8.090   9.266  0.2946 -0.1522  0.2232
  528loPI   C2B 8446  15.762   8.159   8.870 -0.1329 -0.0509 -0.0175
  528loPI   C3B 8447  15.694   8.235   8.462  0.1665  0.0172 -0.1015
  528loPI   C4B 8448  15.646   8.189   8.033 -0.1329  0.1469 -0.0216
  529loPI    C1 8449  17.374  17.057  10.739 -0.1939  0.1490 -0.0598
  529loPI    C2 8450  17.505  17.250  11.064 -0.1564  0.2961 -0.1607
  529loPI    C3 8451  17.257  16.938  11.102  0.0623  0.1411  0.0219
  529loPI   PO4 8452  17.533  16.889  10.630 -0.1570  0.3566 -0.0107
  529loPI   GL1 8453  17.531  16.948  10.220 -0.0504 -0.0794  0.0118
  529loPI   GL2 8454  17.476  16.646  10.176 -0.1643  0.0163  0.0874
  529loPI   C1A 8455  17.566  17.191   9.858  0.3620  0.3178  0.1347
  529loPI   C2A 8456  17.586  17.338   9.428  0.0837  0.0649 -0.1103
  529loPI   C3A 8457  17.603  17.390   9.045  0.0139  0.1592 -0.0257
  529loPI   C4A 8458  17.708  17.316   8.692 -0.1691  0.2622 -0.0537
  529loPI   C5A 8459  17.928  17.145   8.220  0.1074  0.0779 -0.5356
  529loPI   C6A 8460  18.051  16.974   7.847  0.1068  0.0374  0.2348
  529loPI   C1B 8461  17.399  16.662   9.739 -0.3428  0.2061  0.1481
  529loPI   C2B 8462  17.379  16.730   9.261  0.1899  0.0142 -0.2450
  529loPI   C3B 8463  17.419  16.783   8.807  0.0755 -0.0509 -0.2748
  529loPI   C4B 8464  17.338  16.647   8.463 -0.0443  0.0831 -0.0470
  530loPI    C1 8465  12.113   5.887  10.638 -0.1266 -0.1900 -0.1449
  530loPI    C2 8466  11.911   5.586  10.806 -0.0910 -0.1320  0.0029
  530loPI    C3 8467  12.235   5.735  10.987  0.0280 -0.1597 -0.1849
  530loPI   PO4 8468  12.015   5.874  10.392 -0.2449 -0.2004  0.1103
  530loPI   GL1 8469  12.072   5.999  10.109  0.0743  0.1840  0.1061
  530loPI   GL2 8470  11.857   6.164   9.845  0.1067 -0.0282  0.2904
  530loPI   C1A 8471  12.359   5.926   9.796  0.0513 -0.0372 -0.0522
  530loPI   C2A 8472  12.383   5.825   9.403  0.1928 -0.3456  0.0850
  530loPI   C3A 8473  12.223   5.850   8.897 -0.0145  0.2519 -0.2608
  530loPI   C4A 8474  12.194   5.810   8.487  0.1330 -0.0630 -0.0419
  530loPI   C5A 8475  12.306   5.804   8.062  0.0968  0.0753 -0.2904
  530loPI   C6A 8476  12.337   6.149   7.759  0.0510 -0.2429  0.0846
  530loPI   C1B 8477  11.984   6.133   9.454  0.0466  0.1901  0.3067
  530loPI   C2B 8478  11.897   6.235   9.055  0.0584 -0.2712 -0.2800
  530loPI   C3B 8479  12.051   6.308   8.655 -0.0747 -0.3335 -0.1367
  530loPI   C4B 8480  12.434   6.315   8.374 -0.2775 -0.2420 -0.1861
  531loPI    C1 8481  15.406  13.327  10.952  0.0809  0.0923  0.2187
  531loPI    C2 8482  15.601  13.027  11.131  0.0932 -0.2143 -0.2892
  531loPI    C3 8483  15.654  13.403  11.256  0.1946 -0.4017  0.2586
  531loPI   PO4 8484  15.483  13.316  10.651 -0.0258  0.0061  0.0245
  531loPI   GL1 8485  15.486  13.431  10.344 -0.0739  0.0564  0.0392
  531loPI   GL2 8486  15.166  13.582  10.309 -0.0844 -0.1714  0.0582
  531loPI   C1A 8487  15.636  13.427   9.940  0.0863  0.0663 -0.0801
  531loPI   C2A 8488  15.622  13.452   9.549  0.0029 -0.0256 -0.0132
  531loPI   C3A 8489  15.720  13.412   9.158  0.1485  0.0850 -0.0871
  531loPI   C4A 8490  15.756  13.406   8.760  0.2168  0.2767 -0.0827
  531loPI   C5A 8491  15.689  13.426   8.385 -0.4462  0.0580 -0.0818
  531loPI   C6A 8492  15.542  13.472   7.907  0.1836 -0.3032  0.2018
  531loPI   C1B 8493  15.249  13.764   9.999 -0.2407  0.1868  0.1562
  531loPI   C2B 8494  15.259  13.832   9.534 -0.2583  0.0473 -0.2735
  531loPI   C3B 8495  15.331  13.812   9.081 -0.1219 -0.0761  0.3293
  531loPI   C4B 8496  15.392  13.784   8.679  0.3624  0.1527 -0.0749
  532loPI    C1 8497  16.475   2.798  11.324 -0.1552 -0.0104  0.1686
  532loPI    C2 8498  16.605   2.616  11.656  0.1220 -0.0754  0.0276
  532loPI    C3 8499  16.359   2.930  11.683 -0.0778 -0.2501  0.2842
  532loPI   PO4 8500  16.409   2.538  11.178  0.2636 -0.1003 -0.2375
  532loPI   GL1 8501  16.471   2.498  10.798  0.2868  0.0175 -0.2958
  532loPI   GL2 8502  16.465   2.231  10.801  0.1968 -0.1723  0.2861
  532loPI   C1A 8503  16.535   2.673  10.445 -0.1705 -0.0288 -0.0329
  532loPI   C2A 8504  16.689   2.776  10.085 -0.0921 -0.1392 -0.3624
  532loPI   C3A 8505  16.779   2.714   9.634 -0.0551 -0.3027 -0.1213
  532loPI   C4A 8506  16.686   2.786   9.248  0.0632 -0.0723 -0.0260
  532loPI   C5A 8507  16.671   2.902   8.822  0.0288  0.0191  0.1721
  532loPI   C6A 8508  16.498   3.037   8.411 -0.0235 -0.1533  0.0410
  532loPI   C1B 8509  16.497   2.209  10.316  0.2312 -0.0821  0.1042
  532loPI   C2B 8510  16.566   2.263   9.860 -0.1355 -0.0483 -0.2283
  532loPI   C3B 8511  16.640   2.302   9.409  0.2209 -0.1552  0.0228
  532loPI   C4B 8512  16.613   2.352   9.015 -0.0594 -0.0064  0.0810
  533loPI    C1 8513   6.931   4.771  10.339 -0.0094 -0.0117  0.0169
  533loPI    C2 8514   6.819   4.947  10.680  0.2032 -0.0525  0.1087
  533loPI    C3 8515   7.139   5.082  10.481  0.1228 -0.0750 -0.0369
  533loPI   PO4 8516   6.722   4.697  10.255  0.0011 -0.0734 -0.0574
  533loPI   GL1 8517   6.619   4.437   9.940 -0.2751 -0.3176  0.1412
  533loPI   GL2 8518   6.398   4.526   9.653 -0.0860 -0.0756  0.0047
  533loPI   C1A 8519   6.879   4.573   9.575 -0.1913 -0.0226 -0.1339
  533loPI   C2A 8520   6.909   4.470   9.130  0.0471 -0.0820 -0.0291
  533loPI   C3A 8521   7.048   4.342   8.727 -0.2137 -0.0247  0.0160
  533loPI   C4A 8522   7.138   4.222   8.306 -0.2557 -0.0250  0.1693
  533loPI   C5A 8523   7.428   3.883   8.140 -0.0097 -0.1508 -0.1084
  533loPI   C6A 8524   7.650   3.655   8.120  0.3793 -0.2108 -0.0718
  533loPI   C1B 8525   6.081   4.599   9.342 -0.2953  0.0503  0.0802
  533loPI   C2B 8526   6.155   4.605   8.872  0.0499  0.0957  0.0852
  533loPI   C3B 8527   6.191   4.647   8.419 -0.0987 -0.1954  0.0756
  533loPI   C4B 8528   6.282   4.608   8.009 -0.1545  0.5018 -0.0457
  534loPI    C1 8529   4.452   4.661  10.750  0.0415  0.0364 -0.0899
  534loPI    C2 8530   4.697   4.395  10.922  0.0458  0.1851  0.1382
  534loPI    C3 8531   4.662   4.763  11.075 -0.1873  0.2210  0.0026
  534loPI   PO4 8532   4.485   4.590  10.419 -0.2036  0.2350  0.3333
  534loPI   GL1 8533   4.372   4.728  10.008 -0.1356  0.2440  0.0391
  534loPI   GL2 8534   4.555   5.001  10.124 -0.0530  0.1877 -0.0618
  534loPI   C1A 8535   4.280   4.672   9.620  0.0639 -0.1110  0.0269
  534loPI   C2A 8536   4.223   4.620   9.182 -0.1240 -0.0196 -0.1348
  534loPI   C3A 8537   4.267   4.509   8.722  0.0428  0.0061  0.1118
  534loPI   C4A 8538   4.092   4.699   8.319  0.0223 -0.1493 -0.0367
  534loPI   C5A 8539   3.843   4.703   8.029  0.1749  0.2318  0.0716
  534loPI   C6A 8540   3.513   4.877   7.837 -0.1896  0.2156 -0.3530
  534loPI   C1B 8541   4.466   5.243   9.752  0.2125 -0.1058  0.1424
  534loPI   C2B 8542   4.451   5.058   9.286 -0.3398  0.3118 -0.1845
  534loPI   C3B 8543   4.438   5.038   8.854 -0.0219  0.1853  0.0213
  534loPI   C4B 8544   4.319   5.157   8.383 -0.1027  0.0580  0.0075
  535loPI    C1 8545   6.048  16.612  10.841 -0.1199 -0.1476 -0.0406
  535loPI    C2 8546   5.970  16.864  11.142 -0.0294 -0.0656 -0.0854
  535loPI    C3 8547   6.164  16.521  11.213 -0.0784 -0.0836 -0.0380
  535loPI   PO4 8548   6.107  16.811  10.625  0.0528  0.0304  0.0458
  535loPI   GL1 8549   6.104  16.779  10.193 -0.1195  0.0980 -0.0367
  535loPI   GL2 8550   5.797  16.875   9.989 -0.1284  0.2651  0.1290
  535loPI   C1A 8551   6.298  16.762   9.710  0.0539 -0.0672 -0.2302
  535loPI   C2A 8552   6.180  16.800   9.351 -0.3005  0.2913  0.4233
  535loPI   C3A 8553   6.183  16.916   8.916 -0.3396 -0.1831 -0.4543
  535loPI   C4A 8554   6.142  16.875   8.429 -0.2327 -0.3944  0.2452
  535loPI   C5A 8555   6.129  16.952   8.001 -0.0216  0.1647  0.1587
  535loPI   C6A 8556   6.247  17.255   7.702  0.2512  0.0582  0.0347
  535loPI   C1B 8557   5.767  16.646   9.606 -0.0311 -0.2041  0.0262
  535loPI   C2B 8558   5.718  16.588   9.132  0.0742  0.1799 -0.2137
  535loPI   C3B 8559   5.694  16.737   8.720 -0.0965  0.0281  0.1218
  535loPI   C4B 8560   5.670  16.731   8.275  0.2422  0.3174  0.0028
  536loPI    C1 8561   7.786   1.885  10.348 -0.0790  0.0787  0.0854
  536loPI    C2 8562   8.081   1.909  10.617  0.0230  0.2233 -0.0378
  536loPI    C3 8563   7.717   2.050  10.705  0.0523  0.2570  0.0294
  536loPI   PO4 8564   7.891   2.057  10.160 -0.0213  0.0193  0.0251
  536loPI   GL1 8565   7.970   2.245   9.817 -0.1183  0.0829 -0.2019
  536loPI   GL2 8566   8.073   1.929   9.699  0.2228 -0.1969 -0.0487
  536loPI   C1A 8567   7.768   2.351   9.474 -0.0626  0.0864  0.0358
  536loPI   C2A 8568   7.675   2.215   9.061  0.1175 -0.2248 -0.0038
  536loPI   C3A 8569   7.614   2.079   8.677 -0.0016 -0.1504  0.3258
  536loPI   C4A 8570   7.553   1.979   8.340  0.1582  0.0703  0.1202
  536loPI   C5A 8571   7.361   1.627   8.160  0.0743 -0.0158  0.2430
  536loPI   C6A 8572   7.121   1.353   7.822  0.3696  0.1312 -0.1007
  536loPI   C1B 8573   8.086   1.800   9.308  0.0339 -0.0924  0.0304
  536loPI   C2B 8574   7.995   1.829   8.939 -0.0329 -0.1515 -0.2855
  536loPI   C3B 8575   7.962   1.707   8.462  0.1020  0.0613 -0.3817
  536loPI   C4B 8576   7.876   1.535   8.080 -0.2413  0.1531 -0.1843
  537loPI    C1 8577  13.741  10.839  10.643  0.0130 -0.0827 -0.1241
  537loPI    C2 8578  14.105  10.960  10.756 -0.0305 -0.0247 -0.0455
  537loPI    C3 8579  13.807  10.947  11.022 -0.0878 -0.0644 -0.1115
  537loPI   PO4 8580  13.684  10.587  10.448 -0.1006 -0.0949  0.0332
  537loPI   GL1 8581  13.899  10.343  10.169  0.0860  0.2929  0.2521
  537loPI   GL2 8582  14.183  10.434  10.027  0.2314 -0.1945  0.1692
  537loPI   C1A 8583  13.657  10.338   9.849  0.1369  0.0160  0.1931
  537loPI   C2A 8584  13.516  10.526   9.363  0.1646 -0.2001  0.1328
  537loPI   C3A 8585  13.443  10.539   8.930 -0.1450  0.0132 -0.1275
  537loPI   C4A 8586  13.679  10.585   8.588 -0.0202  0.0706 -0.2690
  537loPI   C5A 8587  13.701  10.521   8.183 -0.0369  0.1439  0.0190
  537loPI   C6A 8588  13.699  10.251   7.849 -0.3428  0.0645  0.2977
  537loPI   C1B 8589  14.193  10.686   9.587 -0.1441 -0.1341 -0.0896
  537loPI   C2B 8590  14.075  10.704   9.181 -0.1183 -0.0980  0.0004
  537loPI   C3B 8591  14.092  10.765   8.832 -0.5710 -0.0465  0.0568
  537loPI   C4B 8592  14.170  10.629   8.391  0.0757  0.0868 -0.0396
  538loPI    C1 8593  15.519   6.552  10.720  0.1895 -0.2561  0.0243
  538loPI    C2 8594  15.831   6.711  10.914  0.0956 -0.1586  0.0966
  538loPI    C3 8595  15.559   6.496  11.114 -0.1973  0.2461  0.1451
  538loPI   PO4 8596  15.607   6.513  10.441  0.0262  0.3480  0.1610
  538loPI   GL1 8597  15.537   6.409  10.127 -0.1100 -0.0351  0.0929
  538loPI   GL2 8598  15.789   6.555   9.984 -0.6076  0.1963  0.0278
  538loPI   C1A 8599  15.349   6.382   9.751  0.1747  0.0642 -0.1479
  538loPI   C2A 8600  15.250   6.333   9.328 -0.0514 -0.1146  0.0037
  538loPI   C3A 8601  15.264   6.209   8.892  0.3093 -0.1520 -0.2799
  538loPI   C4A 8602  15.172   6.177   8.531  0.1028 -0.0602 -0.4218
  538loPI   C5A 8603  15.304   6.090   8.124  0.2888 -0.1334  0.4683
  538loPI   C6A 8604  15.789   5.982   8.044  0.0853 -0.0789  0.2439
  538loPI   C1B 8605  15.784   6.502   9.514  0.0406  0.0661  0.0302
  538loPI   C2B 8606  15.709   6.408   9.074  0.0640 -0.1727  0.1367
  538loPI   C3B 8607  15.670   6.295   8.636 -0.1014 -0.0632  0.1803
  538loPI   C4B 8608  15.743   6.442   8.211 -0.3875  0.1291 -0.0861
  539loPI    C1 8609  11.770   6.844  10.656  0.2467  0.0315  0.0058
  539loPI    C2 8610  12.167   6.797  10.665  0.2393 -0.0003  0.2202
  539loPI    C3 8611  11.936   6.597  10.923  0.0774 -0.0353  0.0505
  539loPI   PO4 8612  11.747   7.079  10.365  0.3861 -0.5918  0.1057
  539loPI   GL1 8613  11.526   7.206  10.007 -0.0750  0.0229 -0.0825
  539loPI   GL2 8614  11.452   6.955   9.738 -0.2590 -0.0219 -0.0130
  539loPI   C1A 8615  11.693   7.378   9.652  0.1352 -0.2637  0.1909
  539loPI   C2A 8616  11.980   7.486   9.597  0.1311  0.0626  0.2247
  539loPI   C3A 8617  12.158   7.822   9.447  0.2230  0.1196 -0.1328
  539loPI   C4A 8618  12.191   8.086   9.103  0.1585 -0.0667 -0.1512
  539loPI   C5A 8619  12.142   8.281   8.731  0.0296 -0.1728  0.2566
  539loPI   C6A 8620  12.301   8.467   8.451  0.2248  0.0325 -0.1512
  539loPI   C1B 8621  11.441   7.007   9.421 -0.0054  0.2475  0.1123
  539loPI   C2B 8622  11.563   7.158   9.050 -0.3482  0.0265 -0.1382
  539loPI   C3B 8623  11.644   7.326   8.715  0.1610 -0.2624 -0.1746
  539loPI   C4B 8624  11.492   7.724   8.609  0.2605 -0.2248 -0.1114
  540loPI    C1 8625   9.252   3.534  10.304  0.1887 -0.0759  0.0861
  540loPI    C2 8626   9.189   3.237  10.565  0.1271 -0.0103  0.1460
  540loPI    C3 8627   9.034   3.600  10.633  0.0933  0.0016  0.0079
  540loPI   PO4 8628   9.265   3.377  10.054 -0.3289  0.2376 -0.1149
  540loPI   GL1 8629   9.025   3.283   9.765  0.1059  0.1966 -0.1048
  540loPI   GL2 8630   8.920   2.987   9.681 -0.1499  0.1073  0.1679
  540loPI   C1A 8631   8.980   3.341   9.282 -0.2959  0.2342  0.1608
  540loPI   C2A 8632   8.927   3.459   8.893 -0.1556 -0.0977  0.4596
  540loPI   C3A 8633   9.058   3.433   8.542  0.2008  0.1397  0.2202
  540loPI   C4A 8634   9.083   3.325   8.051 -0.2095 -0.2387 -0.1006
  540loPI   C5A 8635   9.274   2.926   7.793 -0.2071  0.1342 -0.0918
  540loPI   C6A 8636   9.634   2.715   7.857 -0.2358 -0.0479  0.1533
  540loPI   C1B 8637   9.087   2.762   9.273 -0.1576  0.0069 -0.0725
  540loPI   C2B 8638   9.161   2.558   8.963 -0.1130 -0.0272 -0.1397
  540loPI   C3B 8639   9.063   2.622   8.655  0.1482 -0.1543 -0.4099
  540loPI   C4B 8640   8.951   2.983   8.349 -0.0785 -0.0865 -0.2385
  541loPI    C1 8641   6.471  13.332  10.587 -0.0830  0.0742 -0.1942
  541loPI    C2 8642   6.421  13.622  10.858  0.0949 -0.1402  0.0737
  541loPI    C3 8643   6.384  13.239  10.966  0.2425 -0.2312 -0.1890
  541loPI   PO4 8644   6.407  13.481  10.396  0.0795 -0.3083  0.2276
  541loPI   GL1 8645   6.000  13.469  10.107 -0.0420 -0.2425  0.1800
  541loPI   GL2 8646   5.667  13.358  10.047  0.0250 -0.2951  0.3006
  541loPI   C1A 8647   6.248  13.489   9.731  0.0514 -0.1679  0.3094
  541loPI   C2A 8648   6.331  13.503   9.374  0.0516 -0.3078 -0.2639
  541loPI   C3A 8649   6.331  13.558   9.004  0.0131  0.0371  0.1869
  541loPI   C4A 8650   6.217  13.539   8.616 -0.0873 -0.2358  0.1008
  541loPI   C5A 8651   6.208  13.632   8.162 -0.0680 -0.0818  0.1476
  541loPI   C6A 8652   5.876  13.544   7.800  0.1482 -0.1454  0.0500
  541loPI   C1B 8653   5.695  13.365   9.602  0.0195 -0.2251 -0.1051
  541loPI   C2B 8654   5.752  13.370   9.144  0.0817  0.2412 -0.3511
  541loPI   C3B 8655   5.735  13.421   8.746  0.2168  0.2080  0.0699
  541loPI   C4B 8656   5.715  13.479   8.289 -0.2397  0.2218 -0.1708
  542loPI    C1 8657   2.120   2.060  11.388 -0.0521 -0.2318 -0.0837
  542loPI    C2 8658   1.989   1.785  11.647 -0.1446  0.0070  0.1270
  542loPI    C3 8659   2.360   1.931  11.680 -0.0952 -0.0916  0.0148
  542loPI   PO4 8660   1.976   1.931  11.033 -0.1070 -0.0976  0.1492
  542loPI   GL1 8661   2.015   2.096  10.589  0.2668  0.3219 -0.1812
  542loPI   GL2 8662   1.732   2.093  10.556  0.0074  0.1152 -0.1966
  542loPI   C1A 8663   2.087   2.413  10.271 -0.2167  0.0394  0.3176
  542loPI   C2A 8664   1.970   2.378   9.855 -0.1291 -0.0282 -0.2135
  542loPI   C3A 8665   1.807   2.461   9.442  0.1318 -0.1742  0.2336
  542loPI   C4A 8666   1.788   2.466   9.092 -0.1804 -0.4417 -0.3855
  542loPI   C5A 8667   1.856   2.504   8.775  0.0391  0.0794 -0.2710
  542loPI   C6A 8668   1.703   2.365   8.274  0.0362  0.1677  0.0975
  542loPI   C1B 8669   1.773   1.990  10.097 -0.0762  0.0409  0.0769
  542loPI   C2B 8670   1.943   1.924   9.669 -0.0110 -0.1806  0.1258
  542loPI   C3B 8671   1.844   2.010   9.251 -0.1449  0.2445 -0.1285
  542loPI   C4B 8672   1.797   2.024   8.809  0.0001 -0.1177  0.2984
  543loPI    C1 8673  17.126   5.784  11.155 -0.2461  0.2348  0.1242
  543loPI    C2 8674  17.392   6.074  11.228  0.0575 -0.0652  0.2307
  543loPI    C3 8675  17.219   5.880  11.532 -0.0560 -0.0764  0.1594
  543loPI   PO4 8676  17.221   5.723  10.906  0.1196  0.1106  0.0361
  543loPI   GL1 8677  17.238   5.803  10.482  0.3102 -0.0339 -0.1710
  543loPI   GL2 8678  17.437   5.968  10.264 -0.1206  0.0463  0.0620
  543loPI   C1A 8679  16.979   5.749  10.111 -0.0853 -0.1639  0.3746
  543loPI   C2A 8680  16.994   5.754   9.619  0.1723 -0.0834  0.2780
  543loPI   C3A 8681  16.870   5.842   9.218  0.1101 -0.0507  0.2522
  543loPI   C4A 8682  16.918   5.745   8.876 -0.1233 -0.4010 -0.1645
  543loPI   C5A 8683  16.937   5.585   8.423 -0.3489  0.2423  0.1362
  543loPI   C6A 8684  16.862   5.206   8.158  0.0291  0.0267  0.3202
  543loPI   C1B 8685  17.463   5.929   9.839 -0.3527  0.1329 -0.0347
  543loPI   C2B 8686  17.431   5.956   9.413  0.0040  0.3782  0.2271
  543loPI   C3B 8687  17.443   5.871   8.992  0.1984 -0.1293 -0.1714
  543loPI   C4B 8688  17.391   5.870   8.519 -0.0128  0.3147 -0.0848
  544loPI    C1 8689   7.271   7.550  10.530  0.0782  0.1857 -0.0554
  544loPI    C2 8690   7.587   7.415  10.735 -0.0272 -0.0930 -0.0713
  544loPI    C3 8691   7.322   7.658  10.911  0.1683  0.1031 -0.0434
  544loPI   PO4 8692   7.242   7.313  10.403 -0.1384 -0.0382 -0.4151
  544loPI   GL1 8693   7.270   7.230  10.003 -0.3690  0.0430 -0.0510
  544loPI   GL2 8694   6.874   7.072   9.987 -0.1137  0.1671 -0.0699
  544loPI   C1A 8695   7.160   7.107   9.610 -0.4481 -0.0386 -0.0012
  544loPI   C2A 8696   7.019   6.745   9.333 -0.0310 -0.4141 -0.0275
  544loPI   C3A 8697   7.013   6.420   9.062 -0.0515 -0.0817  0.3868
  544loPI   C4A 8698   7.279   6.202   8.770  0.3364  0.1663  0.1671
  544loPI   C5A 8699   7.160   6.298   8.228 -0.0590  0.2780 -0.0191
  544loPI   C6A 8700   7.215   5.973   7.844 -0.1613  0.2457  0.1776
  544loPI   C1B 8701   6.698   6.827   9.715  0.2658 -0.0092  0.0012
  544loPI   C2B 8702   6.603   6.534   9.354  0.2187  0.0605 -0.2813
  544loPI   C3B 8703   6.291   6.336   9.177 -0.0034 -0.0314 -0.0549
  544loPI   C4B 8704   6.005   6.117   8.876  0.0330  0.0972 -0.0134
  545loPI    C1 8705   1.866  11.913  10.463 -0.0122 -0.0453 -0.0304
  545loPI    C2 8706   1.626  12.036  10.758 -0.1071 -0.0630 -0.0993
  545loPI    C3 8707   2.023  12.077  10.791 -0.1149 -0.1027  0.0480
  545loPI   PO4 8708   1.824  11.955  10.304  0.5474  0.0472 -0.1009
  545loPI   GL1 8709   1.899  11.745   9.903 -0.4769 -0.1029 -0.2765
  545loPI   GL2 8710   2.090  12.086   9.900  0.0208  0.0152  0.1920
  545loPI   C1A 8711   2.077  11.875   9.465  0.2654 -0.2025 -0.0561
  545loPI   C2A 8712   1.987  11.947   9.073 -0.0130 -0.0179  0.0761
  545loPI   C3A 8713   1.896  12.093   8.649 -0.0021  0.1218  0.1677
  545loPI   C4A 8714   1.863  12.248   8.274  0.0141 -0.2625 -0.2232
  545loPI   C5A 8715   1.936  12.658   8.084 -0.0677 -0.0800  0.2347
  545loPI   C6A 8716   2.081  13.042   7.973 -0.0244 -0.3199 -0.1743
  545loPI   C1B 8717   2.086  12.355   9.480  0.1957 -0.0988 -0.1429
  545loPI   C2B 8718   2.154  12.477   9.145 -0.0443 -0.0317 -0.0153
  545loPI   C3B 8719   2.175  12.578   8.672 -0.1580  0.2243 -0.3070
  545loPI   C4B 8720   2.415  12.804   8.316 -0.1467  0.0326  0.1557
  546loPI    C1 8721   2.787   0.079  11.232  0.2411 -0.0771 -0.0038
  546loPI    C2 8722   3.078   0.225  10.999  0.2249  0.0899  0.0793
  546loPI    C3 8723   3.156   0.124  11.378  0.2609 -0.2212 -0.0076
  546loPI   PO4 8724   2.586  -0.018  11.059  0.0215 -0.1736  0.2745
  546loPI   GL1 8725   2.606  -0.065  10.696  0.0570  0.0558  0.1549
  546loPI   GL2 8726   2.414   0.193  10.450 -0.1150  0.3877 -0.2018
  546loPI   C1A 8727   2.716  -0.143  10.175  0.1845 -0.0025 -0.0003
  546loPI   C2A 8728   2.693  -0.109   9.737  0.1765 -0.1404 -0.0708
  546loPI   C3A 8729   2.715  -0.102   9.261  0.1330 -0.4439 -0.2070
  546loPI   C4A 8730   2.757  -0.181   8.842 -0.1116  0.1020  0.1605
  546loPI   C5A 8731   3.076  -0.460   8.541 -0.1574 -0.2127 -0.1686
  546loPI   C6A 8732   3.340  -0.364   8.231  0.0862  0.0177  0.0200
  546loPI   C1B 8733   2.408   0.175   9.998  0.1471 -0.2022  0.0476
  546loPI   C2B 8734   2.311   0.207   9.522 -0.0855 -0.0521 -0.0270
  546loPI   C3B 8735   2.467   0.347   9.053  0.0499  0.0242  0.0190
  546loPI   C4B 8736   2.453   0.159   8.631 -0.2449  0.0224 -0.1471
  547loPI    C1 8737  12.586  13.210  10.874 -0.1434 -0.0678  0.0312
  547loPI    C2 8738  12.841  13.152  11.177  0.0971 -0.0286 -0.1614
  547loPI    C3 8739  12.521  12.916  11.137  0.1110 -0.0891  0.0724
  547loPI   PO4 8740  12.738  13.182  10.700  0.0802  0.1745 -0.1346
  547loPI   GL1 8741  12.899  13.211  10.373  0.0501 -0.1317 -0.0740
  547loPI   GL2 8742  12.992  12.941  10.323  0.2945  0.1141 -0.2368
  547loPI   C1A 8743  12.907  13.402   9.992 -0.2169  0.0097  0.3328
  547loPI   C2A 8744  12.816  13.621   9.574  0.3867  0.2047 -0.1828
  547loPI   C3A 8745  12.841  13.716   9.186  0.0598 -0.1756 -0.2985
  547loPI   C4A 8746  12.833  13.606   8.774 -0.3331 -0.0969 -0.1335
  547loPI   C5A 8747  12.662  13.624   8.379  0.0334  0.1789  0.1761
  547loPI   C6A 8748  12.449  13.532   7.977 -0.1947 -0.0924  0.1492
  547loPI   C1B 8749  12.919  12.929   9.911  0.2883 -0.0027  0.1363
  547loPI   C2B 8750  13.004  12.794   9.460 -0.0167 -0.0750 -0.0485
  547loPI   C3B 8751  13.157  12.868   9.024  0.2753  0.3328  0.1298
  547loPI   C4B 8752  13.168  12.743   8.561 -0.0820  0.0169 -0.1314
  548loPI    C1 8753   6.765  17.689  10.574 -0.2028 -0.0926 -0.2412
  548loPI    C2 8754   6.844  18.045  10.409 -0.1923  0.0073 -0.0254
  548loPI    C3 8755   6.706  18.025  10.783  0.1011 -0.2293  0.0746
  548loPI   PO4 8756   6.843  17.570  10.352  0.0150 -0.0809  0.1452
  548loPI   GL1 8757   6.737  17.560   9.963  0.0670 -0.0480 -0.2486
  548loPI   GL2 8758   6.553  17.856   9.919  0.1056 -0.0965 -0.4205
  548loPI   C1A 8759   6.972  17.469   9.560 -0.1849 -0.2580 -0.0369
  548loPI   C2A 8760   6.792  17.507   9.209  0.1724  0.0193  0.0393
  548loPI   C3A 8761   6.780  17.523   8.801  0.1589 -0.0924 -0.4984
  548loPI   C4A 8762   6.792  17.527   8.429  0.1203  0.2254 -0.1506
  548loPI   C5A 8763   6.863  17.617   8.024  0.1567  0.2018 -0.0746
  548loPI   C6A 8764   7.179  17.522   7.707  0.2091  0.0488  0.2077
  548loPI   C1B 8765   6.453  17.782   9.444  0.2999  0.2388 -0.1606
  548loPI   C2B 8766   6.406  17.873   9.001  0.1025 -0.1709 -0.1455
  548loPI   C3B 8767   6.397  17.814   8.501 -0.2456 -0.0326  0.0414
  548loPI   C4B 8768   6.479  17.943   8.119 -0.1129 -0.0074  0.0564
  549loPI    C1 8769   0.576   3.364  11.130 -0.2064 -0.1496  0.0778
  549loPI    C2 8770   0.290   3.162  11.323 -0.0534 -0.2589  0.1925
  549loPI    C3 8771   0.502   3.441  11.515 -0.2250 -0.0260  0.0502
  549loPI   PO4 8772   0.584   3.435  10.862  0.3981  0.1830  0.0621
  549loPI   GL1 8773   0.875   3.502  10.496  0.2961 -0.0087 -0.5104
  549loPI   GL2 8774   0.704   3.818  10.512  0.0387 -0.0601  0.1762
  549loPI   C1A 8775   0.732   3.581  10.089 -0.2192  0.1734 -0.1127
  549loPI   C2A 8776   0.745   3.608   9.633  0.1551  0.0264 -0.0174
  549loPI   C3A 8777   0.782   3.553   9.154  0.2072 -0.3855  0.1998
  549loPI   C4A 8778   0.766   3.564   8.724 -0.3873  0.1445  0.0554
  549loPI   C5A 8779   1.038   3.530   8.393  0.2914 -0.1392 -0.1431
  549loPI   C6A 8780   1.356   3.614   8.087  0.2379  0.2785  0.1522
  549loPI   C1B 8781   0.421   4.046  10.177 -0.1405  0.2707 -0.1792
  549loPI   C2B 8782   0.317   3.969   9.791  0.0190 -0.4148 -0.0956
  549loPI   C3B 8783   0.301   3.988   9.308 -0.1573  0.0980  0.0656
  549loPI   C4B 8784   0.382   3.936   8.907  0.2019  0.0495 -0.3000
  550loPI    C1 8785  12.851   3.317  11.001 -0.1500  0.1512  0.1586
  550loPI    C2 8786  12.920   3.176  11.369  0.0434  0.1268  0.1142
  550loPI    C3 8787  12.973   3.565  11.290 -0.1056  0.1529  0.1383
  550loPI   PO4 8788  12.964   3.183  10.856  0.2789 -0.2196  0.1138
  550loPI   GL1 8789  13.068   3.128  10.413 -0.2111 -0.0756 -0.2370
  550loPI   GL2 8790  13.307   3.002  10.253  0.0777  0.1038  0.0279
  550loPI   C1A 8791  12.572   3.060  10.119 -0.2982  0.0554  0.0467
  550loPI   C2A 8792  12.497   3.168   9.753 -0.0027  0.0542  0.1383
  550loPI   C3A 8793  12.529   3.156   9.310 -0.3121 -0.1879  0.2036
  550loPI   C4A 8794  12.699   3.031   8.908  0.0417 -0.2201  0.1619
  550loPI   C5A 8795  12.617   2.912   8.507  0.1533 -0.0362  0.0210
  550loPI   C6A 8796  12.795   2.760   8.128  0.0768  0.0070  0.0042
  550loPI   C1B 8797  13.455   2.880   9.732  0.2109 -0.0004  0.0527
  550loPI   C2B 8798  13.431   2.952   9.334 -0.1130 -0.0533 -0.2794
  550loPI   C3B 8799  13.492   2.912   8.929  0.2380  0.1430  0.1143
  550loPI   C4B 8800  13.689   2.915   8.472 -0.0552  0.0333  0.0688
  551loPI    C1 8801   8.643   5.488  10.308 -0.1671 -0.0827 -0.0764
  551loPI    C2 8802   8.553   5.216  10.586  0.0515 -0.1306 -0.0510
  551loPI    C3 8803   8.863   5.462  10.640 -0.1079  0.0839 -0.1016
  551loPI   PO4 8804   8.543   5.353  10.023  0.1171 -0.1475  0.2997
  551loPI   GL1 8805   8.595   5.559   9.606  0.1503  0.3296 -0.1513
  551loPI   GL2 8806   8.323   5.732   9.406  0.1082  0.0350 -0.0488
  551loPI   C1A 8807   8.912   5.356   9.302  0.2548 -0.2587  0.1530
  551loPI   C2A 8808   8.978   5.409   8.848  0.2224 -0.1628  0.0513
  551loPI   C3A 8809   8.831   5.443   8.490 -0.0074 -0.0599  0.0376
  551loPI   C4A 8810   8.775   5.322   8.108  0.3233 -0.0859  0.1002
  551loPI   C5A 8811   8.566   5.507   7.740  0.1554  0.2048  0.0586
  551loPI   C6A 8812   8.187   5.444   7.413 -0.0239  0.1501 -0.0152
  551loPI   C1B 8813   8.405   6.055   9.038  0.4307 -0.1367 -0.0413
  551loPI   C2B 8814   8.539   6.377   8.805  0.0556  0.0525  0.2962
  551loPI   C3B 8815   8.680   6.745   8.596  0.3348  0.1679 -0.4513
  551loPI   C4B 8816   8.666   6.986   8.209  0.2676  0.2249  0.1712
  552loPI    C1 8817  15.105  15.787  10.753 -0.1474  0.0499 -0.1074
  552loPI    C2 8818  14.734  15.685  10.643 -0.0876  0.0085 -0.2731
  552loPI    C3 8819  15.006  15.401  10.714 -0.0872  0.0389 -0.1525
  552loPI   PO4 8820  15.183  15.969  10.572 -0.1872  0.1214  0.3786
  552loPI   GL1 8821  15.285  15.707  10.247  0.2274  0.0862 -0.2038
  552loPI   GL2 8822  14.957  15.585  10.211 -0.1243 -0.2634 -0.0879
  552loPI   C1A 8823  15.243  15.614   9.821 -0.2104  0.0865 -0.0674
  552loPI   C2A 8824  15.319  15.643   9.374  0.2492  0.0918 -0.0215
  552loPI   C3A 8825  15.306  15.729   9.078  0.0215 -0.2712  0.2503
  552loPI   C4A 8826  15.343  15.627   8.674 -0.2168 -0.0503 -0.0137
  552loPI   C5A 8827  15.209  15.634   8.216  0.1212  0.1610  0.1692
  552loPI   C6A 8828  15.141  15.352   7.770 -0.2312 -0.0810  0.0786
  552loPI   C1B 8829  14.772  15.431   9.890  0.0483  0.0587 -0.0912
  552loPI   C2B 8830  14.799  15.396   9.466  0.2889  0.0613 -0.1548
  552loPI   C3B 8831  14.846  15.524   8.999  0.0153 -0.0631  0.0807
  552loPI   C4B 8832  14.861  15.565   8.549 -0.2515  0.0250 -0.2350
  553loPI    C1 8833  16.300  13.705  10.920  0.1158 -0.2057  0.3490
  553loPI    C2 8834  16.254  13.400  10.666  0.2067  0.0555  0.0115
  553loPI    C3 8835  16.067  13.396  11.019  0.0057 -0.2715 -0.0945
  553loPI   PO4 8836  16.329  13.945  10.689  0.0082  0.0730 -0.1017
  553loPI   GL1 8837  16.143  13.939  10.310  0.0576  0.2484  0.1246
  553loPI   GL2 8838  16.234  14.165  10.056 -0.0925 -0.5131 -0.0326
  553loPI   C1A 8839  16.149  13.603   9.997  0.0827  0.0166 -0.0868
  553loPI   C2A 8840  16.137  13.534   9.578 -0.1102 -0.0206  0.2097
  553loPI   C3A 8841  16.259  13.612   9.186  0.4047 -0.3626 -0.0571
  553loPI   C4A 8842  16.265  13.503   8.737  0.3572  0.1084 -0.0558
  553loPI   C5A 8843  16.174  13.569   8.459  0.0336 -0.0763  0.3164
  553loPI   C6A 8844  16.034  13.303   8.038  0.0249 -0.2603  0.0942
  553loPI   C1B 8845  16.215  14.040   9.612  0.0878 -0.2836 -0.0693
  553loPI   C2B 8846  16.289  14.109   9.184 -0.0932  0.0444  0.0704
  553loPI   C3B 8847  16.413  14.039   8.673 -0.0441 -0.0445  0.2431
  553loPI   C4B 8848  16.365  13.968   8.169 -0.0273 -0.1360  0.1515
  554loPI    C1 8849   8.093  12.004   9.983 -0.2728  0.1330  0.0185
  554loPI    C2 8850   8.188  12.180  10.330  0.2006 -0.1210  0.0260
  554loPI    C3 8851   8.045  12.398  10.027  0.0054  0.1398  0.3009
  554loPI   PO4 8852   8.256  11.882   9.860 -0.0866  0.0356  0.3749
  554loPI   GL1 8853   8.316  12.082   9.558 -0.1325 -0.0542  0.0325
  554loPI   GL2 8854   8.247  12.377   9.556  0.0497  0.1755  0.1959
  554loPI   C1A 8855   8.064  11.972   9.219  0.1151 -0.0260  0.0014
  554loPI   C2A 8856   7.828  11.908   8.860  0.3571 -0.2968 -0.1719
  554loPI   C3A 8857   7.951  11.894   8.402  0.0191 -0.0377 -0.1718
  554loPI   C4A 8858   8.230  11.927   8.016  0.2468 -0.0410 -0.2993
  554loPI   C5A 8859   8.287  11.910   7.545  0.0856 -0.0095  0.1927
  554loPI   C6A 8860   8.037  11.900   7.132  0.0735  0.1886  0.2770
  554loPI   C1B 8861   8.172  12.446   9.037 -0.3260  0.3801  0.1230
  554loPI   C2B 8862   8.226  12.208   8.696  0.1492  0.0755  0.1171
  554loPI   C3B 8863   8.225  12.381   8.354  0.1213 -0.3076  0.1413
  554loPI   C4B 8864   8.007  12.648   7.986  0.2098  0.2338 -0.1582
  555loPI    C1 8865   9.013  13.844  10.100 -0.0202 -0.0667  0.2050
  555loPI    C2 8866   9.085  13.860  10.494 -0.1524  0.0136  0.2265
  555loPI    C3 8867   8.755  13.679  10.357  0.0239 -0.2461  0.1357
  555loPI   PO4 8868   9.337  13.770  10.009 -0.2679 -0.0327 -0.0854
  555loPI   GL1 8869   9.350  13.659   9.586  0.0878 -0.3399  0.0421
  555loPI   GL2 8870   9.050  13.594   9.607 -0.2848 -0.3532 -0.0494
  555loPI   C1A 8871   9.385  13.714   9.177 -0.3956  0.0481  0.2658
  555loPI   C2A 8872   9.457  13.856   8.812 -0.1062 -0.1164 -0.0734
  555loPI   C3A 8873   9.673  14.001   8.426 -0.0200 -0.1065 -0.5715
  555loPI   C4A 8874  10.056  13.841   8.190  0.3556  0.2528  0.1902
  555loPI   C5A 8875  10.428  13.789   7.988 -0.2466  0.1050 -0.1387
  555loPI   C6A 8876  10.569  13.460   7.893 -0.0355 -0.1997  0.0049
  555loPI   C1B 8877   8.951  13.470   9.208  0.0161  0.0151 -0.2385
  555loPI   C2B 8878   8.985  13.531   8.781 -0.3441  0.2411  0.0804
  555loPI   C3B 8879   9.114  13.659   8.426 -0.2743 -0.2833 -0.1849
  555loPI   C4B 8880   9.209  13.989   8.322  0.0078  0.1845  0.0230
  556loPI    C1 8881   6.345   3.691  10.399 -0.1245  0.2782 -0.0937
  556loPI    C2 8882   6.444   3.609  10.777 -0.3216 -0.0457 -0.1087
  556loPI    C3 8883   6.267   3.957  10.688 -0.0684  0.1301  0.0590
  556loPI   PO4 8884   6.572   3.648  10.169  0.0581 -0.4560 -0.4270
  556loPI   GL1 8885   6.437   3.724   9.704 -0.4879 -0.0479 -0.1300
  556loPI   GL2 8886   6.289   3.989   9.865  0.1455  0.1288 -0.3114
  556loPI   C1A 8887   6.641   4.062   9.501 -0.0592 -0.2318 -0.1319
  556loPI   C2A 8888   6.464   4.312   9.156  0.0617  0.2093 -0.2326
  556loPI   C3A 8889   6.518   4.258   8.664 -0.0323 -0.1977 -0.1844
  556loPI   C4A 8890   6.366   4.194   8.325 -0.0233 -0.3840  0.2910
  556loPI   C5A 8891   6.191   4.162   7.899 -0.1264  0.1288  0.0219
  556loPI   C6A 8892   5.947   3.948   7.761  0.0649  0.1460 -0.0333
  556loPI   C1B 8893   6.047   4.136   9.584 -0.0883  0.1809  0.0176
  556loPI   C2B 8894   5.967   4.175   9.071  0.0553  0.1247  0.1360
  556loPI   C3B 8895   5.998   4.172   8.662  0.0333 -0.0041 -0.0054
  556loPI   C4B 8896   5.880   3.952   8.249  0.1008 -0.1501 -0.1795
  557loPI    C1 8897  12.626   2.242  10.770 -0.0472 -0.0034  0.0492
  557loPI    C2 8898  12.438   2.586  10.688  0.0157  0.0581  0.1611
  557loPI    C3 8899  12.337   2.376  11.013  0.0768  0.0447  0.1715
  557loPI   PO4 8900  12.603   2.013  10.623 -0.3054  0.2823 -0.1082
  557loPI   GL1 8901  12.937   1.791  10.394  0.0830 -0.1347  0.2128
  557loPI   GL2 8902  12.911   1.430  10.471  0.2414 -0.2780 -0.2266
  557loPI   C1A 8903  13.058   1.878   9.948  0.3005 -0.1847  0.0441
  557loPI   C2A 8904  13.174   1.894   9.480  0.2184  0.1893  0.1023
  557loPI   C3A 8905  13.272   1.756   9.029  0.1780 -0.2039  0.2745
  557loPI   C4A 8906  13.073   1.637   8.580  0.0055  0.0867  0.0417
  557loPI   C5A 8907  12.942   1.639   8.194 -0.4294  0.0086 -0.1386
  557loPI   C6A 8908  12.820   1.635   7.770  0.1208 -0.2104 -0.0225
  557loPI   C1B 8909  12.953   1.299  10.035 -0.0329  0.0920 -0.1688
  557loPI   C2B 8910  13.033   1.362   9.616  0.1729 -0.4456  0.2408
  557loPI   C3B 8911  12.965   1.370   9.197  0.0672 -0.2406  0.1562
  557loPI   C4B 8912  13.053   1.219   8.875 -0.2797 -0.2615  0.0705
  558loPI    C1 8913  14.628  10.616  10.432 -0.0001 -0.0125 -0.0878
  558loPI    C2 8914  14.235  10.569  10.484  0.0418 -0.1052  0.1624
  558loPI    C3 8915  14.482  10.539  10.796  0.2639 -0.2153 -0.0213
  558loPI   PO4 8916  14.588  10.710  10.135  0.2897 -0.3258 -0.2414
  558loPI   GL1 8917  14.643  10.833   9.741  0.0564 -0.1778 -0.4913
  558loPI   GL2 8918  15.099  10.801   9.850  0.3957 -0.4346 -0.1010
  558loPI   C1A 8919  14.636  10.780   9.323  0.1229  0.2379  0.0189
  558loPI   C2A 8920  14.618  10.704   8.908 -0.2460  0.0019 -0.0450
  558loPI   C3A 8921  14.605  10.780   8.550  0.1292  0.0959  0.0323
  558loPI   C4A 8922  14.473  10.917   8.116 -0.1847 -0.1144 -0.1439
  558loPI   C5A 8923  14.657  10.967   7.763 -0.1647 -0.1132 -0.1851
  558loPI   C6A 8924  15.074  11.078   7.781 -0.2315 -0.3418 -0.0384
  558loPI   C1B 8925  15.113  10.786   9.488 -0.0624  0.2757 -0.0867
  558loPI   C2B 8926  15.097  10.901   9.053  0.2759  0.5065  0.0326
  558loPI   C3B 8927  15.080  10.927   8.608 -0.2561 -0.2858 -0.1918
  558loPI   C4B 8928  15.023  10.900   8.260 -0.4135  0.2723 -0.1265
  559loPI    C1 8929   2.318   8.284  10.562  0.1246 -0.1844 -0.1475
  559loPI    C2 8930   2.414   8.175  10.935  0.0819  0.0541 -0.0649
  559loPI    C3 8931   2.541   8.525  10.790  0.1535 -0.0665 -0.2987
  559loPI   PO4 8932   2.394   8.032  10.429  0.1251 -0.2270  0.0949
  559loPI   GL1 8933   2.629   7.940  10.028  0.1421  0.1931 -0.3161
  559loPI   GL2 8934   2.241   7.791   9.901 -0.1794  0.1109  0.5539
  559loPI   C1A 8935   2.673   7.921   9.508  0.0530 -0.2880  0.0978
  559loPI   C2A 8936   2.800   7.905   9.014  0.3391 -0.0380 -0.0690
  559loPI   C3A 8937   2.748   7.920   8.633 -0.0411  0.0031  0.1667
  559loPI   C4A 8938   2.561   7.643   8.311 -0.2086 -0.0132  0.2631
  559loPI   C5A 8939   2.423   7.424   7.984  0.0644  0.1209 -0.1203
  559loPI   C6A 8940   2.027   7.178   8.104 -0.4149  0.1627  0.6441
  559loPI   C1B 8941   2.183   7.783   9.552 -0.2270  0.1029  0.2266
  559loPI   C2B 8942   2.225   7.790   9.084 -0.0257  0.0937 -0.3054
  559loPI   C3B 8943   2.244   7.846   8.672 -0.1415  0.1006  0.0355
  559loPI   C4B 8944   2.050   7.745   8.210 -0.4292  0.2098 -0.2103
  560loPI    C1 8945  10.098   2.594  10.576  0.1421 -0.2389  0.1091
  560loPI    C2 8946   9.859   2.840  10.783  0.2005 -0.1281  0.0461
  560loPI    C3 8947  10.091   2.578  10.976  0.1315 -0.1402  0.1133
  560loPI   PO4 8948   9.856   2.626  10.319  0.2137  0.3913  0.2375
  560loPI   GL1 8949   9.761   2.417   9.924 -0.2896 -0.2605 -0.0944
  560loPI   GL2 8950   9.659   2.115   9.868  0.5425 -0.1257 -0.0326
  560loPI   C1A 8951   9.963   2.464   9.507  0.0615 -0.0896  0.0801
  560loPI   C2A 8952   9.992   2.312   9.085 -0.2752  0.1496  0.1465
  560loPI   C3A 8953   9.996   2.377   8.570 -0.1768 -0.0101 -0.0307
  560loPI   C4A 8954   9.929   2.389   8.219  0.2614 -0.0043 -0.1053
  560loPI   C5A 8955   9.996   2.227   7.842 -0.2171 -0.1163 -0.1098
  560loPI   C6A 8956  10.257   1.841   7.750 -0.2332  0.0513 -0.2604
  560loPI   C1B 8957   9.748   1.855   9.519  0.0521  0.0948  0.1033
  560loPI   C2B 8958   9.774   1.814   9.039  0.0953  0.0510  0.0985
  560loPI   C3B 8959   9.933   1.794   8.599  0.0003 -0.1866 -0.1073
  560loPI   C4B 8960   9.999   1.847   8.193 -0.3023  0.0525  0.1819
  561loPI    C1 8961  12.263  14.462  10.361 -0.0733 -0.0115  0.0104
  561loPI    C2 8962  12.059  14.371  10.693 -0.0961  0.3517  0.1002
  561loPI    C3 8963  12.287  14.700  10.682  0.2580  0.1065 -0.0974
  561loPI   PO4 8964  12.090  14.495  10.172  0.1907  0.1175 -0.1244
  561loPI   GL1 8965  12.202  14.391   9.813  0.3268  0.0257 -0.0278
  561loPI   GL2 8966  12.269  14.010   9.967  0.1369 -0.0229  0.2500
  561loPI   C1A 8967  12.078  14.431   9.435 -0.1266  0.3344  0.0142
  561loPI   C2A 8968  11.922  14.510   9.026 -0.0827  0.2232  0.3154
  561loPI   C3A 8969  11.757  14.577   8.668  0.0340 -0.0676  0.0840
  561loPI   C4A 8970  11.405  14.709   8.407 -0.0975 -0.0769  0.0734
  561loPI   C5A 8971  10.936  14.759   8.134 -0.0055  0.2902  0.2197
  561loPI   C6A 8972  10.885  14.774   7.617  0.1498  0.2201  0.3704
  561loPI   C1B 8973  12.480  14.066   9.540  0.0456 -0.0856  0.1061
  561loPI   C2B 8974  12.421  14.170   9.063 -0.0120 -0.1437 -0.1510
  561loPI   C3B 8975  12.532  14.119   8.669 -0.1249  0.1254  0.1819
  561loPI   C4B 8976  12.485  14.027   8.270  0.0841 -0.2723 -0.2287
  562loPI    C1 8977  13.173  16.948  10.673  0.1724  0.2871 -0.1939
  562loPI    C2 8978  12.940  17.238  10.822  0.1632  0.1501  0.0631
  562loPI    C3 8979  13.105  16.968  11.067  0.1466 -0.0818 -0.1766
  562loPI   PO4 8980  13.068  16.982  10.375 -0.1471 -0.0559 -0.2605
  562loPI   GL1 8981  13.274  17.127  10.053  0.0659 -0.1997 -0.1902
  562loPI   GL2 8982  13.078  17.356   9.983 -0.1754  0.0722  0.0228
  562loPI   C1A 8983  13.273  16.968   9.640 -0.0412  0.0529 -0.1060
  562loPI   C2A 8984  13.192  17.022   9.311 -0.1835 -0.0596 -0.2880
  562loPI   C3A 8985  13.322  17.163   8.897  0.1545  0.2015 -0.1995
  562loPI   C4A 8986  13.292  17.029   8.458  0.3353  0.2959 -0.0745
  562loPI   C5A 8987  13.135  16.904   8.151  0.3476 -0.2682  0.0737
  562loPI   C6A 8988  13.147  16.675   7.745  0.0170  0.1899  0.0670
  562loPI   C1B 8989  12.955  17.412   9.543 -0.0989  0.4630 -0.1666
  562loPI   C2B 8990  12.971  17.438   9.096 -0.1795  0.3481  0.1707
  562loPI   C3B 8991  12.920  17.381   8.686  0.2056  0.0811 -0.0849
  562loPI   C4B 8992  12.763  17.177   8.381  0.3647  0.1830  0.0959
  563loPI    C1 8993  14.624   7.784  10.678 -0.1249 -0.0525 -0.1203
  563loPI    C2 8994  14.283   7.681  10.861 -0.1589  0.1679 -0.0565
  563loPI    C3 8995  14.320   8.044  10.697 -0.0644  0.0361 -0.3333
  563loPI   PO4 8996  14.689   7.620  10.474 -0.0490  0.2842  0.2279
  563loPI   GL1 8997  14.886   7.767  10.116  0.0515 -0.0661 -0.3243
  563loPI   GL2 8998  14.926   8.007   9.888 -0.2064  0.1367  0.0473
  563loPI   C1A 8999  14.875   7.450   9.835  0.0433  0.3885 -0.1220
  563loPI   C2A 9000  14.930   7.423   9.359 -0.0411  0.3691 -0.0294
  563loPI   C3A 9001  15.005   7.207   9.114 -0.0682  0.2640  0.0401
  563loPI   C4A 9002  15.005   7.062   8.743  0.1441 -0.1450  0.2351
  563loPI   C5A 9003  14.898   6.996   8.366 -0.0116  0.0675 -0.4464
  563loPI   C6A 9004  15.058   7.011   8.018  0.0257 -0.2256 -0.1537
  563loPI   C1B 9005  14.922   7.922   9.410 -0.1034 -0.0922 -0.2887
  563loPI   C2B 9006  14.800   8.078   9.074 -0.1277  0.0293 -0.1946
  563loPI   C3B 9007  14.694   8.052   8.744 -0.1111 -0.2717 -0.1729
  563loPI   C4B 9008  14.560   8.364   8.301  0.2143 -0.0231  0.1472
  564loPI    C1 9009  11.556   1.153  11.039  0.0274  0.0652 -0.1912
  564loPI    C2 9010  11.848   0.988  11.256 -0.0508 -0.1287 -0.2313
  564loPI    C3 9011  11.466   0.911  11.345 -0.0976  0.2915 -0.0457
  564loPI   PO4 9012  11.660   1.163  10.801 -0.1107  0.0261  0.1942
  564loPI   GL1 9013  11.630   1.058  10.450 -0.1407  0.2153  0.4501
  564loPI   GL2 9014  11.444   1.381  10.297 -0.0226  0.1221  0.0345
  564loPI   C1A 9015  11.813   1.135  10.111 -0.0882  0.1400 -0.0306
  564loPI   C2A 9016  12.097   0.959   9.865  0.2137 -0.0937  0.1623
  564loPI   C3A 9017  12.411   0.700   9.605 -0.1719 -0.1293 -0.1048
  564loPI   C4A 9018  12.445   0.636   9.253 -0.1844  0.1649  0.0301
  564loPI   C5A 9019  12.443   0.571   8.724 -0.1912 -0.1177  0.2449
  564loPI   C6A 9020  12.497   0.638   8.380 -0.1792 -0.2847 -0.0622
  564loPI   C1B 9021  11.579   1.482   9.871  0.1546  0.2271  0.1861
  564loPI   C2B 9022  11.771   1.316   9.396  0.0427  0.0199 -0.1283
  564loPI   C3B 9023  11.759   1.342   9.002 -0.0065 -0.2980  0.1245
  564loPI   C4B 9024  11.628   1.351   8.588 -0.0500  0.3813  0.1477
  565loPI    C1 9025   9.076   4.045  10.229  0.1239 -0.2098  0.5321
  565loPI    C2 9026   8.928   3.752  10.001  0.1074  0.0851  0.1549
  565loPI    C3 9027   8.722   3.881  10.318  0.0908 -0.2719  0.2932
  565loPI   PO4 9028   9.157   4.202   9.989  0.1349 -0.1586  0.1137
  565loPI   GL1 9029   9.275   4.217   9.576  0.1911 -0.0247  0.0953
  565loPI   GL2 9030   9.644   4.114   9.510  0.0023  0.0538 -0.0067
  565loPI   C1A 9031   9.368   4.524   9.200  0.1134 -0.0546 -0.0020
  565loPI   C2A 9032   9.549   4.404   8.809 -0.0293 -0.2269 -0.1347
  565loPI   C3A 9033   9.339   3.967   8.631 -0.0579  0.1523 -0.2181
  565loPI   C4A 9034   9.163   3.858   8.148  0.2249  0.1290  0.2914
  565loPI   C5A 9035   8.927   3.705   7.810  0.1219  0.2555  0.1263
  565loPI   C6A 9036   8.644   3.386   7.500  0.4138 -0.4824  0.1217
  565loPI   C1B 9037   9.423   3.928   9.185 -0.2512  0.2715  0.1161
  565loPI   C2B 9038   9.466   3.547   8.872 -0.0743  0.0897  0.1760
  565loPI   C3B 9039   9.528   3.524   8.470 -0.4173  0.0262 -0.0025
  565loPI   C4B 9040   9.555   3.588   8.121  0.0080 -0.0678  0.2199
  566loPI    C1 9041   3.683  17.925  11.231 -0.0039  0.2571  0.0126
  566loPI    C2 9042   3.499  18.043  11.565  0.1056  0.2205  0.0865
  566loPI    C3 9043   3.747  17.730  11.574  0.0607  0.1806 -0.0424
  566loPI   PO4 9044   3.506  17.899  10.971 -0.2000 -0.0212  0.0325
  566loPI   GL1 9045   3.507  17.891  10.464 -0.0764  0.0758 -0.1372
  566loPI   GL2 9046   3.410  17.622  10.312  0.2744 -0.0982 -0.2768
  566loPI   C1A 9047   3.505  18.069   9.987 -0.1092 -0.0182 -0.1346
  566loPI   C2A 9048   3.679  18.060   9.541  0.0060  0.1516 -0.1007
  566loPI   C3A 9049   3.677  17.984   9.101  0.0607 -0.1830  0.3842
  566loPI   C4A 9050   3.681  18.099   8.625  0.3335  0.1368  0.1504
  566loPI   C5A 9051   3.806  18.248   8.237 -0.1165  0.1493  0.0950
  566loPI   C6A 9052   3.837  18.509   7.866  0.1000  0.1453  0.2072
  566loPI   C1B 9053   3.440  17.597   9.863  0.1638 -0.3536  0.0384
  566loPI   C2B 9054   3.487  17.476   9.420  0.2345  0.1788  0.0126
  566loPI   C3B 9055   3.439  17.507   9.036 -0.6800  0.0876  0.1920
  566loPI   C4B 9056   3.474  17.629   8.592  0.1743  0.1223  0.0896
  567loPI    C1 9057  16.998  14.121  10.776 -0.0173 -0.0925  0.1423
  567loPI    C2 9058  17.166  14.463  10.900  0.1470 -0.2243  0.2878
  567loPI    C3 9059  17.375  14.208  10.674 -0.0382 -0.1430  0.0197
  567loPI   PO4 9060  16.794  14.142  10.600  0.0555 -0.2041  0.2223
  567loPI   GL1 9061  16.703  13.977  10.261  0.0494  0.1141  0.1721
  567loPI   GL2 9062  16.590  13.658  10.154 -0.0789  0.0350  0.0826
  567loPI   C1A 9063  16.797  14.198   9.826  0.0429 -0.2010  0.2702
  567loPI   C2A 9064  16.756  14.160   9.354 -0.2647  0.2102  0.0152
  567loPI   C3A 9065  16.846  14.205   8.948  0.4200  0.2117  0.0855
  567loPI   C4A 9066  16.861  14.168   8.452  0.1435  0.0302  0.3556
  567loPI   C5A 9067  16.871  14.015   8.080 -0.3751 -0.0583 -0.1066
  567loPI   C6A 9068  16.872  14.070   7.677  0.0454  0.2091  0.2691
  567loPI   C1B 9069  16.608  13.733   9.760 -0.1198 -0.2110  0.3530
  567loPI   C2B 9070  16.710  13.653   9.383 -0.1068 -0.4582 -0.1311
  567loPI   C3B 9071  16.706  13.733   8.937  0.3344 -0.1112 -0.2136
  567loPI   C4B 9072  16.695  13.684   8.460 -0.1046 -0.0090 -0.0270
  568loPI    C1 9073  17.202  13.266  10.780 -0.1684 -0.0994  0.0990
  568loPI    C2 9074  17.035  13.358  11.132  0.1498 -0.0467  0.2403
  568loPI    C3 9075  17.412  13.224  11.118  0.0933 -0.1843 -0.0705
  568loPI   PO4 9076  17.191  13.087  10.610 -0.4026  0.2646 -0.1567
  568loPI   GL1 9077  17.339  13.001  10.323  0.0223 -0.0883  0.2360
  568loPI   GL2 9078  17.749  13.040  10.327  0.3212 -0.0108  0.3188
  568loPI   C1A 9079  17.398  13.038   9.872 -0.1791 -0.1606  0.0584
  568loPI   C2A 9080  17.459  12.997   9.443  0.0415  0.0259 -0.0974
  568loPI   C3A 9081  17.490  12.959   8.987 -0.1576 -0.0471  0.0778
  568loPI   C4A 9082  17.558  13.011   8.627 -0.1437 -0.0086  0.2956
  568loPI   C5A 9083  17.458  13.148   8.293 -0.1085  0.1081 -0.0398
  568loPI   C6A 9084  17.480  13.422   8.123  0.1097 -0.0727  0.4896
  568loPI   C1B 9085  17.891  13.204   9.772  0.7321  0.1980  0.2390
  568loPI   C2B 9086  17.953  13.088   9.229  0.4107 -0.1996 -0.1722
  568loPI   C3B 9087  18.057  13.208   8.838 -0.0203 -0.1344 -0.1254
  568loPI   C4B 9088  17.952  13.354   8.419 -0.3550  0.3188  0.2960
  569loPI    C1 9089  13.144  16.473  10.893  0.0283 -0.2024 -0.1046
  569loPI    C2 9090  13.328  16.544  11.240 -0.0138 -0.1486 -0.0932
  569loPI    C3 9091  13.062  16.247  11.212 -0.1952  0.0046 -0.0123
  569loPI   PO4 9092  13.321  16.465  10.664  0.1629 -0.3758  0.1830
  569loPI   GL1 9093  13.357  16.303  10.231 -0.0722  0.0914 -0.3198
  569loPI   GL2 9094  13.224  16.585   9.962 -0.0159 -0.2397 -0.1973
  569loPI   C1A 9095  13.579  16.144   9.839 -0.3473 -0.3001  0.2417
  569loPI   C2A 9096  13.560  16.074   9.417  0.1284 -0.2273 -0.2505
  569loPI   C3A 9097  13.526  16.087   9.075 -0.0206  0.1019  0.0335
  569loPI   C4A 9098  13.573  16.104   8.687 -0.0594 -0.1343  0.0512
  569loPI   C5A 9099  13.767  16.084   8.273  0.2860 -0.0362  0.1480
  569loPI   C6A 9100  13.988  16.419   8.119 -0.2731  0.1129 -0.0165
  569loPI   C1B 9101  13.162  16.483   9.587  0.0699  0.0202  0.2924
  569loPI   C2B 9102  13.153  16.552   9.166  0.1820  0.0204 -0.0081
  569loPI   C3B 9103  13.179  16.360   8.801 -0.0285 -0.1743 -0.0636
  569loPI   C4B 9104  13.247  16.512   8.433  0.1885 -0.0768 -0.2185
  570loPI    C1 9105   4.970  12.880  10.807  0.1530 -0.2292  0.4075
  570loPI    C2 9106   4.806  13.214  10.952  0.1937  0.0010 -0.0581
  570loPI    C3 9107   4.613  12.866  10.985  0.0268  0.1142  0.1915
  570loPI   PO4 9108   5.120  12.866  10.631  0.1615  0.1921  0.0604
  570loPI   GL1 9109   5.268  12.981  10.241  0.3036 -0.2828  0.1848
  570loPI   GL2 9110   5.142  13.326  10.121 -0.0903 -0.0127 -0.1801
  570loPI   C1A 9111   5.542  12.925   9.927  0.1907  0.0850 -0.2698
  570loPI   C2A 9112   5.638  12.791   9.621  0.4928 -0.0538  0.2850
  570loPI   C3A 9113   5.622  12.885   9.183  0.2288 -0.1187  0.0372
  570loPI   C4A 9114   5.596  12.958   8.748  0.0049  0.0075 -0.1218
  570loPI   C5A 9115   5.455  13.063   8.352 -0.1248  0.2044 -0.1516
  570loPI   C6A 9116   5.427  13.104   7.877 -0.0989  0.1458  0.3467
  570loPI   C1B 9117   5.190  13.261   9.724  0.0096 -0.1388  0.1762
  570loPI   C2B 9118   5.221  13.114   9.294  0.0719  0.0276 -0.0747
  570loPI   C3B 9119   5.199  13.206   8.836 -0.3858 -0.0565  0.1761
  570loPI   C4B 9120   5.217  13.413   8.550  0.0226  0.0986  0.2299
  571loPI    C1 9121  13.058   8.027  10.815  0.1548  0.0020 -0.1070
  571loPI    C2 9122  13.153   8.028  11.204  0.3102 -0.0559 -0.1438
  571loPI    C3 9123  13.016   7.694  11.031  0.0116  0.0334 -0.0859
  571loPI   PO4 9124  13.312   8.081  10.613 -0.2028  0.1763 -0.0401
  571loPI   GL1 9125  13.422   8.127  10.188 -0.1714  0.1428 -0.1291
  571loPI   GL2 9126  13.410   7.767  10.252 -0.2658  0.2015 -0.0310
  571loPI   C1A 9127  13.313   8.038   9.849  0.0759  0.0273 -0.1692
  571loPI   C2A 9128  13.183   8.021   9.409 -0.0306  0.0835  0.0552
  571loPI   C3A 9129  13.112   8.017   8.830  0.0751  0.3013  0.4427
  571loPI   C4A 9130  13.282   8.076   8.374 -0.2145 -0.0054 -0.1487
  571loPI   C5A 9131  13.154   7.995   8.013  0.1082  0.0587 -0.2635
  571loPI   C6A 9132  12.890   7.694   7.735  0.0803  0.1916 -0.1931
  571loPI   C1B 9133  13.419   7.475   9.827 -0.1195  0.1143  0.3380
  571loPI   C2B 9134  13.501   7.578   9.341 -0.0910  0.1052  0.2927
  571loPI   C3B 9135  13.610   7.754   8.964  0.1145 -0.1621 -0.1408
  571loPI   C4B 9136  13.620   7.809   8.531 -0.1963  0.0577  0.0370
  572loPI    C1 9137   8.979  10.998  10.077  0.1083 -0.1657 -0.2117
  572loPI    C2 9138   9.190  10.680  10.196  0.0370 -0.0142  0.3496
  572loPI    C3 9139   9.358  11.043  10.195  0.0481 -0.0161 -0.0710
  572loPI   PO4 9140   8.925  10.999   9.928  0.1682 -0.1396  0.1374
  572loPI   GL1 9141   8.486  10.994   9.735  0.0149  0.5805  0.0443
  572loPI   GL2 9142   8.390  10.731   9.476  0.1547 -0.1095  0.0412
  572loPI   C1A 9143   8.667  11.133   9.408  0.0391 -0.1178 -0.1292
  572loPI   C2A 9144   8.667  11.102   9.021 -0.2539 -0.1533 -0.2839
  572loPI   C3A 9145   8.744  11.182   8.609 -0.1632  0.0551  0.2371
  572loPI   C4A 9146   8.581  11.167   8.208 -0.1500  0.2629  0.1449
  572loPI   C5A 9147   8.240  10.968   7.809 -0.0189 -0.2523  0.4360
  572loPI   C6A 9148   7.822  11.175   7.739 -0.2041  0.0914  0.3602
  572loPI   C1B 9149   8.516  10.631   9.106 -0.2315 -0.2198 -0.4056
  572loPI   C2B 9150   8.573  10.627   8.671  0.0513 -0.2577  0.1784
  572loPI   C3B 9151   8.578  10.649   8.236  0.4114  0.2748 -0.3222
  572loPI   C4B 9152   8.718  10.545   7.747 -0.2496 -0.1594  0.1954
  573loPI    C1 9153  16.061   0.200  11.173 -0.0559  0.3621  0.0686
  573loPI    C2 9154  16.133   0.062  11.542 -0.0456  0.0058 -0.0634
  573loPI    C3 9155  16.400   0.299  11.362 -0.0067  0.1025  0.1197
  573loPI   PO4 9156  15.865  -0.009  11.022 -0.0077  0.0739  0.0073
  573loPI   GL1 9157  15.648   0.031  10.615 -0.1905  0.0629  0.1332
  573loPI   GL2 9158  15.943   0.161  10.467 -0.1539 -0.1154 -0.0159
  573loPI   C1A 9159  15.455   0.164  10.286 -0.3249  0.0865 -0.2840
  573loPI   C2A 9160  15.423   0.200   9.925  0.5553  0.3426 -0.2338
  573loPI   C3A 9161  15.411   0.144   9.515 -0.2737  0.1463  0.3098
  573loPI   C4A 9162  15.536   0.261   9.107  0.0263  0.3340 -0.3182
  573loPI   C5A 9163  15.606   0.154   8.614  0.0893  0.0630  0.1145
  573loPI   C6A 9164  15.800   0.119   8.196 -0.0091  0.1889  0.2015
  573loPI   C1B 9165  15.985   0.243  10.064  0.0499 -0.0106 -0.0522
  573loPI   C2B 9166  16.165   0.340   9.677 -0.5048 -0.0488 -0.1746
  573loPI   C3B 9167  16.152   0.356   9.252 -0.1076 -0.0866  0.1583
  573loPI   C4B 9168  16.015   0.315   8.875  0.1616  0.4693  0.1007
  574loPI    C1 9169   2.897  10.356  10.843  0.0057  0.3370 -0.2003
  574loPI    C2 9170   2.995  10.564  11.171 -0.1215 -0.0163  0.0683
  574loPI    C3 9171   2.659  10.348  11.165 -0.0163 -0.1778 -0.2216
  574loPI   PO4 9172   2.987  10.474  10.584 -0.0232 -0.2502  0.0727
  574loPI   GL1 9173   2.777  10.458  10.140  0.0159  0.1014 -0.1928
  574loPI   GL2 9174   2.660  10.684   9.885 -0.0874 -0.0771  0.2038
  574loPI   C1A 9175   2.561  10.180   9.806  0.1018 -0.0110 -0.3880
  574loPI   C2A 9176   2.668   9.932   9.361 -0.2061  0.2546 -0.1059
  574loPI   C3A 9177   2.657   9.762   8.922 -0.0734  0.0389 -0.2312
  574loPI   C4A 9178   2.755   9.852   8.489 -0.1151  0.1384  0.1666
  574loPI   C5A 9179   2.790  10.013   7.951 -0.1830  0.0789  0.3798
  574loPI   C6A 9180   2.401  10.158   7.630 -0.2280  0.2800  0.4435
  574loPI   C1B 9181   2.675  10.560   9.400  0.1091  0.1442 -0.3355
  574loPI   C2B 9182   2.623  10.676   9.026  0.3338 -0.2958 -0.4042
  574loPI   C3B 9183   2.794  10.839   8.678 -0.0088 -0.1316 -0.0964
  574loPI   C4B 9184   3.062  11.063   8.413 -0.2785  0.2829 -0.1034
  575loPI    C1 9185  15.781  14.154  10.809 -0.1527  0.2224 -0.0435
  575loPI    C2 9186  16.067  14.240  11.075 -0.2333  0.3815 -0.0068
  575loPI    C3 9187  15.857  13.901  11.109  0.1004  0.1538 -0.1628
  575loPI   PO4 9188  15.872  14.233  10.638  0.2393  0.1280  0.0925
  575loPI   GL1 9189  15.840  14.465  10.249 -0.0111 -0.2396  0.1414
  575loPI   GL2 9190  15.850  14.778  10.353 -0.3071  0.1166  0.2752
  575loPI   C1A 9191  15.837  14.416   9.715  0.3691  0.0588 -0.2860
  575loPI   C2A 9192  15.911  14.439   9.252  0.2625 -0.1973 -0.1583
  575loPI   C3A 9193  15.991  14.392   8.810 -0.1559 -0.1839 -0.0875
  575loPI   C4A 9194  15.949  14.540   8.407  0.1991  0.0583 -0.0354
  575loPI   C5A 9195  16.132  14.979   8.182  0.3375  0.0975 -0.0760
  575loPI   C6A 9196  16.234  15.355   7.939  0.3987  0.0030  0.0595
  575loPI   C1B 9197  15.939  14.885   9.902  0.1022  0.0895 -0.0608
  575loPI   C2B 9198  16.014  14.852   9.526  0.2989  0.1012  0.4586
  575loPI   C3B 9199  16.020  15.017   9.158  0.2998 -0.0962 -0.0156
  575loPI   C4B 9200  16.097  14.957   8.676  0.0641  0.0083 -0.0204
  576loPI    C1 9201  12.585   8.243  10.774  0.0175  0.1724 -0.1182
  576loPI    C2 9202  12.710   8.606  10.885  0.1306  0.0093  0.3091
  576loPI    C3 9203  12.423   8.421  11.094 -0.0097 -0.1012  0.0237
  576loPI   PO4 9204  12.608   8.176  10.535 -0.0052  0.0969  0.1981
  576loPI   GL1 9205  12.899   8.051  10.295  0.2272 -0.0668  0.2244
  576loPI   GL2 9206  12.811   8.263  10.047  0.1305 -0.0556  0.0143
  576loPI   C1A 9207  12.940   7.645  10.009 -0.0340  0.1178  0.2337
  576loPI   C2A 9208  12.976   7.596   9.599 -0.4206  0.0838  0.1211
  576loPI   C3A 9209  13.060   7.545   9.095  0.1472 -0.0933 -0.0659
  576loPI   C4A 9210  13.269   7.518   8.654  0.0002  0.1911  0.0290
  576loPI   C5A 9211  13.413   7.455   8.297 -0.1846  0.2754 -0.0536
  576loPI   C6A 9212  13.398   7.587   7.875 -0.3537  0.1538 -0.0051
  576loPI   C1B 9213  12.844   8.443   9.612  0.0348  0.1178 -0.0640
  576loPI   C2B 9214  12.917   8.494   9.152  0.1394 -0.0135  0.0560
  576loPI   C3B 9215  13.108   8.501   8.792  0.1344 -0.2532  0.2170
  576loPI   C4B 9216  13.130   8.530   8.375 -0.3456  0.2842 -0.0601
  577loPI    C1 9217   5.343  16.187  10.557 -0.2738  0.1103  0.0377
  577loPI    C2 9218   5.343  16.119  10.951 -0.1399  0.0016  0.0195
  577loPI    C3 9219   5.658  16.295  10.778 -0.2304  0.1182 -0.0275
  577loPI   PO4 9220   5.116  15.994  10.507  0.1067 -0.1229 -0.3943
  577loPI   GL1 9221   5.086  15.785  10.141  0.1089 -0.0268 -0.1515
  577loPI   GL2 9222   5.325  16.072  10.092 -0.1745 -0.0386  0.1739
  577loPI   C1A 9223   5.009  15.579   9.833  0.2034 -0.3298 -0.0087
  577loPI   C2A 9224   4.989  15.442   9.512  0.0240 -0.0162 -0.0425
  577loPI   C3A 9225   4.911  15.536   9.064 -0.1624 -0.2770  0.2008
  577loPI   C4A 9226   4.910  15.554   8.635 -0.4362  0.1019 -0.0679
  577loPI   C5A 9227   4.761  15.657   8.240 -0.2900  0.1724 -0.1714
  577loPI   C6A 9228   4.750  15.905   8.010 -0.0823  0.1693 -0.1787
  577loPI   C1B 9229   5.201  16.073   9.625 -0.3665  0.1444 -0.0873
  577loPI   C2B 9230   5.015  16.035   9.314 -0.0135 -0.0418  0.0692
  577loPI   C3B 9231   5.031  15.993   8.874 -0.0516 -0.0104  0.1177
  577loPI   C4B 9232   4.973  16.032   8.516 -0.3105  0.1696 -0.0917
  578loPI    C1 9233   2.413   3.552  11.280 -0.2073 -0.1330  0.1810
  578loPI    C2 9234   2.614   3.270  11.480  0.1119  0.1856  0.3211
  578loPI    C3 9235   2.258   3.394  11.613 -0.1255 -0.2863  0.1470
  578loPI   PO4 9236   2.419   3.538  10.956 -0.2426 -0.3002  0.2979
  578loPI   GL1 9237   2.220   3.380  10.653  0.5358 -0.0177 -0.1741
  578loPI   GL2 9238   1.926   3.213  10.617 -0.1271 -0.0047 -0.4013
  578loPI   C1A 9239   2.297   3.470  10.382  0.1293 -0.2534  0.1708
  578loPI   C2A 9240   2.109   3.593  10.039 -0.2614 -0.1132  0.1107
  578loPI   C3A 9241   2.135   3.601   9.629  0.2192  0.0533  0.1312
  578loPI   C4A 9242   2.219   3.462   9.230  0.1650  0.5039 -0.2380
  578loPI   C5A 9243   2.060   3.624   8.847 -0.1014 -0.6396  0.1944
  578loPI   C6A 9244   1.910   3.393   8.541 -0.1599 -0.0248 -0.0969
  578loPI   C1B 9245   1.746   3.316  10.268 -0.0215  0.0488  0.0384
  578loPI   C2B 9246   1.695   3.439   9.760  0.0768  0.2612 -0.2102
  578loPI   C3B 9247   1.706   3.325   9.356 -0.0459 -0.0180  0.0707
  578loPI   C4B 9248   1.668   3.414   8.953  0.3117  0.1704  0.3154
  579loPI    C1 9249   2.061  13.044  10.926 -0.0311  0.0479 -0.0535
  579loPI    C2 9250   2.412  13.142  11.091 -0.1238 -0.1158  0.2484
  579loPI    C3 9251   2.225  12.807  11.203 -0.1330 -0.2988 -0.2832
  579loPI   PO4 9252   2.095  13.075  10.687 -0.0083 -0.1087  0.2874
  579loPI   GL1 9253   2.127  13.299  10.295  0.1321  0.1134  0.2081
  579loPI   GL2 9254   2.408  13.220  10.252  0.0489 -0.0802 -0.0714
  579loPI   C1A 9255   1.860  13.327   9.966  0.1556 -0.1918 -0.0976
  579loPI   C2A 9256   1.922  13.350   9.576  0.1724  0.1239  0.3357
  579loPI   C3A 9257   2.034  13.396   9.125  0.1456 -0.0490 -0.0617
  579loPI   C4A 9258   1.985  13.375   8.718 -0.0047  0.2012 -0.0694
  579loPI   C5A 9259   2.133  13.408   8.342 -0.0918  0.4593 -0.0683
  579loPI   C6A 9260   2.487  13.564   8.168  0.2520  0.0600 -0.1377
  579loPI   C1B 9261   2.391  13.361   9.788 -0.1856  0.2067 -0.5033
  579loPI   C2B 9262   2.467  13.410   9.421 -0.1866  0.0234 -0.0655
  579loPI   C3B 9263   2.519  13.487   9.027  0.3474  0.1560  0.1349
  579loPI   C4B 9264   2.502  13.517   8.676  0.1024 -0.1248 -0.0441
  580loPI    C1 9265   7.501  12.334  10.376  0.2422  0.1535 -0.0726
  580loPI    C2 9266   7.795  12.415  10.634  0.1300  0.0617  0.0860
  580loPI    C3 9267   7.437  12.588  10.678  0.1046  0.0306  0.0032
  580loPI   PO4 9268   7.598  12.215  10.145  0.1905  0.0709  0.2327
  580loPI   GL1 9269   7.726  12.164   9.649 -0.0059 -0.0369 -0.0150
  580loPI   GL2 9270   7.765  11.941   9.577  0.2297 -0.0593  0.0075
  580loPI   C1A 9271   7.776  12.374   9.265 -0.0909 -0.0385 -0.1045
  580loPI   C2A 9272   7.683  12.382   8.941  0.0618 -0.2067 -0.2031
  580loPI   C3A 9273   7.661  12.238   8.551  0.0498  0.0854 -0.3985
  580loPI   C4A 9274   7.658  12.148   8.098  0.1461  0.0560 -0.0311
  580loPI   C5A 9275   7.871  12.060   7.691  0.0568  0.0513 -0.1399
  580loPI   C6A 9276   7.884  11.658   7.542  0.2578 -0.0893  0.3241
  580loPI   C1B 9277   7.526  11.898   9.256 -0.2250 -0.0184 -0.0414
  580loPI   C2B 9278   7.335  11.945   8.923 -0.1991 -0.0778  0.2690
  580loPI   C3B 9279   7.224  12.066   8.527 -0.1718  0.3108  0.0585
  580loPI   C4B 9280   7.150  12.303   8.162  0.0183  0.0176  0.0563
  581loPI    C1 9281   1.271  13.345  10.921  0.1110  0.0534  0.0942
  581loPI    C2 9282   1.614  13.270  11.112  0.1247 -0.0443  0.0321
  581loPI    C3 9283   1.308  13.437  11.308  0.1040 -0.2359  0.1656
  581loPI   PO4 9284   1.198  13.193  10.703  0.1612  0.1949 -0.0977
  581loPI   GL1 9285   0.840  13.222  10.408 -0.1085 -0.1421 -0.0887
  581loPI   GL2 9286   0.511  13.176  10.252 -0.2697  0.0284  0.2322
  581loPI   C1A 9287   0.965  13.471  10.092 -0.0820  0.4554 -0.2263
  581loPI   C2A 9288   0.993  13.542   9.643  0.0384 -0.0552  0.2824
  581loPI   C3A 9289   1.043  13.581   9.242 -0.3849  0.0282 -0.1422
  581loPI   C4A 9290   1.167  13.596   8.900  0.0297 -0.1215  0.0842
  581loPI   C5A 9291   1.166  13.646   8.464  0.0435 -0.3703 -0.4004
  581loPI   C6A 9292   1.254  13.837   8.099 -0.0716 -0.0971  0.0866
  581loPI   C1B 9293   0.522  13.409   9.809  0.0003 -0.1544  0.2767
  581loPI   C2B 9294   0.604  13.378   9.311  0.1095 -0.2452 -0.1652
  581loPI   C3B 9295   0.616  13.466   8.866 -0.1318  0.2116  0.4991
  581loPI   C4B 9296   0.493  13.620   8.430 -0.4300 -0.2427  0.2197
  582loPI    C1 9297   7.556  13.350  10.480  0.0881  0.1306  0.2166
  582loPI    C2 9298   7.308  13.077  10.635  0.0045 -0.0141 -0.1626
  582loPI    C3 9299   7.698  13.066  10.723 -0.0255 -0.1540 -0.0440
  582loPI   PO4 9300   7.372  13.330  10.211 -0.1246 -0.2751 -0.0638
  582loPI   GL1 9301   7.451  13.349   9.761  0.3598 -0.1327 -0.1278
  582loPI   GL2 9302   7.325  13.722   9.776 -0.1035  0.0079 -0.6057
  582loPI   C1A 9303   7.185  13.249   9.224  0.1304  0.2463  0.0562
  582loPI   C2A 9304   7.159  13.389   8.773  0.0714 -0.2097 -0.0241
  582loPI   C3A 9305   6.984  13.453   8.338 -0.0226 -0.0659 -0.0898
  582loPI   C4A 9306   6.905  13.540   7.919 -0.3966 -0.1296  0.1356
  582loPI   C5A 9307   6.714  13.590   7.552  0.1852 -0.0298  0.0213
  582loPI   C6A 9308   6.836  13.900   7.208  0.0669 -0.0369 -0.0456
  582loPI   C1B 9309   7.299  13.836   9.327 -0.2632  0.2805 -0.0432
  582loPI   C2B 9310   7.276  13.892   8.901 -0.2275  0.0969  0.3054
  582loPI   C3B 9311   7.233  14.036   8.559 -0.2633  0.0026 -0.0187
  582loPI   C4B 9312   7.124  14.313   8.115 -0.0844 -0.0246 -0.0752
  583loPI    C1 9313   2.420   0.982  11.194 -0.0615  0.2291  0.1916
  583loPI    C2 9314   2.798   1.107  11.236  0.0247 -0.0071  0.1309
  583loPI    C3 9315   2.602   0.953  11.549 -0.0304  0.1386  0.1685
  583loPI   PO4 9316   2.434   0.896  10.897  0.1752  0.1609 -0.0935
  583loPI   GL1 9317   2.594   1.076  10.503 -0.2398 -0.1393 -0.0019
  583loPI   GL2 9318   2.566   1.408  10.368 -0.2328  0.1193  0.2513
  583loPI   C1A 9319   3.035   1.283  10.370  0.1455 -0.2123  0.1793
  583loPI   C2A 9320   3.146   1.396   9.924 -0.0750 -0.2262 -0.2726
  583loPI   C3A 9321   3.009   1.359   9.504  0.2886  0.0956  0.2780
  583loPI   C4A 9322   3.137   1.295   9.090 -0.0026  0.4248 -0.0687
  583loPI   C5A 9323   3.022   1.386   8.676 -0.1609  0.1711  0.1924
  583loPI   C6A 9324   3.224   1.696   8.339 -0.2640  0.1205  0.4202
  583loPI   C1B 9325   2.616   1.316   9.952 -0.3977 -0.1637 -0.1522
  583loPI   C2B 9326   2.544   1.272   9.515  0.1140 -0.2505  0.2045
  583loPI   C3B 9327   2.557   1.280   9.097 -0.1238  0.0681  0.0162
  583loPI   C4B 9328   2.556   1.195   8.595  0.1704  0.0522 -0.0323
  584loPI    C1 9329   5.426   9.958  10.482  0.0284  0.1090 -0.1480
  584loPI    C2 9330   5.310   9.621  10.664 -0.3316  0.3212  0.0255
  584loPI    C3 9331   5.603   9.843  10.822  0.1716 -0.0959 -0.2891
  584loPI   PO4 9332   5.377   9.912  10.218  0.2846 -0.0213  0.0027
  584loPI   GL1 9333   5.216   9.750   9.867 -0.0787  0.1649  0.1655
  584loPI   GL2 9334   5.384   9.657   9.638 -0.0413 -0.2100  0.3560
  584loPI   C1A 9335   4.801   9.676   9.537 -0.0450  0.1772  0.0753
  584loPI   C2A 9336   4.643   9.669   9.177  0.2737 -0.2330  0.0631
  584loPI   C3A 9337   4.729   9.685   8.738  0.0202  0.2107 -0.2760
  584loPI   C4A 9338   4.735   9.615   8.280  0.2349  0.0523 -0.0661
  584loPI   C5A 9339   4.785   9.766   7.924  0.0953  0.1757  0.0490
  584loPI   C6A 9340   4.725   9.584   7.481 -0.1160 -0.0574  0.1755
  584loPI   C1B 9341   5.296   9.741   9.290  0.0115  0.0838  0.0536
  584loPI   C2B 9342   5.327   9.788   8.868  0.0504 -0.2219 -0.2718
  584loPI   C3B 9343   5.452   9.905   8.499  0.1257 -0.0759  0.1944
  584loPI   C4B 9344   5.282   9.848   8.078  0.1133  0.5179  0.0421
  585loPI    C1 9345   1.843  15.933  11.173  0.1238  0.0001 -0.3013
  585loPI    C2 9346   2.178  15.853  11.376 -0.0931  0.0902  0.1036
  585loPI    C3 9347   2.072  16.232  11.309 -0.1996  0.0645  0.1245
  585loPI   PO4 9348   1.859  15.803  10.987  0.2515 -0.1961 -0.1235
  585loPI   GL1 9349   1.777  15.835  10.505  0.2266  0.0068 -0.3288
  585loPI   GL2 9350   1.926  16.051  10.308  0.1418  0.0424  0.0946
  585loPI   C1A 9351   1.565  15.548  10.225  0.0357  0.1716 -0.1843
  585loPI   C2A 9352   1.587  15.453   9.823 -0.0140 -0.0853  0.0751
  585loPI   C3A 9353   1.550  15.549   9.485  0.2342  0.0589  0.0576
  585loPI   C4A 9354   1.677  15.582   9.025 -0.0578  0.1487 -0.1586
  585loPI   C5A 9355   1.569  15.727   8.689 -0.1260 -0.0156  0.3033
  585loPI   C6A 9356   1.495  15.743   8.233 -0.0859 -0.1853  0.1019
  585loPI   C1B 9357   1.728  16.052   9.791 -0.0680 -0.1049  0.0149
  585loPI   C2B 9358   1.665  16.053   9.425  0.3198 -0.0674  0.1397
  585loPI   C3B 9359   1.387  15.941   9.178 -0.0055 -0.0242  0.3715
  585loPI   C4B 9360   1.096  15.960   8.811  0.2821  0.0645 -0.1723
  586loPI    C1 9361   8.238   0.522  10.866  0.0438 -0.1465 -0.1585
  586loPI    C2 9362   7.931   0.267  10.899 -0.0773 -0.0001 -0.1425
  586loPI    C3 9363   8.008   0.527  11.194  0.0610 -0.0346 -0.1475
  586loPI   PO4 9364   8.206   0.439  10.514  0.1875  0.2128  0.2966
  586loPI   GL1 9365   8.319   0.396  10.042 -0.0805 -0.2313  0.0202
  586loPI   GL2 9366   8.061   0.214   9.864 -0.0261  0.0441 -0.3345
  586loPI   C1A 9367   8.511   0.391   9.672 -0.1011  0.2752  0.2324
  586loPI   C2A 9368   8.601   0.514   9.312 -0.0188  0.0246 -0.2117
  586loPI   C3A 9369   8.587   0.550   8.950 -0.0080  0.2288  0.2404
  586loPI   C4A 9370   8.642   0.571   8.494  0.0576 -0.2295  0.0887
  586loPI   C5A 9371   8.699   0.450   8.027 -0.1950 -0.0158 -0.0150
  586loPI   C6A 9372   8.617   0.285   7.555 -0.1237 -0.3146  0.0559
  586loPI   C1B 9373   8.085   0.396   9.430 -0.1374 -0.0630 -0.2195
  586loPI   C2B 9374   7.983   0.498   8.996  0.3138 -0.1253 -0.1516
  586loPI   C3B 9375   8.159   0.377   8.665 -0.0166 -0.0360 -0.0571
  586loPI   C4B 9376   8.206   0.506   8.206  0.0753 -0.1684  0.1432
  587loPI    C1 9377  11.994  15.041  10.301  0.0333  0.3105 -0.2107
  587loPI    C2 9378  11.823  15.402  10.321  0.0723  0.3152  0.0797
  587loPI    C3 9379  12.085  15.289  10.601  0.0150  0.0379  0.0243
  587loPI   PO4 9380  12.215  15.002  10.137  0.4409  0.2990  0.1067
  587loPI   GL1 9381  12.620  14.842   9.906 -0.0248 -0.3533 -0.2745
  587loPI   GL2 9382  12.323  14.859   9.704  0.3729  0.2395 -0.2021
  587loPI   C1A 9383  12.820  15.006   9.587 -0.0283 -0.0114 -0.2590
  587loPI   C2A 9384  12.884  14.882   9.116  0.0584 -0.1790  0.0190
  587loPI   C3A 9385  12.716  14.538   8.826 -0.2727 -0.2413  0.2437
  587loPI   C4A 9386  12.354  14.595   8.660 -0.1119 -0.1239  0.0706
  587loPI   C5A 9387  12.062  14.771   8.367 -0.0950  0.0939  0.1401
  587loPI   C6A 9388  11.809  14.838   8.046  0.0330  0.0295  0.2107
  587loPI   C1B 9389  12.012  14.965   9.522  0.0869  0.1968  0.1306
  587loPI   C2B 9390  11.870  15.286   9.292  0.2240  0.0023 -0.0908
  587loPI   C3B 9391  12.006  15.468   8.855  0.1592  0.1708  0.0533
  587loPI   C4B 9392  12.023  15.691   8.466  0.1095 -0.0649 -0.0198
  588loPI    C1 9393  11.096  18.057  10.863 -0.2657 -0.1577 -0.2042
  588loPI    C2 9394  11.274  17.729  11.006 -0.0132  0.1185  0.1371
  588loPI    C3 9395  11.038  17.947  11.243 -0.1243  0.2232 -0.0668
  588loPI   PO4 9396  10.953  17.957  10.619 -0.1241 -0.0255  0.0086
  588loPI   GL1 9397  10.884  17.961  10.191  0.0941  0.0664  0.2447
  588loPI   GL2 9398  11.034  17.713  10.122 -0.2465  0.1021 -0.2740
  588loPI   C1A 9399  10.826  18.373  10.017 -0.0020  0.1018  0.1060
  588loPI   C2A 9400  10.843  18.609   9.675  0.0552 -0.2566 -0.1225
  588loPI   C3A 9401  10.893  18.731   9.306  0.0450 -0.3087 -0.1092
  588loPI   C4A 9402  10.887  18.737   8.883 -0.0583 -0.2028  0.0130
  588loPI   C5A 9403  11.007  18.759   8.532  0.0239  0.1589  0.1656
  588loPI   C6A 9404  11.019  19.080   8.200 -0.0066  0.1083  0.2463
  588loPI   C1B 9405  11.130  17.752   9.689  0.2822 -0.0304  0.1215
  588loPI   C2B 9406  11.218  17.802   9.260  0.1281 -0.2999  0.1093
  588loPI   C3B 9407  11.313  17.901   8.875  0.0650  0.0897  0.3022
  588loPI   C4B 9408  11.420  17.955   8.436 -0.2303 -0.1090 -0.1079
  589loPI    C1 9409   3.401   3.831  11.170  0.2241 -0.1426 -0.1014
  589loPI    C2 9410   3.195   4.078  11.408  0.3404  0.0271 -0.1746
  589loPI    C3 9411   3.526   3.900  11.544  0.2651 -0.0781 -0.1270
  589loPI   PO4 9412   3.248   3.687  10.975  0.0661 -0.2101  0.0829
  589loPI   GL1 9413   2.906   3.844  10.547  0.0827 -0.3404 -0.0827
  589loPI   GL2 9414   2.720   3.633  10.592 -0.0411  0.2187  0.1569
  589loPI   C1A 9415   2.678   4.153  10.156 -0.4063  0.0645 -0.0318
  589loPI   C2A 9416   2.712   4.322   9.796 -0.0629 -0.0861  0.2245
  589loPI   C3A 9417   2.759   4.273   9.414 -0.0173 -0.0602  0.2649
  589loPI   C4A 9418   2.747   4.131   9.028  0.0343  0.1170 -0.3380
  589loPI   C5A 9419   2.757   4.174   8.624 -0.2012  0.0809 -0.0691
  589loPI   C6A 9420   2.555   4.294   8.291 -0.2728  0.1487 -0.2007
  589loPI   C1B 9421   2.714   3.660  10.107  0.0306  0.3601 -0.0030
  589loPI   C2B 9422   2.607   3.770   9.774  0.1151 -0.3136 -0.1505
  589loPI   C3B 9423   2.629   3.679   9.391 -0.2802  0.0439  0.1875
  589loPI   C4B 9424   2.606   3.677   8.922  0.3079 -0.2061  0.0132
  590loPI    C1 9425   0.961   8.598  10.519  0.0961 -0.0588  0.1001
  590loPI    C2 9426   1.043   8.253  10.704  0.2589  0.0342  0.2043
  590loPI    C3 9427   1.004   8.590  10.916 -0.0059  0.0624  0.1142
  590loPI   PO4 9428   0.675   8.439  10.352  0.4989  0.0808 -0.1975
  590loPI   GL1 9429   0.722   8.140  10.078 -0.1648 -0.1787 -0.3131
  590loPI   GL2 9430   1.082   8.166  10.144 -0.0142  0.1863  0.1170
  590loPI   C1A 9431   0.531   8.075   9.664 -0.1569 -0.2799  0.2157
  590loPI   C2A 9432   0.259   7.925   9.393 -0.3364 -0.0488  0.0157
  590loPI   C3A 9433   0.069   7.602   9.178  0.0738 -0.3528 -0.2324
  590loPI   C4A 9434  -0.078   7.577   8.766  0.2811 -0.0155 -0.0500
  590loPI   C5A 9435  -0.011   7.851   8.456  0.2096  0.1098 -0.0180
  590loPI   C6A 9436   0.222   7.968   8.196  0.0696 -0.2417  0.0119
  590loPI   C1B 9437   0.990   8.281   9.672  0.0399  0.2424  0.0799
  590loPI   C2B 9438   0.929   8.242   9.337  0.3085 -0.0343 -0.0127
  590loPI   C3B 9439   0.603   8.178   9.104 -0.1855  0.2435 -0.1016
  590loPI   C4B 9440   0.161   8.014   8.934 -0.1621  0.0383 -0.0097
  591loPI    C1 9441   1.952   7.507  10.932  0.1685 -0.1280  0.4029
  591loPI    C2 9442   1.764   7.730  11.206  0.0228 -0.0138  0.2132
  591loPI    C3 9443   2.163   7.747  11.172 -0.0184  0.5595 -0.0914
  591loPI   PO4 9444   1.801   7.334  10.884  0.1567 -0.0960  0.3188
  591loPI   GL1 9445   1.578   7.289  10.535 -0.0670 -0.0478 -0.2049
  591loPI   GL2 9446   1.331   7.486  10.343  0.2042  0.2014  0.0716
  591loPI   C1A 9447   1.652   7.248  10.089  0.1524  0.0022 -0.0943
  591loPI   C2A 9448   1.668   7.114   9.702 -0.1454 -0.0851 -0.3004
  591loPI   C3A 9449   1.655   7.020   9.259 -0.0798 -0.1136  0.1005
  591loPI   C4A 9450   1.632   6.971   8.834 -0.2388  0.2921 -0.2034
  591loPI   C5A 9451   1.657   6.998   8.385 -0.3157 -0.1690  0.0565
  591loPI   C6A 9452   1.579   6.897   7.901 -0.0892  0.1460  0.2602
  591loPI   C1B 9453   1.222   7.488   9.936 -0.2173  0.1367 -0.3035
  591loPI   C2B 9454   1.323   7.502   9.520  0.1758  0.1845  0.1346
  591loPI   C3B 9455   1.337   7.371   9.096 -0.1985  0.3028 -0.1479
  591loPI   C4B 9456   1.255   7.305   8.615  0.0642  0.3292 -0.0087
  592loPI    C1 9457   6.021   0.775  10.722  0.1867 -0.0062 -0.0003
  592loPI    C2 9458   5.705   0.892  10.507  0.0312 -0.3158  0.0554
  592loPI    C3 9459   5.774   1.055  10.866  0.0400 -0.1166 -0.0355
  592loPI   PO4 9460   6.244   0.759  10.506 -0.0892  0.0661  0.0021
  592loPI   GL1 9461   6.213   0.657  10.113  0.5132  0.3724  0.1523
  592loPI   GL2 9462   6.104   0.990  10.059 -0.0690  0.1410 -0.2513
  592loPI   C1A 9463   6.181   0.311   9.761 -0.2913 -0.0963  0.1042
  592loPI   C2A 9464   6.185   0.362   9.340 -0.1883 -0.0843  0.2577
  592loPI   C3A 9465   6.149   0.419   8.894  0.0818 -0.3007  0.1547
  592loPI   C4A 9466   6.198   0.321   8.465  0.3914 -0.2440  0.4702
  592loPI   C5A 9467   6.089   0.395   8.114 -0.1546 -0.2362 -0.0853
  592loPI   C6A 9468   6.337   0.787   7.925 -0.0570 -0.3033  0.1055
  592loPI   C1B 9469   6.307   0.846   9.658 -0.0643  0.3442 -0.2411
  592loPI   C2B 9470   6.260   0.832   9.200  0.1112 -0.0024 -0.3568
  592loPI   C3B 9471   6.303   0.841   8.720  0.1693 -0.2963 -0.1972
  592loPI   C4B 9472   6.214   1.091   8.337  0.2647  0.1686  0.2968
  593loPI    C1 9473   2.104  17.232  11.064 -0.0179 -0.0875  0.0330
  593loPI    C2 9474   2.250  17.013  11.365 -0.1611 -0.1469  0.0600
  593loPI    C3 9475   1.936  17.254  11.426  0.0307  0.1111  0.0445
  593loPI   PO4 9476   2.066  17.116  10.897  0.1805  0.0052  0.2637
  593loPI   GL1 9477   2.139  17.139  10.519 -0.0878 -0.0378  0.1116
  593loPI   GL2 9478   1.767  17.311  10.548 -0.0677 -0.1880  0.1501
  593loPI   C1A 9479   2.369  17.231  10.143 -0.2139  0.3083 -0.0742
  593loPI   C2A 9480   2.532  17.336   9.773  0.1940 -0.1709 -0.2840
  593loPI   C3A 9481   2.509  17.244   9.460  0.0397  0.3849  0.0643
  593loPI   C4A 9482   2.503  17.224   9.142 -0.2111 -0.4950  0.1744
  593loPI   C5A 9483   2.486  17.253   8.790 -0.1147  0.2298  0.2170
  593loPI   C6A 9484   2.296  17.242   8.274  0.0808 -0.1701  0.1210
  593loPI   C1B 9485   1.626  17.511  10.201  0.1162  0.0917 -0.3083
  593loPI   C2B 9486   1.599  17.417   9.827 -0.1467  0.3023  0.0641
  593loPI   C3B 9487   1.603  17.459   9.500  0.0431 -0.1106  0.3127
  593loPI   C4B 9488   1.678  17.456   9.028 -0.0335 -0.0134  0.1262
  594loPI    C1 9489   5.663   7.610  10.685 -0.2531  0.0518  0.1627
  594loPI    C2 9490   5.702   8.003  10.622  0.1076  0.0145  0.1320
  594loPI    C3 9491   6.008   7.793  10.771 -0.0288 -0.2842  0.0008
  594loPI   PO4 9492   5.530   7.545  10.417  0.0760 -0.2443  0.2211
  594loPI   GL1 9493   5.561   7.354   9.970  0.3181  0.0066  0.0091
  594loPI   GL2 9494   5.513   7.765   9.978  0.3702  0.1237  0.0755
  594loPI   C1A 9495   5.369   7.344   9.570 -0.5134 -0.0308 -0.0662
  594loPI   C2A 9496   5.424   7.389   9.104 -0.1082 -0.1990 -0.4445
  594loPI   C3A 9497   5.483   7.305   8.698  0.1586  0.1250 -0.2446
  594loPI   C4A 9498   5.410   7.185   8.327  0.3537 -0.2980 -0.0135
  594loPI   C5A 9499   5.554   7.154   7.900  0.1010  0.3369  0.1721
  594loPI   C6A 9500   5.623   7.120   7.527 -0.1017 -0.0314  0.2563
  594loPI   C1B 9501   5.594   7.807   9.523 -0.0070 -0.0503  0.0345
  594loPI   C2B 9502   5.487   7.973   9.096 -0.1356 -0.1024 -0.2019
  594loPI   C3B 9503   5.391   7.820   8.650 -0.3404  0.1213 -0.0682
  594loPI   C4B 9504   5.372   7.730   8.196 -0.2212  0.3649 -0.2385
  595loPI    C1 9505   7.884   1.227  10.600  0.0368  0.0413  0.0929
  595loPI    C2 9506   7.961   1.459  10.917  0.1391 -0.0470  0.1333
  595loPI    C3 9507   7.658   1.198  10.929  0.0029  0.1071  0.0753
  595loPI   PO4 9508   7.980   1.416  10.420  0.1566  0.1434  0.1957
  595loPI   GL1 9509   8.132   1.385   9.995 -0.1289  0.0211 -0.2238
  595loPI   GL2 9510   7.866   1.543   9.939  0.0522 -0.0465  0.1272
  595loPI   C1A 9511   8.355   1.451   9.633 -0.0142  0.0395 -0.2383
  595loPI   C2A 9512   8.322   1.403   9.214 -0.1038 -0.0086 -0.0260
  595loPI   C3A 9513   8.363   1.404   8.789 -0.0389  0.2989 -0.1092
  595loPI   C4A 9514   8.365   1.465   8.335 -0.2501  0.4392 -0.2992
  595loPI   C5A 9515   8.398   1.539   7.895 -0.1773  0.1640  0.1873
  595loPI   C6A 9516   8.703   1.359   7.665  0.2445  0.0163  0.2254
  595loPI   C1B 9517   7.896   1.359   9.505 -0.0576 -0.0119 -0.1571
  595loPI   C2B 9518   7.806   1.216   9.182 -0.1605  0.0121 -0.5567
  595loPI   C3B 9519   7.889   1.270   8.750 -0.0055 -0.2943  0.0649
  595loPI   C4B 9520   7.675   1.209   8.390 -0.2458 -0.0245 -0.2973
  596loPI    C1 9521   7.155   3.825  10.377 -0.0821  0.4964 -0.0307
  596loPI    C2 9522   7.194   3.669  10.743  0.0356 -0.0008 -0.2474
  596loPI    C3 9523   6.864   3.873  10.646  0.0718  0.2722  0.1803
  596loPI   PO4 9524   7.395   3.832  10.275 -0.4986 -0.1700 -0.0902
  596loPI   GL1 9525   7.580   3.601   9.940  0.1160  0.1142 -0.2790
  596loPI   GL2 9526   7.839   3.539   9.885  0.3432 -0.1146 -0.1136
  596loPI   C1A 9527   7.481   3.605   9.557 -0.1660  0.1660 -0.2439
  596loPI   C2A 9528   7.302   3.537   9.109  0.0422  0.2318  0.0028
  596loPI   C3A 9529   7.105   3.342   8.744  0.5172 -0.1287 -0.3742
  596loPI   C4A 9530   7.241   3.498   8.388  0.2397 -0.0036 -0.0523
  596loPI   C5A 9531   7.400   3.238   8.120 -0.2150 -0.0916  0.2986
  596loPI   C6A 9532   7.303   2.805   7.921 -0.0375  0.1671  0.0110
  596loPI   C1B 9533   7.988   3.364   9.590 -0.2053  0.2505 -0.0198
  596loPI   C2B 9534   7.654   3.188   9.297  0.4264  0.3525 -0.4461
  596loPI   C3B 9535   7.500   3.015   8.911  0.1215 -0.0147  0.0226
  596loPI   C4B 9536   7.336   2.878   8.502  0.0262 -0.2156  0.1589
  597loPI    C1 9537  10.333  14.746  10.260  0.1930  0.1296 -0.0789
  597loPI    C2 9538  10.124  15.083  10.205  0.0292  0.0621  0.1172
  597loPI    C3 9539   9.968  14.783  10.419  0.1899 -0.1244 -0.0227
  597loPI   PO4 9540  10.376  14.698  10.006  0.0314 -0.0586 -0.0813
  597loPI   GL1 9541  10.383  14.936   9.704  0.0655  0.1708 -0.3844
  597loPI   GL2 9542  10.780  14.939   9.650  0.0775 -0.0837 -0.2818
  597loPI   C1A 9543  10.471  14.817   9.279  0.1342  0.1440 -0.0660
  597loPI   C2A 9544  10.586  15.029   8.849  0.3114  0.0453  0.1106
  597loPI   C3A 9545  10.189  15.196   8.657 -0.4624  0.1589  0.0942
  597loPI   C4A 9546   9.887  15.110   8.434 -0.0491  0.0301 -0.0791
  597loPI   C5A 9547   9.735  15.174   8.035  0.3617 -0.0598 -0.0127
  597loPI   C6A 9548   9.437  15.428   7.950 -0.0247 -0.1318  0.2921
  597loPI   C1B 9549  10.864  15.175   9.306 -0.3026 -0.1160  0.2595
  597loPI   C2B 9550  10.979  15.373   8.929  0.1845  0.0113  0.0663
  597loPI   C3B 9551  11.100  15.527   8.534 -0.2483 -0.2850 -0.1274
  597loPI   C4B 9552  11.356  15.119   8.163 -0.0198  0.0810  0.1484
  598loPI    C1 9553   4.613  12.491  10.628  0.0060  0.0054 -0.2466
  598loPI    C2 9554   4.260  12.576  10.795  0.0478  0.1329 -0.2216
  598loPI    C3 9555   4.502  12.307  10.966 -0.0442  0.0319 -0.2486
  598loPI   PO4 9556   4.655  12.676  10.499  0.0190  0.1212  0.4660
  598loPI   GL1 9557   4.848  12.761  10.124 -0.1222  0.0899  0.2768
  598loPI   GL2 9558   4.657  12.876  10.024 -0.0046 -0.0423 -0.1075
  598loPI   C1A 9559   5.069  12.791   9.728 -0.0019 -0.0671 -0.3274
  598loPI   C2A 9560   5.138  12.645   9.286 -0.3317  0.2040 -0.0604
  598loPI   C3A 9561   5.066  12.698   8.882 -0.2205 -0.0226  0.1338
  598loPI   C4A 9562   5.090  12.771   8.405 -0.1940  0.0265 -0.1218
  598loPI   C5A 9563   4.974  13.223   8.157  0.3490 -0.2032 -0.2493
  598loPI   C6A 9564   5.181  13.566   7.925  0.0076  0.1148 -0.0088
  598loPI   C1B 9565   4.725  13.138   9.734 -0.1750 -0.0272  0.3868
  598loPI   C2B 9566   4.742  13.138   9.402  0.2075 -0.1414  0.1750
  598loPI   C3B 9567   4.738  13.036   9.021 -0.1494 -0.0072  0.0031
  598loPI   C4B 9568   4.708  13.095   8.651 -0.3183 -0.0668 -0.3749
  599loPI    C1 9569  11.751   6.455  10.192 -0.0604 -0.0377  0.2221
  599loPI    C2 9570  11.466   6.424  10.471 -0.2161 -0.1453  0.0537
  599loPI    C3 9571  11.838   6.301  10.551 -0.1936  0.0754  0.3039
  599loPI   PO4 9572  11.705   6.711  10.066  0.1196 -0.3769  0.1432
  599loPI   GL1 9573  11.987   6.750   9.724 -0.2615 -0.0027 -0.1488
  599loPI   GL2 9574  12.142   7.058   9.609  0.2358 -0.1440  0.1121
  599loPI   C1A 9575  12.008   6.681   9.233 -0.1943  0.1028 -0.2609
  599loPI   C2A 9576  11.941   6.894   8.854 -0.3093  0.0242  0.1781
  599loPI   C3A 9577  11.894   6.785   8.541  0.2398 -0.1316 -0.1138
  599loPI   C4A 9578  12.029   6.524   8.148 -0.1270 -0.0415  0.2764
  599loPI   C5A 9579  11.891   6.167   8.062 -0.1053 -0.2189  0.1232
  599loPI   C6A 9580  11.484   6.141   7.943 -0.0243  0.0099  0.4484
  599loPI   C1B 9581  12.195   7.229   9.104  0.2226 -0.1497  0.4146
  599loPI   C2B 9582  12.305   7.288   8.643  0.3196 -0.0862  0.0816
  599loPI   C3B 9583  12.428   7.482   8.241  0.1158  0.3611  0.3113
  599loPI   C4B 9584  12.550   7.904   8.066 -0.2921  0.3715  0.1216
  600loPI    C1 9585  13.218   9.494  10.527  0.0277 -0.2800  0.1170
  600loPI    C2 9586  12.820   9.528  10.508  0.0632  0.0333 -0.1639
  600loPI    C3 9587  13.001   9.491  10.863 -0.2049  0.0234 -0.0254
  600loPI   PO4 9588  13.286   9.673  10.392  0.0228 -0.3311 -0.3537
  600loPI   GL1 9589  13.288   9.641   9.854 -0.3190 -0.0323 -0.0168
  600loPI   GL2 9590  13.392   9.919   9.964  0.0872  0.0602 -0.1344
  600loPI   C1A 9591  13.393   9.555   9.284  0.2178  0.2655  0.0510
  600loPI   C2A 9592  13.267   9.690   8.894  0.3660  0.3348 -0.1279
  600loPI   C3A 9593  13.321   9.631   8.527  0.2597  0.0202 -0.0444
  600loPI   C4A 9594  13.384   9.584   8.171 -0.1964  0.0777  0.2874
  600loPI   C5A 9595  13.370   9.268   7.770 -0.1919  0.1526 -0.1373
  600loPI   C6A 9596  13.492   9.245   7.327  0.0004  0.1458  0.0836
  600loPI   C1B 9597  13.528   9.972   9.507 -0.2576  0.1016 -0.3196
  600loPI   C2B 9598  13.526  10.099   9.123 -0.0394  0.2899  0.1802
  600loPI   C3B 9599  13.453  10.089   8.721 -0.2146 -0.1246  0.1568
  600loPI   C4B 9600  13.567  10.054   8.282 -0.1749  0.3149 -0.2768
  601loPI    C1 9601  17.155  18.126  11.035  0.2184  0.1647 -0.0374
  601loPI    C2 9602  17.282  18.498  11.110  0.0084  0.2018  0.1471
  601loPI    C3 9603  17.159  18.264  11.411  0.1146 -0.0092  0.0290
  601loPI   PO4 9604  17.316  18.034  10.838  0.0246 -0.1455  0.4806
  601loPI   GL1 9605  17.484  17.679  10.620  0.2741  0.2636  0.0061
  601loPI   GL2 9606  17.323  17.458  10.386 -0.0768 -0.2805 -0.0948
  601loPI   C1A 9607  17.673  17.677  10.224 -0.1718 -0.0413  0.1095
  601loPI   C2A 9608  17.767  17.640   9.820 -0.1481  0.2721 -0.2340
  601loPI   C3A 9609  17.745  17.812   9.414 -0.2813 -0.1722  0.0545
  601loPI   C4A 9610  17.707  17.865   8.962  0.2383 -0.1045  0.0844
  601loPI   C5A 9611  17.686  17.876   8.455 -0.0265 -0.1262 -0.2787
  601loPI   C6A 9612  17.733  17.905   8.056  0.0390  0.0469  0.0986
  601loPI   C1B 9613  17.258  17.530  10.005 -0.2210 -0.1670  0.1355
  601loPI   C2B 9614  17.281  17.717   9.632 -0.0151  0.0823  0.0207
  601loPI   C3B 9615  17.154  17.644   9.182 -0.0010  0.2551 -0.0727
  601loPI   C4B 9616  17.284  17.628   8.694 -0.1005  0.2883 -0.0138
  602loPI    C1 9617   5.340  15.090  10.773 -0.0440  0.1322 -0.0109
  602loPI    C2 9618   5.655  15.269  10.944 -0.0324 -0.0084  0.1169
  602loPI    C3 9619   5.339  15.163  11.167 -0.1001 -0.0169  0.0174
  602loPI   PO4 9620   5.392  14.978  10.583 -0.3398 -0.0182  0.1526
  602loPI   GL1 9621   5.378  14.775  10.218  0.3155  0.0032 -0.1287
  602loPI   GL2 9622   5.280  15.032  10.057  0.2744  0.3913  0.3906
  602loPI   C1A 9623   5.672  14.795   9.888 -0.1554  0.3683 -0.0978
  602loPI   C2A 9624   5.648  14.826   9.402  0.0129  0.0279  0.0450
  602loPI   C3A 9625   5.631  14.851   8.959  0.1506 -0.0479 -0.3648
  602loPI   C4A 9626   5.613  14.882   8.437  0.2778 -0.0446  0.0841
  602loPI   C5A 9627   5.813  14.745   8.103 -0.0175 -0.0185  0.2694
  602loPI   C6A 9628   6.033  14.447   7.764  0.0858  0.0244 -0.1917
  602loPI   C1B 9629   5.311  15.090   9.667 -0.2237 -0.0815 -0.1295
  602loPI   C2B 9630   5.275  15.178   9.267  0.0065  0.3323  0.0870
  602loPI   C3B 9631   5.205  15.222   8.905 -0.0003  0.0436 -0.0161
  602loPI   C4B 9632   5.227  15.320   8.405  0.0740  0.3011 -0.0255
  603loPI    C1 9633   1.458   1.998  10.995  0.1344  0.0541 -0.1569
  603loPI    C2 9634   1.283   1.901  11.341  0.0587  0.0505 -0.1961
  603loPI    C3 9635   1.608   2.134  11.340 -0.1557  0.3546 -0.1450
  603loPI   PO4 9636   1.138   1.979  10.814 -0.0151  0.0583 -0.0481
  603loPI   GL1 9637   1.198   1.893  10.366  0.4806 -0.0995 -0.0272
  603loPI   GL2 9638   1.190   1.611  10.450  0.1626  0.0661  0.1833
  603loPI   C1A 9639   1.264   1.855   9.912 -0.1479  0.0648  0.2502
  603loPI   C2A 9640   1.324   1.875   9.385  0.0331  0.2813  0.2340
  603loPI   C3A 9641   1.208   1.939   8.985 -0.2185  0.0846 -0.0405
  603loPI   C4A 9642   1.345   1.931   8.562 -0.3099  0.1395 -0.0279
  603loPI   C5A 9643   1.255   2.120   8.140  0.0757 -0.1543 -0.1636
  603loPI   C6A 9644   1.492   2.282   7.870 -0.1474  0.0954  0.0842
  603loPI   C1B 9645   1.209   1.332  10.081 -0.1060 -0.1290 -0.0180
  603loPI   C2B 9646   1.199   1.269   9.654 -0.0059 -0.1864  0.0663
  603loPI   C3B 9647   1.221   1.433   9.266  0.3085 -0.2920  0.1250
  603loPI   C4B 9648   1.185   1.431   8.849 -0.0277 -0.2281 -0.0755
  604loPI    C1 9649   6.800   8.107  10.275  0.2482 -0.1141 -0.0507
  604loPI    C2 9650   7.028   8.057  10.600  0.0879 -0.0571  0.0719
  604loPI    C3 9651   6.718   7.813  10.534 -0.1385  0.1936  0.1884
  604loPI   PO4 9652   6.918   8.022  10.049 -0.0412  0.1101 -0.1151
  604loPI   GL1 9653   6.807   8.139   9.697 -0.0580  0.2929  0.2312
  604loPI   GL2 9654   6.853   8.514   9.777 -0.0243  0.0935  0.3445
  604loPI   C1A 9655   6.757   8.195   9.208  0.2703  0.1763 -0.1918
  604loPI   C2A 9656   6.441   8.095   8.950  0.3196 -0.2507  0.0366
  604loPI   C3A 9657   6.289   7.741   8.616  0.1591 -0.0704 -0.2101
  604loPI   C4A 9658   6.457   7.449   8.307 -0.1157  0.1063  0.0895
  604loPI   C5A 9659   6.397   7.389   7.951  0.1862 -0.2869 -0.2336
  604loPI   C6A 9660   6.399   7.600   7.583  0.0079  0.1491  0.0121
  604loPI   C1B 9661   7.066   8.499   9.422  0.1234 -0.1651 -0.1324
  604loPI   C2B 9662   7.261   8.167   9.126  0.2751 -0.0114 -0.1597
  604loPI   C3B 9663   7.112   8.028   8.769  0.2400  0.1928 -0.0011
  604loPI   C4B 9664   6.726   8.051   8.508 -0.0067  0.0680 -0.0311
  605loPI    C1 9665  10.139   1.738  10.609  0.0655 -0.0876  0.0082
  605loPI    C2 9666  10.090   2.123  10.707  0.1601 -0.0513 -0.0860
  605loPI    C3 9667   9.785   1.867  10.745  0.0393  0.0725 -0.2073
  605loPI   PO4 9668  10.398   1.738  10.478  0.1947  0.0411  0.1412
  605loPI   GL1 9669  10.642   1.841  10.054 -0.2862 -0.4146  0.0558
  605loPI   GL2 9670  10.731   1.482  10.049 -0.2886  0.1788 -0.2549
  605loPI   C1A 9671  10.650   1.768   9.651  0.0924 -0.3487  0.0096
  605loPI   C2A 9672  10.694   1.713   9.210  0.2340  0.0363  0.3007
  605loPI   C3A 9673  10.722   1.664   8.696  0.0373 -0.0143 -0.0619
  605loPI   C4A 9674  10.792   1.511   8.266 -0.0996  0.2023  0.1061
  605loPI   C5A 9675  10.822   1.059   8.014  0.1313  0.1364  0.1169
  605loPI   C6A 9676  10.433   0.828   8.097  0.0138  0.2148 -0.0353
  605loPI   C1B 9677  10.589   1.155   9.736 -0.3581  0.1233 -0.3246
  605loPI   C2B 9678  10.652   1.212   9.279 -0.2144  0.1740 -0.3498
  605loPI   C3B 9679  10.618   1.197   8.831 -0.1675  0.2359 -0.2231
  605loPI   C4B 9680  10.587   1.072   8.477  0.0842  0.2569 -0.3671
  606loPI    C1 9681   7.432   4.396  10.359  0.1598  0.0949  0.1419
  606loPI    C2 9682   7.341   4.199  10.695  0.2239 -0.0599  0.0694
  606loPI    C3 9683   7.055   4.280  10.427  0.2154 -0.1454  0.0523
  606loPI   PO4 9684   7.597   4.249  10.248 -0.1532  0.2881 -0.1990
  606loPI   GL1 9685   7.406   4.052   9.835 -0.0581  0.2096 -0.0509
  606loPI   GL2 9686   7.641   4.086   9.603  0.1983 -0.2237  0.0953
  606loPI   C1A 9687   7.134   4.147   9.505  0.0389  0.1181  0.1438
  606loPI   C2A 9688   6.948   3.982   9.079 -0.2475  0.1458 -0.1071
  606loPI   C3A 9689   6.987   3.836   8.616  0.1642  0.2481 -0.0922
  606loPI   C4A 9690   6.822   3.777   8.206  0.1774 -0.2121  0.2872
  606loPI   C5A 9691   6.276   3.690   8.134 -0.1441  0.1708 -0.2437
  606loPI   C6A 9692   5.946   3.390   8.029 -0.0237 -0.0935  0.0294
  606loPI   C1B 9693   7.760   3.921   9.263  0.3752  0.1169 -0.2903
  606loPI   C2B 9694   7.926   3.535   9.127 -0.0443  0.0660  0.1662
  606loPI   C3B 9695   7.999   3.260   8.850 -0.2019  0.2927  0.1799
  606loPI   C4B 9696   7.772   3.123   8.413  0.1027 -0.0618  0.0633
  607loPI    C1 9697   9.719   8.208  10.138  0.1002  0.0698 -0.1192
  607loPI    C2 9698   9.906   8.156  10.488 -0.1105 -0.1228 -0.0332
  607loPI    C3 9699   9.745   8.511  10.397 -0.0807 -0.0806  0.0783
  607loPI   PO4 9700   9.942   8.038   9.897  0.1111  0.3191 -0.0091
  607loPI   GL1 9701  10.014   8.102   9.500 -0.0946  0.0149  0.1336
  607loPI   GL2 9702  10.083   8.410   9.524  0.0260 -0.2703  0.0839
  607loPI   C1A 9703  10.171   7.863   9.208  0.1575 -0.1547 -0.1775
  607loPI   C2A 9704  10.496   7.895   8.876 -0.1945 -0.1094 -0.0294
  607loPI   C3A 9705  10.468   7.820   8.325  0.2661  0.0286 -0.3664
  607loPI   C4A 9706  10.809   7.979   8.000 -0.2526 -0.0971  0.2259
  607loPI   C5A 9707  11.018   8.168   7.639 -0.1105 -0.2037 -0.0441
  607loPI   C6A 9708  11.114   8.461   7.295 -0.1216  0.1150 -0.0995
  607loPI   C1B 9709   9.874   8.347   9.142 -0.1631 -0.4315  0.2053
  607loPI   C2B 9710   9.996   8.215   8.817 -0.1310  0.4472 -0.1167
  607loPI   C3B 9711  10.036   8.079   8.346 -0.1904  0.1475  0.4396
  607loPI   C4B 9712   9.768   8.050   7.931  0.1823  0.2033 -0.1157
  608loPI    C1 9713  10.923  11.078  10.202  0.1441 -0.0331  0.1405
  608loPI    C2 9714  10.852  11.470  10.245  0.1756 -0.0239  0.1094
  608loPI    C3 9715  10.674  11.207  10.488  0.1142  0.0060  0.0971
  608loPI   PO4 9716  11.154  11.020  10.049 -0.2632 -0.1014 -0.1650
  608loPI   GL1 9717  11.161  10.859   9.675  0.0012 -0.4458 -0.1207
  608loPI   GL2 9718  11.113  10.540   9.634 -0.0000  0.0044 -0.0283
  608loPI   C1A 9719  11.450  11.041   9.493 -0.0403 -0.0557 -0.0700
  608loPI   C2A 9720  11.628  11.055   9.104  0.1900  0.1092  0.3844
  608loPI   C3A 9721  11.752  10.997   8.608  0.0377 -0.1062 -0.2193
  608loPI   C4A 9722  11.729  11.053   8.195 -0.0611 -0.3202 -0.1675
  608loPI   C5A 9723  11.461  11.130   7.777 -0.0591 -0.0808 -0.1871
  608loPI   C6A 9724  11.461  11.390   7.370  0.2970  0.1592 -0.2399
  608loPI   C1B 9725  10.903  10.259   9.160 -0.1146 -0.0219  0.2184
  608loPI   C2B 9726  10.722  10.114   8.764 -0.3213  0.0046  0.0641
  608loPI   C3B 9727  10.602  10.049   8.332 -0.0126  0.2427  0.1793
  608loPI   C4B 9728  10.515   9.970   7.936  0.2266 -0.2824 -0.0610
  609POPI    C1 9729  10.926  16.302  10.647  0.0716  0.1126 -0.2061
  609POPI    C2 9730  10.919  16.391  11.036  0.1932 -0.2256 -0.1230
  609POPI    C3 9731  11.181  16.572  10.794  0.0210  0.0909 -0.0777
  609POPI   PO4 9732  10.744  16.310  10.437 -0.1503  0.1257 -0.2091
  609POPI   GL1 9733  10.615  16.411  10.056 -0.0086 -0.0612  0.2170
  609POPI   GL2 9734  10.427  16.211   9.827 -0.0465 -0.1020 -0.1414
  609POPI   C1A 9735  10.452  16.656   9.624 -0.0517  0.2257 -0.1820
  609POPI   D2A 9736  10.483  16.643   9.158  0.3366 -0.4033  0.0006
  609POPI   C3A 9737  10.093  16.420   8.946 -0.2196 -0.3321  0.2805
  609POPI   C4A 9738   9.669  16.586   8.743  0.1274 -0.0808 -0.4426
  609POPI   C1B 9739  10.324  16.139   9.494 -0.3846  0.2080  0.2371
  609POPI   C2B 9740  10.494  16.046   9.071  0.0080 -0.0736  0.3086
  609POPI   C3B 9741  10.277  16.059   8.687 -0.4611 -0.1558 -0.0740
  609POPI   C4B 9742   9.952  16.249   8.457  0.0165  0.0196  0.0305
  610POPI    C1 9743  10.503   6.192  10.100 -0.0264 -0.0301 -0.0341
  610POPI    C2 9744  10.163   5.993  10.167  0.0976 -0.2488 -0.0463
  610POPI    C3 9745  10.326   6.213  10.458 -0.1068 -0.0593 -0.0719
  610POPI   PO4 9746  10.721   5.973   9.981  0.3001 -0.1463 -0.0921
  610POPI   GL1 9747  11.212   6.083   9.795 -0.1802 -0.3365  0.0214
  610POPI   GL2 9748  11.338   6.370   9.802  0.0608 -0.1959 -0.2120
  610POPI   C1A 9749  11.385   6.019   9.411 -0.0734  0.1375 -0.0603
  610POPI   D2A 9750  11.342   6.173   8.960  0.1642  0.0894  0.0116
  610POPI   C3A 9751  11.443   6.315   8.655 -0.0330  0.2574 -0.1357
  610POPI   C4A 9752  11.595   6.396   8.352  0.2838 -0.2703 -0.0823
  610POPI   C1B 9753  11.629   6.454   9.502  0.0480 -0.2828 -0.0105
  610POPI   C2B 9754  11.515   6.607   9.140  0.1643  0.4238  0.3302
  610POPI   C3B 9755  11.331   6.805   8.691 -0.3778  0.1131 -0.0720
  610POPI   C4B 9756  11.568   6.976   8.293  0.2858  0.1888 -0.3374
  611POPI    C1 9757   4.325   2.285  10.977  0.1191 -0.1761 -0.0432
  611POPI    C2 9758   4.305   2.576  10.703 -0.2852 -0.0953  0.0656
  611POPI    C3 9759   4.433   2.659  11.073 -0.1963 -0.1026  0.0368
  611POPI   PO4 9760   4.384   2.107  10.844  0.2809  0.0942  0.0858
  611POPI   GL1 9761   4.501   2.175  10.440  0.1155 -0.1403 -0.1891
  611POPI   GL2 9762   4.781   1.899  10.551 -0.0964  0.0547  0.0487
  611POPI   C1A 9763   4.320   2.280   9.997  0.0280 -0.0613  0.1901
  611POPI   D2A 9764   4.243   2.138   9.470 -0.5119 -0.0743 -0.1111
  611POPI   C3A 9765   4.221   2.237   9.048  0.1357 -0.2784 -0.0771
  611POPI   C4A 9766   4.238   2.084   8.693  0.1215 -0.0546 -0.0440
  611POPI   C1B 9767   4.704   1.796  10.130  0.1528 -0.0911 -0.0965
  611POPI   C2B 9768   4.564   1.821   9.646  0.1062 -0.1862  0.0081
  611POPI   C3B 9769   4.607   1.820   9.225  0.3833  0.0752  0.0669
  611POPI   C4B 9770   4.666   1.772   8.797  0.3150 -0.1044  0.1314
  612POPI    C1 9771  12.232  11.842  10.275 -0.2606 -0.0316 -0.0081
  612POPI    C2 9772  11.835  11.822  10.327 -0.2466 -0.0570  0.0920
  612POPI    C3 9773  12.058  12.046  10.572 -0.2464  0.2881 -0.2146
  612POPI   PO4 9774  12.303  11.922  10.107 -0.0097 -0.1060  0.3239
  612POPI   GL1 9775  12.597  11.889   9.773 -0.0591 -0.2223  0.3380
  612POPI   GL2 9776  12.602  11.612   9.689  0.1826 -0.1238 -0.1828
  612POPI   C1A 9777  12.543  12.001   9.341 -0.0977 -0.1136  0.1570
  612POPI   D2A 9778  12.601  12.150   8.915 -0.0703  0.2868  0.3482
  612POPI   C3A 9779  12.675  12.289   8.466 -0.1194 -0.3828 -0.1077
  612POPI   C4A 9780  12.629  12.560   8.051 -0.3367 -0.1813 -0.1375
  612POPI   C1B 9781  12.386  11.559   9.275 -0.0387  0.0324  0.1886
  612POPI   C2B 9782  12.311  11.766   8.853 -0.0283 -0.1774  0.1406
  612POPI   C3B 9783  12.428  11.850   8.417  0.2661  0.4488  0.0847
  612POPI   C4B 9784  12.526  11.608   8.135 -0.2131  0.0848 -0.0938
  613POPI    C1 9785   8.239   8.403  10.193 -0.1298 -0.0475  0.1232
  613POPI    C2 9786   8.600   8.283  10.315 -0.0579  0.0881  0.0470
  613POPI    C3 9787   8.345   8.448  10.576 -0.0427  0.0474  0.0881
  613POPI   PO4 9788   8.268   8.224   9.887 -0.0079  0.0664  0.0186
  613POPI   GL1 9789   8.005   8.212   9.512  0.1367  0.1989 -0.1686
  613POPI   GL2 9790   8.249   8.341   9.333 -0.0036  0.0397 -0.1241
  613POPI   C1A 9791   7.748   8.094   9.181  0.2206  0.1840  0.0631
  613POPI   D2A 9792   7.738   7.984   8.822  0.0412  0.2168  0.4901
  613POPI   C3A 9793   7.478   7.996   8.475 -0.2342  0.0862  0.1925
  613POPI   C4A 9794   7.552   8.135   8.010 -0.0803 -0.0528  0.1821
  613POPI   C1B 9795   8.050   8.379   8.844 -0.3616 -0.0856 -0.3346
  613POPI   C2B 9796   8.014   8.145   8.429 -0.0504 -0.0383  0.0085
  613POPI   C3B 9797   7.960   7.811   8.127 -0.0725  0.1454  0.2248
  613POPI   C4B 9798   8.031   7.474   7.997 -0.0365  0.0097  0.0983
  614POPI    C1 9799  14.419   6.732  10.643  0.0736 -0.1189 -0.0474
  614POPI    C2 9800  14.416   6.460  10.936  0.1789 -0.0705 -0.0007
  614POPI    C3 9801  14.500   6.842  11.019 -0.0145 -0.0140 -0.0586
  614POPI   PO4 9802  14.580   6.690  10.512  0.2107 -0.2598 -0.1322
  614POPI   GL1 9803  14.731   6.560  10.139 -0.1843 -0.1543  0.0177
  614POPI   GL2 9804  14.481   6.640   9.855  0.0858 -0.3313 -0.1602
  614POPI   C1A 9805  14.854   6.344   9.747  0.2157  0.0402  0.0092
  614POPI   D2A 9806  14.750   6.161   9.363  0.3026 -0.2818  0.2728
  614POPI   C3A 9807  14.744   6.079   8.786  0.0912  0.1073  0.0283
  614POPI   C4A 9808  14.736   6.008   8.246 -0.0235  0.4466  0.0021
  614POPI   C1B 9809  14.363   6.550   9.478 -0.0831  0.0604 -0.0019
  614POPI   C2B 9810  14.403   6.576   9.012 -0.0575 -0.1211 -0.2130
  614POPI   C3B 9811  14.311   6.542   8.653  0.0217  0.3837  0.4551
  614POPI   C4B 9812  14.328   6.549   8.106  0.2396  0.0755 -0.0721
  615POPI    C1 9813  17.403   1.316  10.642 -0.1633  0.0862  0.1757
  615POPI    C2 9814  17.697   1.065  10.742  0.0025  0.2189  0.0287
  615POPI    C3 9815  17.357   1.068  10.952  0.0724  0.0062  0.1486
  615POPI   PO4 9816  17.520   1.582  10.733  0.2127 -0.1568 -0.0635
  615POPI   GL1 9817  17.466   1.837  10.499  0.2153 -0.3030 -0.0988
  615POPI   GL2 9818  17.790   1.744  10.332 -0.0255 -0.0769 -0.1327
  615POPI   C1A 9819  17.414   2.015  10.110 -0.2308  0.0680 -0.0298
  615POPI   D2A 9820  17.540   2.169   9.608 -0.1367  0.0146  0.0313
  615POPI   C3A 9821  17.527   2.121   9.229 -0.1274  0.1817  0.2625
  615POPI   C4A 9822  17.470   2.127   8.738 -0.0798 -0.0322 -0.0038
  615POPI   C1B 9823  17.796   1.730   9.869 -0.1342  0.1618 -0.0953
  615POPI   C2B 9824  17.827   1.709   9.444 -0.2931  0.1762  0.1514
  615POPI   C3B 9825  17.876   1.697   9.001 -0.0669 -0.3193 -0.0409
  615POPI   C4B 9826  17.818   1.764   8.580 -0.0091 -0.1121 -0.0022
  616POPI    C1 9827  11.506  15.013  10.466 -0.2347 -0.1985 -0.2322
  616POPI    C2 9828  11.679  14.652  10.449 -0.1027 -0.1457 -0.0443
  616POPI    C3 9829  11.725  14.881  10.774 -0.4604 -0.0959 -0.0237
  616POPI   PO4 9830  11.322  15.020  10.441 -0.2177  0.2926 -0.0638
  616POPI   GL1 9831  11.238  15.281  10.081  0.1812  0.2182  0.0435
  616POPI   GL2 9832  11.467  15.466   9.998 -0.1458  0.2274  0.1313
  616POPI   C1A 9833  11.285  15.075   9.732 -0.0723  0.3052 -0.2006
  616POPI   D2A 9834  11.551  14.865   9.490 -0.3443 -0.0878 -0.2803
  616POPI   C3A 9835  11.558  14.876   9.042  0.3233 -0.2042  0.0997
  616POPI   C4A 9836  11.237  15.003   8.696  0.1999 -0.1819  0.1095
  616POPI   C1B 9837  11.415  15.529   9.612  0.0675  0.1585  0.2861
  616POPI   C2B 9838  11.361  15.391   9.231 -0.0397 -0.0818 -0.2576
  616POPI   C3B 9839  11.473  15.424   8.792  0.3232  0.0048  0.2084
  616POPI   C4B 9840  11.506  15.696   8.391 -0.0899  0.1725  0.3654
  617POPI    C1 9841   1.093  13.939  10.869  0.0661 -0.0765  0.1718
  617POPI    C2 9842   0.853  13.645  10.742  0.1231 -0.0773  0.0647
  617POPI    C3 9843   0.720  13.910  11.011  0.0170 -0.1041  0.0393
  617POPI   PO4 9844   1.122  14.079  10.624  0.0911 -0.1075  0.0211
  617POPI   GL1 9845   1.233  14.037  10.220 -0.1593 -0.2147  0.1354
  617POPI   GL2 9846   1.243  13.864   9.960  0.4477 -0.1510  0.0990
  617POPI   C1A 9847   1.166  14.329   9.758  0.0063 -0.2649  0.0178
  617POPI   D2A 9848   1.306  14.574   9.409 -0.2857  0.0333 -0.0448
  617POPI   C3A 9849   1.315  14.583   8.932 -0.0783  0.2378  0.0800
  617POPI   C4A 9850   1.263  14.608   8.494  0.4272 -0.0920 -0.3382
  617POPI   C1B 9851   1.301  13.957   9.521  0.0561 -0.0053 -0.2550
  617POPI   C2B 9852   1.349  14.070   9.110 -0.2483  0.2433  0.1118
  617POPI   C3B 9853   1.221  14.071   8.695 -0.1123  0.5063 -0.2127
  617POPI   C4B 9854   0.885  14.133   8.409 -0.0258  0.0757 -0.1352
  618POPI    C1 9855   8.177  17.211  10.682 -0.2314  0.1717  0.0744
  618POPI    C2 9856   8.119  17.573  10.842 -0.2962  0.1218  0.1653
  618POPI    C3 9857   8.463  17.379  10.905 -0.2228  0.2081  0.0364
  618POPI   PO4 9858   8.037  17.073  10.562  0.1271 -0.3321  0.1622
  618POPI   GL1 9859   8.002  17.078  10.162  0.0340  0.1232 -0.2195
  618POPI   GL2 9860   7.786  17.155   9.907  0.2351  0.1770 -0.0716
  618POPI   C1A 9861   8.236  17.141   9.762 -0.0013  0.0677 -0.0414
  618POPI   D2A 9862   8.213  17.403   9.415 -0.1987 -0.1654  0.1880
  618POPI   C3A 9863   8.191  17.556   9.014  0.1656 -0.0738 -0.0251
  618POPI   C4A 9864   8.203  17.538   8.523 -0.1043 -0.1283 -0.0822
  618POPI   C1B 9865   7.765  17.237   9.558 -0.1139  0.2238  0.1359
  618POPI   C2B 9866   7.746  17.310   9.109  0.1049 -0.2287 -0.0530
  618POPI   C3B 9867   7.693  17.381   8.677  0.2264  0.0438  0.2021
  618POPI   C4B 9868   7.702  17.356   8.146 -0.2707 -0.1614  0.1855
  619POPI    C1 9869  16.270   5.775  10.930  0.0601 -0.1874  0.2337
  619POPI    C2 9870  16.651   5.861  11.015  0.0136  0.0065  0.2503
  619POPI    C3 9871  16.356   6.026  11.229 -0.0801 -0.1650  0.2558
  619POPI   PO4 9872  16.264   5.790  10.637 -0.2964 -0.1704  0.3330
  619POPI   GL1 9873  16.380   5.466  10.236 -0.0870 -0.2040 -0.1633
  619POPI   GL2 9874  16.263   5.157  10.089 -0.0769 -0.1080 -0.2642
  619POPI   C1A 9875  16.670   5.392   9.884  0.1566 -0.0984 -0.1038
  619POPI   D2A 9876  16.843   5.155   9.569 -0.2199 -0.0569  0.3904
  619POPI   C3A 9877  16.810   5.285   9.146  0.1037 -0.2986  0.1772
  619POPI   C4A 9878  16.794   5.256   8.753  0.0346 -0.1731 -0.1213
  619POPI   C1B 9879  16.337   5.088   9.630  0.0990  0.1179  0.1068
  619POPI   C2B 9880  16.362   5.042   9.173  0.1919  0.0055  0.1683
  619POPI   C3B 9881  16.246   5.088   8.848  0.0591  0.0346  0.0537
  619POPI   C4B 9882  16.325   5.099   8.510 -0.0051  0.1616  0.0443
  620POPI    C1 9883   4.666   9.211  10.319  0.0325 -0.0862  0.1451
  620POPI    C2 9884   4.997   9.434  10.349 -0.0135  0.0178 -0.1004
  620POPI    C3 9885   4.826   9.284  10.678  0.0533  0.2936  0.0629
  620POPI   PO4 9886   4.523   9.291  10.172 -0.2480 -0.0118  0.0930
  620POPI   GL1 9887   4.396   9.460   9.808  0.0770  0.1614 -0.0376
  620POPI   GL2 9888   4.031   9.304   9.794  0.0871 -0.3494  0.1407
  620POPI   C1A 9889   4.370   9.883   9.652 -0.0828 -0.0570  0.0239
  620POPI   D2A 9890   4.466  10.117   9.218 -0.1479 -0.1254  0.0054
  620POPI   C3A 9891   4.478  10.143   8.722 -0.0380 -0.1658  0.0627
  620POPI   C4A 9892   4.536  10.038   8.260 -0.1152 -0.2377 -0.0259
  620POPI   C1B 9893   4.007   9.652   9.439 -0.2267  0.0630  0.0153
  620POPI   C2B 9894   4.174   9.651   8.924  0.2222 -0.1527 -0.0208
  620POPI   C3B 9895   4.218   9.622   8.565 -0.2783 -0.0245  0.1245
  620POPI   C4B 9896   4.304   9.626   8.143  0.0798  0.2639  0.1275
  621POPI    C1 9897  17.827  12.966  11.082 -0.0652  0.0706 -0.2172
  621POPI    C2 9898  17.565  12.844  10.805  0.0193 -0.2337 -0.1672
  621POPI    C3 9899  17.527  12.721  11.184 -0.0050  0.0562 -0.0728
  621POPI   PO4 9900  18.012  13.029  10.940  0.1922  0.7248  0.0969
  621POPI   GL1 9901  18.142  13.203  10.543 -0.2999  0.0363  0.0335
  621POPI   GL2 9902  18.485  13.439  10.505 -0.3062  0.0535 -0.3810
  621POPI   C1A 9903  18.245  13.315  10.126 -0.1733 -0.3737  0.1629
  621POPI   D2A 9904  18.458  13.189   9.758  0.1031 -0.2379  0.2559
  621POPI   C3A 9905  18.417  13.256   9.356 -0.3076 -0.1073 -0.1669
  621POPI   C4A 9906  18.546  13.337   9.005 -0.2019 -0.0094  0.2449
  621POPI   C1B 9907  18.459  13.758  10.186 -0.0640 -0.0593 -0.1311
  621POPI   C2B 9908  18.524  13.777   9.804  0.1995 -0.2005  0.1904
  621POPI   C3B 9909  18.650  13.779   9.394 -0.0318 -0.1235  0.1045
  621POPI   C4B 9910  18.671  13.809   8.989 -0.2117  0.0989  0.1580
  622POPI    C1 9911  10.443   4.086  10.565 -0.1150  0.3133 -0.2853
  622POPI    C2 9912  10.287   4.430  10.697 -0.0065  0.2714 -0.0406
  622POPI    C3 9913  10.108   4.083  10.782 -0.0936  0.2624 -0.2529
  622POPI   PO4 9914  10.676   4.229  10.463  0.2818  0.1489  0.0863
  622POPI   GL1 9915  10.555   4.230  10.054 -0.2765  0.1563  0.0601
  622POPI   GL2 9916  10.471   3.945  10.043 -0.1650 -0.2133  0.0674
  622POPI   C1A 9917  10.481   4.230   9.637  0.2283  0.2214 -0.2762
  622POPI   D2A 9918  10.287   3.848   9.515  0.1188 -0.0696 -0.1309
  622POPI   C3A 9919  10.368   3.748   9.085 -0.1328  0.0071  0.1720
  622POPI   C4A 9920  10.294   3.327   8.857 -0.0179 -0.0204 -0.1278
  622POPI   C1B 9921  10.768   3.712   9.688  0.3121 -0.0697  0.1371
  622POPI   C2B 9922  10.837   3.565   9.263 -0.0469 -0.2739  0.0800
  622POPI   C3B 9923  10.800   3.539   8.817  0.0498  0.0811  0.0604
  622POPI   C4B 9924  10.791   3.876   8.412 -0.1743  0.0448  0.2223
  623POPI    C1 9925   6.527   0.080  10.612  0.0662  0.0328  0.0714
  623POPI    C2 9926   6.909   0.142  10.507  0.0462  0.0595  0.0137
  623POPI    C3 9927   6.642   0.438  10.475  0.0306  0.0551  0.0997
  623POPI   PO4 9928   6.375  -0.146  10.438  0.0755 -0.0072 -0.2504
  623POPI   GL1 9929   6.208  -0.174  10.051  0.5115  0.1426 -0.2213
  623POPI   GL2 9930   5.953   0.037  10.092  0.0832  0.1076 -0.1644
  623POPI   C1A 9931   6.174  -0.253   9.643  0.0534 -0.2296 -0.1029
  623POPI   D2A 9932   6.052  -0.111   9.268 -0.0821 -0.0697  0.2274
  623POPI   C3A 9933   6.005  -0.178   8.811  0.2436  0.2224  0.2433
  623POPI   C4A 9934   6.087  -0.245   8.415 -0.0153  0.1757  0.0294
  623POPI   C1B 9935   5.690   0.118   9.811  0.0941 -0.0890 -0.1126
  623POPI   C2B 9936   5.616   0.162   9.366 -0.1602 -0.0411  0.2049
  623POPI   C3B 9937   5.697   0.227   8.985  0.1364 -0.0095  0.1346
  623POPI   C4B 9938   5.706   0.124   8.548  0.1583  0.2286 -0.5118
  624POPI    C1 9939  13.526   1.131  11.201  0.1520 -0.0137 -0.1473
  624POPI    C2 9940  13.885   1.243  11.338  0.1633  0.0473 -0.2257
  624POPI    C3 9941  13.584   1.181  11.594  0.1912  0.1353 -0.1713
  624POPI   PO4 9942  13.515   0.957  10.961  0.1309 -0.0026 -0.1096
  624POPI   GL1 9943  13.222   0.812  10.581 -0.0963 -0.1736 -0.3577
  624POPI   GL2 9944  13.225   1.063  10.469  0.3219 -0.1798  0.2192
  624POPI   C1A 9945  13.617   0.790  10.228 -0.0660 -0.2748 -0.0573
  624POPI   D2A 9946  13.800   0.554   9.899  0.0043  0.3361  0.0691
  624POPI   C3A 9947  13.869   0.606   9.591  0.0767 -0.3904  0.1208
  624POPI   C4A 9948  13.800   0.675   9.222  0.1062  0.0258 -0.0241
  624POPI   C1B 9949  13.314   0.995   9.939  0.1080 -0.0285 -0.3238
  624POPI   C2B 9950  13.446   0.977   9.503 -0.0206 -0.0027  0.0464
  624POPI   C3B 9951  13.427   0.961   9.008 -0.0974  0.0311  0.2036
  624POPI   C4B 9952  13.667   0.917   8.658  0.2158  0.2506 -0.0394
  625DPPI    C1 9953  16.067   1.705  11.476  0.1236  0.1358 -0.0299
  625DPPI    C2 9954  15.768   1.490  11.631  0.2178  0.0166 -0.0114
  625DPPI    C3 9955  16.067   1.615  11.866  0.3400 -0.1296 -0.0874
  625DPPI   PO4 9956  15.989   1.605  11.181 -0.2192 -0.3415 -0.2622
  625DPPI   GL1 9957  16.087   1.547  10.705 -0.1494 -0.1992  0.0270
  625DPPI   GL2 9958  16.263   1.814  10.540 -0.0955  0.0974 -0.1134
  625DPPI   C1A 9959  15.882   1.636  10.268 -0.1264 -0.0056  0.1070
  625DPPI   C2A 9960  15.933   1.619   9.849 -0.0209 -0.0437 -0.0439
  625DPPI   C3A 9961  15.860   1.713   9.447 -0.2473  0.0434  0.2043
  625DPPI   C4A 9962  15.978   1.752   9.012  0.0569 -0.2176 -0.1198
  625DPPI   C1B 9963  16.368   1.697  10.144  0.0654  0.3356 -0.1635
  625DPPI   C2B 9964  16.618   1.830   9.718  0.0227  0.3249 -0.1340
  625DPPI   C3B 9965  16.523   1.833   9.274  0.0729 -0.2470 -0.0283
  625DPPI   C4B 9966  16.508   1.840   8.768  0.0692  0.0246  0.0517
  626DPPI    C1 9967  13.405  10.586  10.898 -0.0928 -0.1022 -0.0684
  626DPPI    C2 9968  13.525  10.205  10.915 -0.0901 -0.1001 -0.0367
  626DPPI    C3 9969  13.608  10.454  11.217  0.1170 -0.0129 -0.1632
  626DPPI   PO4 9970  13.171  10.557  10.717  0.0003  0.0753 -0.2720
  626DPPI   GL1 9971  13.215  10.474  10.179  0.0546 -0.2869  0.0318
  626DPPI   GL2 9972  12.969  10.783  10.057  0.2222  0.4020 -0.0549
  626DPPI   C1A 9973  13.169  10.284   9.665 -0.1029  0.0329 -0.0363
  626DPPI   C2A 9974  12.972  10.298   9.188 -0.1147 -0.0233  0.1057
  626DPPI   C3A 9975  12.951  10.442   8.863  0.0086  0.1995  0.0260
  626DPPI   C4A 9976  13.208  10.485   8.518  0.1204  0.1225  0.0601
  626DPPI   C1B 9977  13.113  10.749   9.599  0.0046 -0.1022 -0.0837
  626DPPI   C2B 9978  13.104  10.856   9.148  0.0494 -0.0717 -0.2455
  626DPPI   C3B 9979  13.068  10.950   8.677  0.0597  0.1261  0.1117
  626DPPI   C4B 9980  12.938  10.763   8.223 -0.3448 -0.1436 -0.2206
  627DPPI    C1 9981   9.559   1.972  10.345  0.0705  0.1945  0.0739
  627DPPI    C2 9982   9.219   2.088  10.521 -0.0854 -0.1437  0.0018
  627DPPI    C3 9983   9.227   2.019  10.127  0.1222  0.0688 -0.0329
  627DPPI   PO4 9984   9.674   2.165  10.384 -0.0478  0.3024 -0.6181
  627DPPI   GL1 9985  10.075   2.126  10.229  0.0391  0.1206 -0.0673
  627DPPI   GL2 9986  10.283   2.430  10.026  0.5549 -0.3826 -0.0072
  627DPPI   C1A 9987  10.115   2.055   9.755  0.1817 -0.0202  0.1975
  627DPPI   C2A 9988  10.290   1.989   9.359  0.3319  0.0832 -0.1003
  627DPPI   C3A 9989  10.382   2.025   8.927 -0.2764 -0.1935 -0.1988
  627DPPI   C4A 9990  10.458   2.053   8.581  0.3735  0.2743  0.4465
  627DPPI   C1B 9991  10.567   2.283   9.675 -0.1581  0.1733  0.0918
  627DPPI   C2B 9992  10.563   2.434   9.225 -0.1684 -0.1830  0.2457
  627DPPI   C3B 9993  10.561   2.479   8.799  0.0035 -0.1572 -0.0097
  627DPPI   C4B 9994  10.447   2.577   8.382  0.0736 -0.3515  0.0164
  628DPPI    C1 9995   8.435  17.776  10.537  0.1929 -0.2552  0.0160
  628DPPI    C2 9996   8.764  17.980  10.640  0.0026 -0.0088  0.1473
  628DPPI    C3 9997   8.773  17.581  10.622  0.3412  0.0015  0.0276
  628DPPI   PO4 9998   8.338  17.831  10.375 -0.0226  0.0637  0.0768
  628DPPI   GL1 9999   8.307  17.666   9.923  0.1101 -0.0733 -0.0352
  628DPPI   GL210000   7.930  17.671   9.755  0.1522 -0.1611 -0.0808
  628DPPI   C1A10001   8.401  17.876   9.512  0.1431 -0.0076 -0.2566
  628DPPI   C2A10002   8.388  17.990   9.169 -0.3007  0.2419 -0.1592
  628DPPI   C3A10003   8.384  17.996   8.679 -0.0930 -0.1397 -0.1722
  628DPPI   C4A10004   8.499  17.945   8.285 -0.3265 -0.0320  0.0929
  628DPPI   C1B10005   7.833  17.843   9.239  0.1467 -0.0917 -0.0345
  628DPPI   C2B10006   7.765  17.802   8.891 -0.0800 -0.2177  0.3250
  628DPPI   C3B10007   7.803  17.804   8.423  0.0513 -0.0055 -0.3086
  628DPPI   C4B10008   8.090  17.738   8.078 -0.1195  0.0713 -0.0653
  629DPPI    C110009   7.062  11.797  10.088 -0.4272  0.0467  0.0160
  629DPPI    C210010   7.270  11.501  10.258  0.0380  0.1567 -0.3413
  629DPPI    C310011   7.126  11.799  10.483 -0.0708 -0.1189 -0.0373
  629DPPI   PO410012   7.238  11.908   9.903  0.2791 -0.2595  0.1008
  629DPPI   GL110013   7.089  12.071   9.490  0.0871 -0.2585  0.2042
  629DPPI   GL210014   7.077  12.411   9.330  0.1656  0.3217 -0.1688
  629DPPI   C1A10015   6.836  12.080   9.061 -0.3704  0.0434 -0.0295
  629DPPI   C2A10016   6.789  12.018   8.660 -0.0282 -0.1348  0.0411
  629DPPI   C3A10017   6.810  11.902   8.234 -0.2866 -0.0589 -0.0468
  629DPPI   C4A10018   6.661  12.058   7.879  0.1068  0.2870  0.0146
  629DPPI   C1B10019   7.104  12.465   8.842 -0.0349  0.1742  0.0118
  629DPPI   C2B10020   7.326  12.622   8.475 -0.1130  0.2705  0.0672
  629DPPI   C3B10021   7.695  12.763   8.373  0.1619  0.3664 -0.1123
  629DPPI   C4B10022   7.975  12.640   8.657  0.0045 -0.1309 -0.3080
  630DPPI    C110023   2.763  13.224  10.783  0.1794  0.0918  0.0301
  630DPPI    C210024   3.029  12.939  10.871  0.0656  0.0219  0.1508
  630DPPI    C310025   2.934  13.215  11.144  0.1256  0.1364  0.0567
  630DPPI   PO410026   2.906  13.412  10.628  0.1567  0.3422 -0.3052
  630DPPI   GL110027   2.917  13.522  10.204  0.3882  0.0834  0.2898
  630DPPI   GL210028   2.944  13.731   9.878  0.1938 -0.2756  0.0253
  630DPPI   C1A10029   2.882  13.102   9.892  0.0355 -0.0255  0.1748
  630DPPI   C2A10030   2.839  13.001   9.468 -0.2307  0.3032  0.1119
  630DPPI   C3A10031   2.864  13.148   8.945  0.1885 -0.1280 -0.1847
  630DPPI   C4A10032   2.819  13.191   8.414 -0.1650  0.2136 -0.0116
  630DPPI   C1B10033   2.983  13.618   9.485 -0.1110  0.0031 -0.1771
  630DPPI   C2B10034   3.084  13.647   9.071  0.3778 -0.3252  0.3043
  630DPPI   C3B10035   2.969  13.663   8.641 -0.3311  0.0236  0.1454
  630DPPI   C4B10036   2.996  13.646   8.135  0.0245 -0.3719  0.0769
  631DPPI    C110037  13.378   9.023  10.409 -0.2934  0.0930 -0.0704
  631DPPI    C210038  12.981   9.043  10.452 -0.2840  0.1279  0.0024
  631DPPI    C310039  13.213   8.984  10.772 -0.2296  0.1207 -0.0384
  631DPPI   PO410040  13.482   9.176  10.133 -0.0151 -0.2301 -0.1609
  631DPPI   GL110041  13.356   9.104   9.812 -0.2581 -0.3366  0.2187
  631DPPI   GL210042  13.683   8.969   9.743  0.0379  0.1516  0.1727
  631DPPI   C1A10043  13.164   8.900   9.480  0.0753  0.1080 -0.0193
  631DPPI   C2A10044  13.193   8.972   9.025  0.0412  0.1590 -0.3397
  631DPPI   C3A10045  13.028   8.974   8.613 -0.0808  0.1455 -0.0313
  631DPPI   C4A10046  13.317   9.056   8.228 -0.3806 -0.3419  0.1799
  631DPPI   C1B10047  13.617   9.069   9.339 -0.0881  0.3197 -0.2019
  631DPPI   C2B10048  13.636   9.267   8.952 -0.0079  0.0130  0.0904
  631DPPI   C3B10049  13.703   9.245   8.524 -0.0042  0.0510  0.0845
  631DPPI   C4B10050  13.746   9.154   8.089 -0.2936  0.2806 -0.0141
  632DPPI    C110051  16.286  14.978  10.868 -0.1301  0.3812 -0.2683
  632DPPI    C210052  16.266  14.686  11.140 -0.0696  0.2265 -0.4276
  632DPPI    C310053  16.412  15.044  11.242  0.1808  0.0957 -0.3173
  632DPPI   PO410054  16.262  14.877  10.581  0.0251  0.0056  0.1056
  632DPPI   GL110055  16.425  14.851  10.209 -0.0019  0.0564  0.2559
  632DPPI   GL210056  16.384  14.661  10.012 -0.1283  0.2280 -0.2952
  632DPPI   C1A10057  16.497  15.038   9.766  0.1742  0.1376  0.0725
  632DPPI   C2A10058  16.502  15.099   9.262 -0.0090  0.0190  0.4787
  632DPPI   C3A10059  16.527  15.086   8.843 -0.0786  0.1963  0.1323
  632DPPI   C4A10060  16.551  14.988   8.370  0.4293 -0.0041  0.0036
  632DPPI   C1B10061  16.444  14.515   9.602 -0.3216 -0.0694 -0.3077
  632DPPI   C2B10062  16.384  14.581   9.053 -0.1018 -0.1317  0.0597
  632DPPI   C3B10063  16.424  14.549   8.638 -0.0883 -0.1296  0.0487
  632DPPI   C4B10064  16.414  14.596   8.133 -0.0213  0.0562  0.0258
  633DPPI    C110065   5.549   5.504  10.933  0.0984  0.1232  0.1343
  633DPPI    C210066   5.379   5.755  11.195 -0.0683  0.0451  0.1023
  633DPPI    C310067   5.296   5.364  11.209 -0.0353  0.0326 -0.0324
  633DPPI   PO410068   5.496   5.564  10.606  0.3337  0.0203  0.1362
  633DPPI   GL110069   5.415   5.671  10.170 -0.0636  0.2660  0.2250
  633DPPI   GL210070   5.540   5.394  10.113 -0.0885  0.2876  0.0607
  633DPPI   C1A10071   5.250   5.922   9.808 -0.0473 -0.1829  0.4668
  633DPPI   C2A10072   5.036   5.803   9.412 -0.0543 -0.1442 -0.1298
  633DPPI   C3A10073   5.029   5.699   9.019 -0.2458  0.5056  0.3310
  633DPPI   C4A10074   4.997   5.630   8.551 -0.0828 -0.1446  0.0244
  633DPPI   C1B10075   5.411   5.505   9.666  0.1795  0.0909  0.1715
  633DPPI   C2B10076   5.441   5.429   9.276 -0.1950 -0.0012  0.0611
  633DPPI   C3B10077   5.381   5.298   8.829 -0.2026 -0.2318 -0.3337
  633DPPI   C4B10078   5.348   5.065   8.415  0.1272 -0.1428 -0.2209
  634DPPI    C110079  18.167  17.484  10.974  0.2567  0.0605 -0.2198
  634DPPI    C210080  17.972  17.406  11.314  0.1860  0.2628 -0.2130
  634DPPI    C310081  18.271  17.169  11.197  0.0623  0.0613 -0.1260
  634DPPI   PO410082  18.110  17.513  10.749  0.4145 -0.2684 -0.0187
  634DPPI   GL110083  18.135  17.678  10.359  0.0401 -0.1091 -0.0047
  634DPPI   GL210084  18.119  17.390  10.165 -0.4073  0.2132 -0.0388
  634DPPI   C1A10085  18.322  17.837   9.938  0.1583 -0.0102 -0.1106
  634DPPI   C2A10086  18.290  17.879   9.497  0.1298 -0.1307  0.1225
  634DPPI   C3A10087  18.161  17.941   9.105 -0.0745  0.0041  0.0280
  634DPPI   C4A10088  18.200  18.043   8.722  0.1734  0.0463  0.0813
  634DPPI   C1B10089  18.156  17.352   9.693  0.0287 -0.0553  0.1414
  634DPPI   C2B10090  18.053  17.445   9.311 -0.0154 -0.0497  0.0377
  634DPPI   C3B10091  18.118  17.540   8.839  0.0404  0.0938  0.0840
  634DPPI   C4B10092  18.146  17.588   8.368  0.2127  0.0983  0.0010
  635PYPI    C110093   6.171  14.822  10.643  0.0592  0.0607  0.0294
  635PYPI    C210094   5.864  14.717  10.410  0.1901 -0.0327 -0.1030
  635PYPI    C310095   5.808  14.771  10.802 -0.0032 -0.0086 -0.1329
  635PYPI   PO410096   6.254  15.062  10.545  0.1911 -0.3064 -0.0929
  635PYPI   GL110097   6.127  15.121  10.072  0.0131  0.2331  0.1403
  635PYPI   GL210098   5.850  15.289   9.958 -0.2193  0.0754  0.1393
  635PYPI   C1A10099   6.290  15.033   9.699 -0.1626  0.0273  0.0191
  635PYPI   C2A10100   6.264  15.032   9.267  0.2457  0.0503  0.2159
  635PYPI   D3A10101   6.191  15.029   8.833  0.1521  0.1905 -0.1243
  635PYPI   C4A10102   6.106  15.142   8.407 -0.2064 -0.2130  0.1928
  635PYPI   C1B10103   5.901  15.266   9.488  0.0427 -0.0913 -0.4037
  635PYPI   C2B10104   5.710  15.330   9.156 -0.0489  0.1794  0.1213
  635PYPI   C3B10105   5.671  15.365   8.764  0.3804 -0.3776  0.1353
  635PYPI   C4B10106   5.702  15.409   8.290  0.0228 -0.0620 -0.0857
  636PYPI    C110107   2.529   9.876  10.895  0.1425  0.2320  0.2173
  636PYPI    C210108   2.712   9.961  10.550 -0.2755 -0.0581 -0.0861
  636PYPI    C310109   2.928   9.886  10.878  0.1305  0.1058 -0.3087
  636PYPI   PO410110   2.242   9.843  10.744  0.1084  0.1856 -0.1870
  636PYPI   GL110111   2.216  10.077  10.361  0.2748 -0.2473 -0.1294
  636PYPI   GL210112   2.276  10.424  10.243  0.0503  0.1456 -0.1871
  636PYPI   C1A10113   2.299   9.792  10.075 -0.3965 -0.2370 -0.3452
  636PYPI   C2A10114   2.355   9.693   9.634 -0.2505 -0.0685  0.1715
  636PYPI   D3A10115   2.292   9.565   9.214 -0.0256  0.1155  0.0196
  636PYPI   C4A10116   2.479   9.225   8.967  0.0404 -0.0634 -0.1227
  636PYPI   C1B10117   2.165  10.508   9.754 -0.5651  0.1537  0.0165
  636PYPI   C2B10118   2.198  10.509   9.276 -0.1920  0.1451  0.1642
  636PYPI   C3B10119   2.338  10.333   8.783 -0.2165  0.0674  0.3618
  636PYPI   C4B10120   2.194  10.531   8.406  0.3678  0.0345  0.1581
  637PYPI    C110121  10.307  17.186  10.535  0.0011  0.1343 -0.1148
  637PYPI    C210122  10.235  17.021  10.892 -0.2190  0.1539 -0.1489
  637PYPI    C310123  10.573  17.225  10.831  0.0027 -0.1813 -0.0707
  637PYPI   PO410124  10.140  17.284  10.414 -0.0465  0.2407  0.1270
  637PYPI   GL110125  10.130  17.329   9.995 -0.2140  0.1465  0.2933
  637PYPI   GL210126  10.443  17.531  10.025 -0.0112  0.1116  0.0513
  637PYPI   C1A10127  10.074  17.457   9.537  0.0976 -0.0842 -0.0448
  637PYPI   C2A10128  10.109  17.454   9.124 -0.2800 -0.0857  0.1979
  637PYPI   D3A10129  10.179  17.607   8.739  0.0124  0.0522  0.1372
  637PYPI   C4A10130  10.434  17.664   8.380  0.1325  0.0678 -0.0310
  637PYPI   C1B10131  10.578  17.649   9.620  0.0428 -0.0774  0.2842
  637PYPI   C2B10132  10.652  17.645   9.224  0.0193  0.0271 -0.0004
  637PYPI   C3B10133  10.795  17.566   8.801  0.2464  0.1769  0.0315
  637PYPI   C4B10134  11.083  17.581   8.538  0.0591 -0.2545 -0.1881
  638PYPI    C110135  16.694   0.929  11.013 -0.1065  0.2946  0.0163
  638PYPI    C210136  16.975   0.801  11.268 -0.1628  0.1937  0.0283
  638PYPI    C310137  16.636   0.962  11.408 -0.3421 -0.1727  0.0273
  638PYPI   PO410138  16.843   1.132  10.842 -0.0052 -0.1104  0.2271
  638PYPI   GL110139  17.121   0.907  10.514  0.0164  0.2628  0.0179
  638PYPI   GL210140  17.380   0.985  10.257  0.0779  0.2252  0.0959
  638PYPI   C1A10141  16.814   0.871  10.117  0.1587  0.2532  0.0809
  638PYPI   C2A10142  16.757   0.959   9.691  0.1882 -0.3626  0.1409
  638PYPI   D3A10143  16.827   0.942   9.289  0.2528  0.1670  0.0111
  638PYPI   C4A10144  16.653   1.097   8.932 -0.0137 -0.3245 -0.0801
  638PYPI   C1B10145  17.228   1.057   9.851 -0.0758  0.1026 -0.1627
  638PYPI   C2B10146  17.248   1.109   9.359 -0.2540 -0.4466 -0.1738
  638PYPI   C3B10147  17.226   1.185   8.919 -0.2672 -0.1544 -0.3363
  638PYPI   C4B10148  17.138   1.162   8.485  0.1673  0.0029 -0.1423
  639PYPI    C110149   2.827  17.766  11.127 -0.3747  0.0788  0.0714
  639PYPI    C210150   3.058  18.059  11.271 -0.4309  0.1694 -0.0212
  639PYPI    C310151   3.197  17.684  11.257 -0.3386  0.2003  0.0467
  639PYPI   PO410152   2.774  17.880  10.931  0.1095 -0.1769 -0.2589
  639PYPI   GL110153   2.837  17.805  10.446  0.0147  0.0471 -0.1402
  639PYPI   GL210154   2.620  17.628  10.315 -0.1512  0.0433  0.3708
  639PYPI   C1A10155   3.070  17.885  10.128  0.0056 -0.2776  0.1647
  639PYPI   C2A10156   3.056  17.939   9.776  0.1266 -0.0346  0.0637
  639PYPI   D3A10157   3.225  17.986   9.389  0.0610  0.1032  0.0416
  639PYPI   C4A10158   3.154  17.929   9.034  0.1082 -0.0226 -0.1462
  639PYPI   C1B10159   2.621  17.792   9.925 -0.0530 -0.2016  0.2535
  639PYPI   C2B10160   2.662  17.825   9.445  0.1145 -0.1999  0.0718
  639PYPI   C3B10161   2.519  17.810   9.044  0.1487 -0.1394  0.3001
  639PYPI   C4B10162   2.603  17.769   8.622 -0.4536  0.4470 -0.1208
  640PYPI    C110163  15.630  10.131  10.438  0.1031  0.0320 -0.2554
  640PYPI    C210164  15.763   9.766  10.344  0.0301 -0.0835  0.0767
  640PYPI    C310165  15.961   9.987  10.612 -0.1629 -0.0533  0.1965
  640PYPI   PO410166  15.619  10.247  10.236  0.1220 -0.3367 -0.1260
  640PYPI   GL110167  15.434  10.303   9.850 -0.3538  0.1990  0.1734
  640PYPI   GL210168  15.347   9.948   9.758 -0.0013 -0.4537 -0.2106
  640PYPI   C1A10169  15.493  10.448   9.446  0.1756 -0.0079  0.0514
  640PYPI   C2A10170  15.435  10.562   9.068 -0.1104 -0.0772  0.2263
  640PYPI   D3A10171  15.488  10.550   8.539  0.0913  0.1268  0.1823
  640PYPI   C4A10172  15.542  10.686   8.115  0.2570  0.1699 -0.1484
  640PYPI   C1B10173  15.352   9.945   9.397 -0.0926  0.1117 -0.1838
  640PYPI   C2B10174  15.551  10.016   9.023  0.0395 -0.2371  0.0806
  640PYPI   C3B10175  15.331  10.035   8.563 -0.1561 -0.0512 -0.0238
  640PYPI   C4B10176  15.389  10.189   8.225 -0.1996 -0.0401 -0.0566
  641ERGO   ROH10177   9.354   0.864  10.037 -0.2493  0.3277 -0.1429
  641ERGO    R110178   9.556   0.874   9.839 -0.1698  0.3398 -0.0574
  641ERGO    R210179   9.577   0.686   9.637 -0.0569  0.3299 -0.0184
  641ERGO    R310180   9.571   0.906   9.477 -0.0133  0.3057 -0.0590
  641ERGO    R410181   9.612   0.681   9.293  0.0926  0.2480 -0.0053
  641ERGO    R510182   9.734   0.861   9.308  0.0765  0.2770  0.0175
  641ERGO    C110183   9.626   0.885   8.943  0.2204  0.1776 -0.0358
  641ERGO    C210184   9.616   0.902   8.643  0.2926 -0.1439 -0.2476
  642ERGO   ROH10185  13.492   1.892  10.442  0.1610 -0.0042 -0.1961
  642ERGO    R110186  13.497   2.014  10.187  0.2698  0.0794 -0.1525
  642ERGO    R210187  13.731   2.057  10.047  0.2979 -0.1485 -0.1615
  642ERGO    R310188  13.601   1.921   9.851  0.1142  0.0759 -0.2039
  642ERGO    R410189  13.793   2.090   9.708  0.5378 -0.3019 -0.1369
  642ERGO    R510190  13.578   2.079   9.673  0.5138  0.1171 -0.2381
  642ERGO    C110191  13.707   1.981   9.327  0.5051 -0.1805 -0.1625
  642ERGO    C210192  13.764   1.878   8.982  0.3192  0.3352  0.0400
  643ERGO   ROH10193  18.029  10.620  10.131  0.0338 -0.4955 -0.0367
  643ERGO    R110194  18.029  10.648   9.850  0.1419 -0.3740 -0.0243
  643ERGO    R210195  18.091  10.886   9.725 -0.1321 -0.2311  0.1161
  643ERGO    R310196  18.272  10.733   9.593  0.1607  0.0865  0.1331
  643ERGO    R410197  18.129  10.877   9.381 -0.2850 -0.3541  0.1007
  643ERGO    R510198  18.157  10.661   9.395  0.2110 -0.3007  0.2299
  643ERGO    C110199  18.321  10.727   9.057 -0.0991 -0.1276  0.1078
  643ERGO    C210200  18.491  10.596   8.749  0.0658  0.2477 -0.0342
  644ERGO   ROH10201   9.926  13.090   9.428  0.0648 -0.0245 -0.0520
  644ERGO    R110202  10.027  13.194   9.184  0.1821 -0.1185 -0.0438
  644ERGO    R210203  10.157  13.036   8.998 -0.0329 -0.2619 -0.0745
  644ERGO    R310204   9.969  13.137   8.829  0.0834  0.0052 -0.0484
  644ERGO    R410205  10.082  12.907   8.686 -0.2619 -0.1617 -0.0634
  644ERGO    R510206  10.066  13.111   8.611  0.0179 -0.1347 -0.0624
  644ERGO    C110207   9.863  12.927   8.346 -0.2860  0.1475 -0.0324
  644ERGO    C210208   9.636  12.850   8.039  0.1493 -0.2384 -0.2359
  645ERGO   ROH10209  15.200  13.165   9.955  0.0916 -0.1692 -0.0697
  645ERGO    R110210  15.093  13.149   9.693 -0.0540  0.0874 -0.0306
  645ERGO    R210211  15.077  13.367   9.525  0.2398  0.1738  0.0404
  645ERGO    R310212  15.214  13.205   9.355 -0.1003 -0.0133 -0.0625
  645ERGO    R410213  15.121  13.427   9.187  0.3334  0.2655  0.0685
  645ERGO    R510214  15.089  13.215   9.150 -0.0996  0.3476 -0.0468
  645ERGO    C110215  15.274  13.310   8.831  0.0687  0.1432 -0.0118
  645ERGO    C210216  15.198  13.297   8.515 -0.0260 -0.4270 -0.0138
  646ERGO   ROH10217   8.458  14.381   9.819 -0.2155 -0.1541 -0.1462
  646ERGO    R110218   8.585  14.466   9.581 -0.1303 -0.0460 -0.0623
  646ERGO    R210219   8.604  14.306   9.356  0.0547  0.0128 -0.0869
  646ERGO    R310220   8.488  14.519   9.234  0.0257 -0.0110 -0.1021
  646ERGO    R410221   8.588  14.353   9.014  0.0952  0.0050 -0.0903
  646ERGO    R510222   8.630  14.564   9.046  0.0463  0.0173 -0.0831
  646ERGO    C110223   8.469  14.581   8.700  0.0915 -0.0218 -0.1065
  646ERGO    C210224   8.427  14.664   8.331  0.0588  0.1402 -0.2161
  647ERGO   ROH10225   8.983  10.621   9.652 -0.1425 -0.0196 -0.0032
  647ERGO    R110226   8.974  10.745   9.398 -0.0526 -0.0781 -0.0345
  647ERGO    R210227   9.180  10.727   9.216 -0.0134 -0.1659  0.0244
  647ERGO    R310228   8.984  10.637   9.051  0.0101 -0.1606 -0.0084
  647ERGO    R410229   9.204  10.710   8.871 -0.0693  0.1382  0.0018
  647ERGO    R510230   8.998  10.779   8.859 -0.1228  0.0139  0.1045
  647ERGO    C110231   9.034  10.615   8.516 -0.0797  0.3202 -0.0421
  647ERGO    C210232   9.039  10.384   8.167  0.1099 -0.6646 -0.2114
  648ERGO   ROH10233   0.985  16.738  10.229  0.0772  0.0958  0.1289
  648ERGO    R110234   0.807  16.755  10.009  0.1968 -0.0205  0.0203
  648ERGO    R210235   0.661  16.983   9.954 -0.0836 -0.1832  0.0614
  648ERGO    R310236   0.777  16.959   9.709  0.1198  0.1192  0.1225
  648ERGO    R410237   0.555  17.148   9.669 -0.4316 -0.5221 -0.0134
  648ERGO    R510238   0.592  16.965   9.556  0.1654 -0.4434  0.0268
  648ERGO    C110239   0.602  17.221   9.273 -0.4433 -0.4356  0.0006
  648ERGO    C210240   0.611  17.172   8.980 -0.0799 -0.0597 -0.0793
  649ERGO   ROH10241   2.290   2.981  10.364 -0.0170 -0.1315 -0.0488
  649ERGO    R110242   2.127   2.922  10.140 -0.0405  0.0840 -0.0909
  649ERGO    R210243   2.069   3.110   9.944  0.0922  0.2220 -0.0058
  649ERGO    R310244   2.167   2.918   9.778 -0.0156  0.2392 -0.0893
  649ERGO    R410245   2.008   3.093   9.605 -0.0495  0.2972  0.0151
  649ERGO    R510246   1.989   2.877   9.623 -0.0825  0.3026 -0.0237
  649ERGO    C110247   2.064   2.903   9.251 -0.2332  0.3572 -0.0509
  649ERGO    C210248   2.059   3.071   8.927  0.0903  0.2900  0.0051
  650ERGO   ROH10249   2.158  15.628  10.060  0.2262 -0.0875  0.0849
  650ERGO    R110250   2.058  15.668   9.798  0.0475 -0.2461  0.1260
  650ERGO    R210251   2.153  15.867   9.631 -0.3101 -0.1139  0.0653
  650ERGO    R310252   2.191  15.659   9.460 -0.0886 -0.0757  0.0674
  650ERGO    R410253   2.119  15.884   9.287 -0.1689 -0.1203  0.0514
  650ERGO    R510254   2.024  15.688   9.292 -0.0323 -0.1851 -0.0047
  650ERGO    C110255   2.136  15.699   8.927  0.1213 -0.0882  0.0452
  650ERGO    C210256   2.123  15.799   8.719 -0.0063  0.1775 -0.0114
  651ERGO   ROH10257   4.681   3.662  10.169  0.1654  0.1249  0.0497
  651ERGO    R110258   4.629   3.773   9.914  0.2137  0.1301  0.0413
  651ERGO    R210259   4.822   3.793   9.718  0.2098 -0.0229  0.0170
  651ERGO    R310260   4.639   3.659   9.568  0.1029  0.0796  0.0552
  651ERGO    R410261   4.813   3.790   9.372  0.2251 -0.1443  0.0175
  651ERGO    R510262   4.595   3.804   9.383  0.2378  0.0467 -0.0005
  651ERGO    C110263   4.635   3.662   9.031  0.1337 -0.1187  0.0537
  651ERGO    C210264   4.495   3.702   8.715 -0.1302 -0.0045  0.0312
  652ERGO   ROH10265  14.469   8.093  10.230 -0.1407  0.1648 -0.0252
  652ERGO    R110266  14.447   8.046   9.952 -0.1955  0.1442 -0.0157
  652ERGO    R210267  14.232   8.134   9.803 -0.0345  0.4738 -0.0443
  652ERGO    R310268  14.425   8.249   9.651  0.1697  0.1207 -0.0657
  652ERGO    R410269  14.220   8.167   9.459 -0.0807  0.5814 -0.0343
  652ERGO    R510270  14.431   8.116   9.452 -0.1670  0.1424 -0.1057
  652ERGO    C110271  14.395   8.294   9.116  0.0841  0.3126 -0.0486
  652ERGO    C210272  14.373   8.444   8.735 -0.0655 -0.0186 -0.1142
  653ERGO   ROH10273  12.426   5.046  10.213  0.1364 -0.0158 -0.0708
  653ERGO    R110274  12.477   4.944   9.954 -0.0054 -0.0242 -0.0952
  653ERGO    R210275  12.289   4.947   9.753 -0.0111  0.2615 -0.0809
  653ERGO    R310276  12.484   5.075   9.614  0.1465  0.0426 -0.0692
  653ERGO    R410277  12.341   4.918   9.412 -0.1274  0.3098 -0.1044
  653ERGO    R510278  12.555   4.915   9.450 -0.1123 -0.0070 -0.1452
  653ERGO    C110279  12.555   5.022   9.084 -0.0472  0.1325 -0.1071
  653ERGO    C210280  12.619   5.073   8.753 -0.0411  0.3772 -0.1284
  654ERGO   ROH10281  12.128  16.792   9.939 -0.0703 -0.0346 -0.1984
  654ERGO    R110282  12.226  16.850   9.680  0.1426 -0.2016 -0.1587
  654ERGO    R210283  12.342  16.659   9.518 -0.1510 -0.4173 -0.1242
  654ERGO    R310284  12.155  16.743   9.340  0.0677 -0.0515 -0.1912
  654ERGO    R410285  12.325  16.559   9.188 -0.1700 -0.3082 -0.1559
  654ERGO    R510286  12.274  16.764   9.134  0.2017 -0.2024 -0.1314
  654ERGO    C110287  12.138  16.580   8.828  0.0243  0.0988 -0.2373
  654ERGO    C210288  12.089  16.399   8.539 -0.1874  0.1272 -0.1759
  655ERGO   ROH10289  16.135  10.146  10.172  0.1527 -0.0100  0.2516
  655ERGO    R110290  16.100  10.002   9.931  0.0135  0.0206  0.2543
  655ERGO    R210291  15.917  10.079   9.738  0.1118  0.2139  0.2437
  655ERGO    R310292  16.135  10.070   9.575  0.1138 -0.0309  0.2527
  655ERGO    R410293  15.906  10.055   9.393  0.0820  0.5024  0.2216
  655ERGO    R510294  16.074   9.917   9.402 -0.1462  0.2002  0.1269
  655ERGO    C110295  16.104  10.034   9.040  0.0665  0.4406  0.2173
  655ERGO    C210296  15.925  10.106   8.656  0.0910  0.2175 -0.3130
  656ERGO   ROH10297  14.769  11.345   9.693  0.0081  0.2159  0.0111
  656ERGO    R110298  14.766  11.222   9.438 -0.1283  0.1044  0.0651
  656ERGO    R210299  14.554  11.247   9.264 -0.1102  0.2497  0.0612
  656ERGO    R310300  14.747  11.332   9.092 -0.0241 -0.0269  0.0170
  656ERGO    R410301  14.528  11.241   8.919 -0.1062  0.0840  0.0632
  656ERGO    R510302  14.736  11.177   8.910 -0.1654 -0.1187  0.1021
  656ERGO    C110303  14.694  11.317   8.557 -0.0229 -0.2722  0.0229
  656ERGO    C210304  14.721  11.299   8.324  0.0644  0.1282 -0.0574
  657ERGO   ROH10305   3.294   8.118  10.108 -0.0722  0.1823  0.0749
  657ERGO    R110306   3.184   8.132   9.847  0.0182  0.3198  0.0422
  657ERGO    R210307   3.296   8.285   9.647  0.3575  0.0720  0.0265
  657ERGO    R310308   3.293   8.051   9.510 -0.0356  0.0333  0.0933
  657ERGO    R410309   3.306   8.258   9.302  0.6376 -0.0539  0.0429
  657ERGO    R510310   3.159   8.097   9.316  0.2574  0.2779 -0.0523
  657ERGO    C110311   3.309   8.021   8.973  0.4315 -0.1635  0.1150
  657ERGO    C210312   3.279   7.979   8.611  0.2173 -0.1444 -0.0214
  658ERGO   ROH10313  11.726  10.614   9.667 -0.1002 -0.0333 -0.1141
  658ERGO    R110314  11.841  10.700   9.423 -0.0366 -0.0095 -0.0750
  658ERGO    R210315  12.037  10.557   9.292 -0.0605 -0.0351 -0.0758
  658ERGO    R310316  11.865  10.575   9.083 -0.0197  0.0661 -0.1028
  658ERGO    R410317  12.132  10.580   8.960  0.0087  0.0708 -0.0501
  658ERGO    R510318  11.972  10.725   8.930  0.0340  0.1075 -0.0281
  658ERGO    C110319  12.025  10.610   8.570  0.0873  0.2273 -0.0604
  658ERGO    C210320  11.891  10.392   8.224 -0.0035  0.0881 -0.3297
  659ERGO   ROH10321   5.764   5.779   9.833 -0.3901  0.2339 -0.0918
  659ERGO    R110322   5.950   5.705   9.634 -0.1822  0.1777  0.1174
  659ERGO    R210323   5.893   5.519   9.438  0.0304  0.0965  0.1258
  659ERGO    R310324   5.968   5.719   9.270  0.1739  0.0435  0.1265
  659ERGO    R410325   5.939   5.482   9.098  0.1451  0.0356  0.1480
  659ERGO    R510326   6.114   5.612   9.113  0.1897 -0.0337  0.1958
  659ERGO    C110327   6.036   5.649   8.741  0.3466 -0.0496  0.1615
  659ERGO    C210328   5.908   5.384   8.563  0.2788 -0.0216  0.1016
  660ERGO   ROH10329   7.530   5.647   8.942 -0.0040  0.0349 -0.2445
  660ERGO    R110330   7.359   5.669   8.717  0.0774  0.2259 -0.2919
  660ERGO    R210331   7.450   5.748   8.468  0.2730 -0.0448 -0.3196
  660ERGO    R310332   7.335   5.515   8.388 -0.1118  0.1079 -0.2221
  660ERGO    R410333   7.363   5.672   8.142  0.3035 -0.1104 -0.3108
  660ERGO    R510334   7.180   5.581   8.217  0.0965  0.2734 -0.3447
  660ERGO    C110335   7.204   5.409   7.878 -0.0400 -0.0053 -0.2140
  660ERGO    C210336   7.071   5.528   7.622  0.1318  0.0269 -0.1417
  661ERGO   ROH10337   0.535  13.711  10.277  0.1298 -0.0998 -0.0353
  661ERGO    R110338   0.526  13.890  10.058 -0.1779 -0.1576 -0.0731
  661ERGO    R210339   0.754  13.974   9.924 -0.3253  0.1646 -0.1166
  661ERGO    R310340   0.619  13.883   9.706 -0.2138 -0.0857 -0.0869
  661ERGO    R410341   0.829  14.056   9.597 -0.4846  0.2496 -0.1338
  661ERGO    R510342   0.615  14.070   9.557 -0.5272 -0.0968 -0.1103
  661ERGO    C110343   0.746  14.019   9.202 -0.4726  0.0642 -0.1158
  661ERGO    C210344   0.751  13.918   8.855  0.1495 -0.0533  0.0577
  662ERGO   ROH10345  10.910  13.756   9.601 -0.1164  0.1343 -0.0190
  662ERGO    R110346  10.793  13.988   9.488  0.0891  0.1882 -0.1247
  662ERGO    R210347  10.893  14.108   9.260  0.0066 -0.1960 -0.3701
  662ERGO    R310348  10.637  14.077   9.172 -0.1480  0.0790 -0.0428
  662ERGO    R410349  10.721  14.338   9.068  0.1045 -0.1123 -0.3577
  662ERGO    R510350  10.543  14.297   9.186  0.1753  0.2315 -0.1067
  662ERGO    C110351  10.382  14.444   8.872  0.0161  0.1946 -0.0432
  662ERGO    C210352  10.105  14.717   8.714 -0.2417  0.0237 -0.1251
  663ERGO   ROH10353   8.479  11.583   9.522  0.2715 -0.0544  0.0569
  663ERGO    R110354   8.423  11.659   9.256 -0.0130 -0.0430  0.1169
  663ERGO    R210355   8.577  11.576   9.042 -0.1043  0.1487 -0.0260
  663ERGO    R310356   8.337  11.491   8.945 -0.1056 -0.0505  0.1461
  663ERGO    R410357   8.492  11.564   8.707 -0.3430  0.1031  0.0341
  663ERGO    R510358   8.293  11.636   8.759 -0.3688 -0.0722  0.1880
  663ERGO    C110359   8.218  11.476   8.421 -0.4831 -0.1103  0.2307
  663ERGO    C210360   8.176  11.433   8.026  0.1167  0.1350  0.0102
  664ERGO   ROH10361   1.966  12.830  10.239 -0.0588 -0.2152  0.0206
  664ERGO    R110362   2.156  12.885  10.036  0.0090 -0.1689  0.0957
  664ERGO    R210363   2.210  12.708   9.831  0.0080 -0.0829  0.0180
  664ERGO    R310364   2.153  12.923   9.674  0.1097  0.0148  0.1136
  664ERGO    R410365   2.313  12.747   9.503 -0.3001 -0.1636 -0.0909
  664ERGO    R510366   2.352  12.957   9.545  0.0142 -0.2185 -0.0988
  664ERGO    C110367   2.319  12.970   9.165 -0.3842 -0.1189 -0.0647
  664ERGO    C210368   2.349  13.065   8.745  0.0433 -0.1203 -0.1123
  665ERGO   ROH10369  11.715  12.371   9.573  0.2638 -0.0020 -0.0676
  665ERGO    R110370  11.586  12.421   9.326  0.2343 -0.1952 -0.0946
  665ERGO    R210371  11.696  12.584   9.132 -0.0327  0.1016 -0.0132
  665ERGO    R310372  11.658  12.366   8.973  0.4744  0.0567 -0.0870
  665ERGO    R410373  11.648  12.595   8.790 -0.5169  0.1534  0.0503
  665ERGO    R510374  11.497  12.438   8.811  0.0115 -0.3653  0.1624
  665ERGO    C110375  11.584  12.398   8.442 -0.3227  0.1414  0.0182
  665ERGO    C210376  11.786  12.495   8.154 -0.0394 -0.2867  0.2193
  666ERGO   ROH10377  17.181   8.883  10.172  0.1815 -0.0822 -0.0090
  666ERGO    R110378  17.314   8.763   9.953  0.1407 -0.1069 -0.0208
  666ERGO    R210379  17.332   8.488   9.923 -0.0482 -0.1146 -0.1058
  666ERGO    R310380  17.224   8.541   9.679  0.0360  0.0446 -0.1098
  666ERGO    R410381  17.404   8.314   9.634 -0.0844 -0.0363 -0.1617
  666ERGO    R510382  17.403   8.503   9.525  0.0467  0.0062 -0.0850
  666ERGO    C110383  17.344   8.261   9.236 -0.0263  0.1587 -0.1979
  666ERGO    C210384  17.187   8.133   8.967 -0.0947  0.0038  0.4437
  667ERGO   ROH10385   2.821   0.579  10.453  0.0301  0.0067  0.1131
  667ERGO    R110386   2.641   0.619  10.239  0.0196  0.0958  0.1386
  667ERGO    R210387   2.663   0.831  10.063  0.1113  0.0746  0.1234
  667ERGO    R310388   2.660   0.634   9.876 -0.0267  0.0647  0.1353
  667ERGO    R410389   2.558   0.871   9.737  0.2876  0.1655  0.0760
  667ERGO    R510390   2.461   0.676   9.750  0.0699  0.2713  0.0501
  667ERGO    C110391   2.493   0.709   9.371  0.2607  0.2092  0.0595
  667ERGO    C210392   2.443   0.828   9.029  0.1613 -0.1755 -0.4633
  668ERGO   ROH10393   6.648   0.112  10.094 -0.2525 -0.1764  0.1510
  668ERGO    R110394   6.697   0.109   9.815 -0.1831  0.3709  0.1447
  668ERGO    R210395   6.664  -0.118   9.660  0.6562  0.4163 -0.1724
  668ERGO    R310396   6.504   0.045   9.514  0.0720  0.0653  0.0431
  668ERGO    R410397   6.621  -0.136   9.318  0.3137  0.4268 -0.1322
  668ERGO    R510398   6.623   0.081   9.310 -0.2440  0.4379 -0.0807
  668ERGO    C110399   6.446   0.008   8.981 -0.4341  0.1031  0.0934
  668ERGO    C210400   6.474  -0.089   8.709  0.0860  0.1108  0.3213
  669ERGO   ROH10401  14.517  16.406  10.148  0.0958 -0.0119  0.0027
  669ERGO    R110402  14.613  16.331   9.893 -0.0838 -0.1190 -0.0370
  669ERGO    R210403  14.452  16.210   9.702 -0.2983  0.0571  0.0172
  669ERGO    R310404  14.537  16.417   9.547 -0.1267 -0.0287 -0.0034
  669ERGO    R410405  14.468  16.205   9.357  0.0587 -0.1068  0.0330
  669ERGO    R510406  14.657  16.312   9.369  0.0484 -0.1179  0.1710
  669ERGO    C110407  14.557  16.396   9.011  0.4276 -0.2827  0.0229
  669ERGO    C210408  14.684  16.443   8.788  0.1522  0.1310  0.0869
  670ERGO   ROH10409   1.918   9.490   9.996  0.0310 -0.0032 -0.1173
  670ERGO    R110410   1.779   9.594   9.773 -0.0870 -0.0527 -0.0679
  670ERGO    R210411   1.896   9.621   9.524 -0.1235  0.1722 -0.0646
  670ERGO    R310412   1.681   9.474   9.443  0.0227 -0.0182 -0.1126
  670ERGO    R410413   1.794   9.585   9.196 -0.0370  0.1010 -0.0835
  670ERGO    R510414   1.587   9.601   9.263 -0.0635 -0.0924 -0.1185
  670ERGO    C110415   1.534   9.426   8.928  0.1507 -0.1190 -0.1398
  670ERGO    C210416   1.384   9.270   8.641 -0.0984 -0.0969 -0.1758
  671ERGO   ROH10417   8.511   0.832   9.810 -0.1325  0.2182  0.1587
  671ERGO    R110418   8.573   1.003   9.594 -0.1019  0.1424  0.1075
  671ERGO    R210419   8.805   0.978   9.445 -0.0649  0.1140  0.1755
  671ERGO    R310420   8.630   0.967   9.237 -0.0102  0.0142  0.1335
  671ERGO    R410421   8.888   1.025   9.113 -0.0197  0.2519  0.2055
  671ERGO    R510422   8.704   1.138   9.087 -0.1104  0.1100  0.1872
  671ERGO    C110423   8.773   1.043   8.724  0.0578  0.2385  0.1834
  671ERGO    C210424   8.728   1.123   8.324 -0.0495  0.3338  0.1131
  672ERGO   ROH10425   0.241  10.797   9.980  0.0907  0.0012  0.0094
  672ERGO    R110426   0.347  10.877   9.730  0.0688  0.0206  0.0064
  672ERGO    R210427   0.327  10.721   9.503  0.1135  0.0060  0.0144
  672ERGO    R310428   0.217  10.947   9.397  0.0511 -0.0298  0.0020
  672ERGO    R410429   0.341  10.809   9.169  0.1574  0.0243  0.0209
  672ERGO    R510430   0.375  11.016   9.230  0.0655  0.0366  0.0402
  672ERGO    C110431   0.247  11.071   8.875  0.1245  0.0013  0.0132
  672ERGO    C210432   0.287  11.004   8.548  0.1244  0.2592 -0.0341
  673ERGO   ROH10433   6.951  11.564   9.670 -0.1593 -0.1002  0.2345
  673ERGO    R110434   6.863  11.627   9.408  0.0078 -0.0140  0.1983
  673ERGO    R210435   7.030  11.616   9.189  0.1239 -0.0357  0.2881
  673ERGO    R310436   6.837  11.453   9.089  0.1132  0.0596  0.1488
  673ERGO    R410437   6.953  11.585   8.853  0.3102  0.0453  0.2353
  673ERGO    R510438   6.741  11.578   8.908  0.2734  0.1262  0.1081
  673ERGO    C110439   6.725  11.413   8.565  0.4088  0.1816  0.0738
  673ERGO    C210440   6.816  11.431   8.195  0.1876 -0.0911  0.1814
  674PSPI    C110441   0.646   8.942   6.133  0.0155 -0.1306  0.0230
  674PSPI    C210442   0.266   9.068   6.130  0.0866  0.0930  0.1745
  674PSPI    C310443   0.402   8.835   5.835 -0.0836  0.2663 -0.0445
  674PSPI   PO410444   0.752   9.176   6.253  0.2572 -0.0484 -0.3619
  674PSPI   GL110445   0.688   9.339   6.575 -0.0262  0.2342  0.2907
  674PSPI   GL210446   0.785   9.530   6.772  0.1502 -0.0931 -0.1028
  674PSPI   C1A10447   0.408   9.239   6.905 -0.2396  0.1902  0.2127
  674PSPI   C2A10448   0.377   9.317   7.393 -0.3386  0.0208  0.1940
  674PSPI   C3A10449   0.477   9.198   7.708 -0.0585  0.3318 -0.2184
  674PSPI   C4A10450   0.617   8.878   8.002  0.0024  0.0891 -0.0316
  674PSPI   C1B10451   0.830   9.494   7.194  0.2008 -0.0289 -0.3362
  674PSPI   C2B10452   0.888   9.240   7.447 -0.1323 -0.2297 -0.2636
  674PSPI   C3B10453   1.296   9.381   7.424  0.1646  0.0849 -0.0620
  674PSPI   C4B10454   1.678   9.238   7.485  0.0170 -0.1878 -0.0967
  675PSPI    C110455   3.682  11.600   5.631  0.0159 -0.0325  0.1086
  675PSPI    C210456   4.041  11.479   5.760  0.0186 -0.0387  0.0952
  675PSPI    C310457   3.975  11.528   5.369 -0.0346 -0.1646  0.0882
  675PSPI   PO410458   3.629  11.917   5.738 -0.0600 -0.0808  0.0616
  675PSPI   GL110459   3.538  12.369   6.109  0.1715  0.0546  0.3405
  675PSPI   GL210460   3.583  12.102   6.234  0.2574 -0.0830  0.0250
  675PSPI   C1A10461   3.602  12.634   6.481  0.0307 -0.1076  0.0346
  675PSPI   C2A10462   3.648  12.738   6.878  0.0949  0.4955 -0.0438
  675PSPI   C3A10463   3.888  12.639   7.277 -0.2281 -0.0017  0.0215
  675PSPI   C4A10464   3.955  12.487   7.631 -0.1077 -0.1171 -0.1377
  675PSPI   C1B10465   3.715  12.204   6.682 -0.0837  0.1157  0.0787
  675PSPI   C2B10466   4.035  12.351   6.930 -0.1770  0.2810  0.3466
  675PSPI   C3B10467   4.372  12.510   7.307 -0.3223  0.1048 -0.1267
  675PSPI   C4B10468   4.269  12.896   7.434 -0.1888 -0.3294  0.2067
  676PSPI    C110469  14.507   7.406   5.197 -0.1176  0.0369 -0.0618
  676PSPI    C210470  14.340   7.046   5.148 -0.1207  0.0564 -0.1989
  676PSPI    C310471  14.729   7.098   5.069  0.0103 -0.0441  0.3406
  676PSPI   PO410472  14.272   7.511   5.446  0.0719 -0.0976 -0.3424
  676PSPI   GL110473  14.258   7.497   5.927 -0.2022 -0.2533 -0.2435
  676PSPI   GL210474  14.656   7.480   6.101  0.0645 -0.2971 -0.0134
  676PSPI   C1A10475  14.137   7.200   6.258 -0.0685 -0.0870 -0.1880
  676PSPI   C2A10476  13.938   7.074   6.623 -0.2526  0.2283  0.2714
  676PSPI   C3A10477  13.940   7.066   7.112 -0.1358  0.0263 -0.2571
  676PSPI   C4A10478  14.038   7.129   7.483 -0.0105  0.1095 -0.1594
  676PSPI   C1B10479  14.521   7.550   6.541 -0.3330 -0.0121  0.0027
  676PSPI   C2B10480  14.626   7.572   7.012  0.0846  0.0303 -0.0373
  676PSPI   C3B10481  14.849   7.578   7.459  0.2832 -0.5497  0.6376
  676PSPI   C4B10482  14.956   7.448   7.816 -0.2417  0.0325  0.0320
  677PSPI    C110483  10.455  18.234   5.709  0.1896 -0.0568  0.0776
  677PSPI    C210484  10.119  18.265   5.494  0.2848 -0.3209 -0.1156
  677PSPI    C310485  10.430  18.504   5.415  0.0615  0.0976  0.2287
  677PSPI   PO410486  10.436  18.199   5.901 -0.3180  0.0019  0.0358
  677PSPI   GL110487  10.391  18.172   6.375 -0.2507  0.1791  0.0354
  677PSPI   GL210488  10.707  18.232   6.437 -0.0542 -0.2404  0.0938
  677PSPI   C1A10489  10.140  18.193   6.772 -0.1372  0.2821 -0.0797
  677PSPI   C2A10490   9.933  18.102   7.171  0.0788  0.0588 -0.1717
  677PSPI   C3A10491   9.954  18.211   7.681 -0.2206  0.3132  0.1451
  677PSPI   C4A10492  10.025  18.374   8.081  0.2032  0.3955 -0.1679
  677PSPI   C1B10493  10.678  18.208   6.898  0.1970  0.2411 -0.0909
  677PSPI   C2B10494  10.552  18.120   7.265 -0.0611  0.3652  0.0195
  677PSPI   C3B10495  10.484  18.319   7.635  0.0424  0.0750 -0.1228
  677PSPI   C4B10496  10.529  18.250   8.191  0.0737  0.0587 -0.1833
  678PSPI    C110497   1.174   7.099   5.796 -0.2196  0.0838  0.0164
  678PSPI    C210498   1.393   7.199   5.477  0.0321 -0.0387  0.1470
  678PSPI    C310499   0.995   7.241   5.468  0.0447  0.0437 -0.1484
  678PSPI   PO410500   1.423   7.160   5.981 -0.0218 -0.0777  0.2211
  678PSPI   GL110501   1.528   7.202   6.439 -0.1518  0.0790 -0.3676
  678PSPI   GL210502   1.201   7.394   6.506 -0.1929  0.0178  0.1781
  678PSPI   C1A10503   1.565   7.142   6.927 -0.0723  0.3220  0.5419
  678PSPI   C2A10504   1.296   7.280   7.198  0.2283  0.2251 -0.0355
  678PSPI   C3A10505   1.289   7.232   7.685  0.3533  0.1538 -0.1230
  678PSPI   C4A10506   1.212   7.209   8.104  0.0082 -0.3914 -0.0252
  678PSPI   C1B10507   1.450   7.611   6.838  0.1793 -0.1867  0.1109
  678PSPI   C2B10508   1.211   7.761   7.222  0.1173  0.0572  0.0158
  678PSPI   C3B10509   0.891   7.770   7.488  0.0953 -0.3804 -0.0232
  678PSPI   C4B10510   0.576   7.932   7.782  0.8218 -0.0051  0.0267
  679PSPI    C110511   8.108  16.569   5.386 -0.1246 -0.1211 -0.2008
  679PSPI    C210512   8.462  16.383   5.367 -0.0123  0.0728 -0.0429
  679PSPI    C310513   8.407  16.729   5.174 -0.0484  0.1492  0.1023
  679PSPI   PO410514   8.041  16.590   5.592 -0.1130 -0.1932 -0.1128
  679PSPI   GL110515   7.719  16.485   5.980  0.1313  0.3132  0.2166
  679PSPI   GL210516   8.036  16.464   6.123  0.4171 -0.0329  0.1421
  679PSPI   C1A10517   7.387  16.671   6.295  0.0884 -0.0197 -0.0324
  679PSPI   C2A10518   7.312  16.887   6.701 -0.0311  0.2832 -0.1333
  679PSPI   C3A10519   7.342  16.974   7.144  0.2941  0.2531  0.2093
  679PSPI   C4A10520   7.047  17.020   7.420 -0.0222 -0.1937 -0.0180
  679PSPI   C1B10521   8.139  16.354   6.507 -0.0866  0.0194  0.1253
  679PSPI   C2B10522   8.288  16.401   6.980  0.0797  0.0377 -0.0901
  679PSPI   C3B10523   8.127  16.478   7.403 -0.1115  0.2860 -0.0106
  679PSPI   C4B10524   8.037  16.249   7.782  0.1623 -0.0483 -0.0737
  680PSPI    C110525  18.106   6.668   5.664 -0.0005  0.2284  0.1502
  680PSPI    C210526  18.038   6.639   5.271 -0.2477 -0.1198  0.2134
  680PSPI    C310527  18.172   6.982   5.426 -0.2566  0.0563 -0.1570
  680PSPI   PO410528  17.883   6.518   5.888  0.0071  0.0872  0.0172
  680PSPI   GL110529  17.688   6.533   6.335  0.0243 -0.3269 -0.1561
  680PSPI   GL210530  17.817   6.244   6.359 -0.1185 -0.0470  0.3233
  680PSPI   C1A10531  17.521   6.582   6.742  0.3035  0.0654  0.1967
  680PSPI   C2A10532  17.500   7.000   7.043 -0.1439  0.1385 -0.2479
  680PSPI   C3A10533  17.537   7.158   7.391  0.4460  0.1503 -0.2333
  680PSPI   C4A10534  17.633   7.021   7.762 -0.4521 -0.0557 -0.2668
  680PSPI   C1B10535  17.835   6.190   6.848  0.1888 -0.0965 -0.1194
  680PSPI   C2B10536  17.820   6.344   7.214 -0.0600  0.1144  0.1064
  680PSPI   C3B10537  17.876   6.791   7.229 -0.1871  0.2249 -0.1183
  680PSPI   C4B10538  17.969   7.121   7.096  0.3302 -0.0231  0.1168
  681PSPI    C110539   7.556   8.455   5.384 -0.0142  0.0564 -0.1230
  681PSPI    C210540   7.322   8.142   5.475  0.1266 -0.0238 -0.0338
  681PSPI    C310541   7.394   8.234   5.092 -0.0065 -0.0316 -0.0611
  681PSPI   PO410542   7.838   8.386   5.544  0.0129 -0.1897 -0.1538
  681PSPI   GL110543   7.964   8.363   5.971 -0.2566  0.1927  0.1603
  681PSPI   GL210544   8.087   8.569   6.287  0.1818  0.0185 -0.1347
  681PSPI   C1A10545   8.248   8.092   6.211 -0.0951  0.0655 -0.1956
  681PSPI   C2A10546   8.376   7.773   6.467  0.2690  0.1742 -0.1730
  681PSPI   C3A10547   8.433   7.666   6.832  0.1213 -0.1572 -0.2666
  681PSPI   C4A10548   8.438   7.406   7.069  0.1073 -0.4573  0.0478
  681PSPI   C1B10549   7.878   8.692   6.598 -0.0959  0.4621  0.2177
  681PSPI   C2B10550   7.743   8.393   6.911 -0.0041  0.1140  0.3012
  681PSPI   C3B10551   7.856   8.249   7.234  0.1143  0.2879 -0.1627
  681PSPI   C4B10552   7.740   8.456   7.622 -0.0127 -0.1700  0.4028
  682PSPI    C110553  11.866   1.296   5.905 -0.0659 -0.0361  0.1136
  682PSPI    C210554  11.525   1.505   5.886 -0.0739 -0.0704 -0.1607
  682PSPI    C310555  11.551   1.147   5.708  0.0850 -0.0971 -0.0857
  682PSPI   PO410556  11.871   1.285   6.225 -0.1541  0.0021  0.2912
  682PSPI   GL110557  11.882   1.164   6.651 -0.0266 -0.0953  0.3209
  682PSPI   GL210558  12.135   0.997   6.609 -0.2373  0.1828 -0.1019
  682PSPI   C1A10559  11.789   1.243   7.169 -0.0834  0.0944 -0.1592
  682PSPI   C2A10560  11.413   1.460   7.391 -0.0490  0.1313  0.1536
  682PSPI   C3A10561  11.043   1.399   7.660  0.1431  0.1077 -0.0391
  682PSPI   C4A10562  10.734   1.423   7.620 -0.0990  0.2261 -0.4436
  682PSPI   C1B10563  12.264   1.030   6.952  0.1781 -0.0765  0.0917
  682PSPI   C2B10564  12.537   1.038   7.304 -0.1190 -0.3124  0.1158
  682PSPI   C3B10565  12.473   1.261   7.664 -0.0470 -0.0029  0.3366
  682PSPI   C4B10566  12.250   1.596   7.949 -0.3578  0.2027  0.0890
  683PSPI    C110567  15.272   1.385   6.276 -0.0044 -0.0343  0.0406
  683PSPI    C210568  15.620   1.204   6.199 -0.1591 -0.2941 -0.0616
  683PSPI    C310569  15.286   0.987   6.239 -0.2819 -0.0625  0.2052
  683PSPI   PO410570  15.346   1.562   6.415  0.3424  0.1122  0.0276
  683PSPI   GL110571  15.268   1.774   6.759  0.0080  0.0622 -0.0535
  683PSPI   GL210572  15.643   1.596   6.896  0.0249  0.2942 -0.0088
  683PSPI   C1A10573  15.335   1.987   7.141  0.0851 -0.0431 -0.0730
  683PSPI   C2A10574  15.214   1.989   7.556 -0.0667 -0.0510  0.2590
  683PSPI   C3A10575  14.951   1.804   7.821  0.1181  0.2318  0.0494
  683PSPI   C4A10576  14.893   1.488   8.003 -0.2366  0.2212  0.1939
  683PSPI   C1B10577  15.772   1.294   7.188 -0.1825 -0.1040 -0.1555
  683PSPI   C2B10578  15.777   1.291   7.603 -0.0944  0.2026 -0.1926
  683PSPI   C3B10579  15.642   1.360   7.994 -0.4466  0.1684 -0.2092
  683PSPI   C4B10580  15.746   1.476   8.487  0.0689  0.0553 -0.0752
  684PSPI    C110581  12.043   1.754   6.048 -0.0402  0.1857  0.2249
  684PSPI    C210582  12.378   1.536   6.042 -0.2279 -0.1047  0.1171
  684PSPI    C310583  12.237   1.696   5.703 -0.0801  0.2061  0.1990
  684PSPI   PO410584  12.045   1.839   6.297  0.3589  0.1768  0.0962
  684PSPI   GL110585  12.003   2.214   6.595  0.0146  0.1578 -0.3110
  684PSPI   GL210586  12.253   2.009   6.750  0.4117  0.1395 -0.1294
  684PSPI   C1A10587  12.150   2.392   7.016 -0.1098  0.1909  0.2208
  684PSPI   C2A10588  12.502   2.439   7.259 -0.1285  0.1173  0.1196
  684PSPI   C3A10589  12.579   2.520   7.656 -0.0693  0.1638 -0.1844
  684PSPI   C4A10590  12.746   2.125   7.849 -0.0493  0.1956  0.0872
  684PSPI   C1B10591  12.368   1.996   7.146 -0.0862 -0.5130  0.0027
  684PSPI   C2B10592  12.333   2.018   7.539  0.0785 -0.1414  0.1911
  684PSPI   C3B10593  12.222   2.140   7.931  0.1367 -0.1469 -0.3594
  684PSPI   C4B10594  12.468   1.963   8.369 -0.3402  0.1789 -0.1476
  685PSPI    C110595   9.264  12.834   5.366 -0.2401 -0.1174 -0.2322
  685PSPI    C210596   9.372  13.172   5.182 -0.1837 -0.1263 -0.2155
  685PSPI    C310597   9.354  12.829   4.977  0.0277 -0.1652 -0.1712
  685PSPI   PO410598   9.313  12.871   5.641 -0.0721  0.0376 -0.2654
  685PSPI   GL110599   9.183  12.548   5.950  0.3773 -0.1674 -0.2683
  685PSPI   GL210600   8.954  12.635   6.063 -0.2618 -0.1780 -0.5155
  685PSPI   C1A10601   9.492  12.499   6.359  0.1272  0.1736 -0.0219
  685PSPI   C2A10602   9.387  12.430   6.821  0.0871 -0.0220  0.3073
  685PSPI   C3A10603   9.435  12.082   7.057 -0.0862 -0.5358  0.1184
  685PSPI   C4A10604   9.525  12.000   7.423  0.0446  0.0578  0.0436
  685PSPI   C1B10605   8.678  12.693   6.493 -0.1370  0.3197 -0.1069
  685PSPI   C2B10606   8.265  12.702   6.775 -0.2169 -0.3089  0.1449
  685PSPI   C3B10607   8.202  12.539   7.162 -0.0276  0.0432  0.0020
  685PSPI   C4B10608   8.183  12.460   7.522  0.1101  0.0734  0.0213
  686PSPI    C110609  11.893  15.097   5.536 -0.0602 -0.1087 -0.1173
  686PSPI    C210610  12.282  15.015   5.587 -0.0764 -0.0663  0.0812
  686PSPI    C310611  12.156  15.395   5.583 -0.1294 -0.0834  0.1206
  686PSPI   PO410612  11.673  14.993   5.730 -0.6361  0.1103 -0.1177
  686PSPI   GL110613  11.774  14.791   6.127  0.2050 -0.2884  0.0694
  686PSPI   GL210614  11.732  14.449   6.249 -0.4916 -0.0530 -0.0552
  686PSPI   C1A10615  11.818  15.126   6.405  0.1857 -0.0000  0.0744
  686PSPI   C2A10616  11.721  15.069   6.904 -0.0773  0.1061  0.2815
  686PSPI   C3A10617  11.770  14.992   7.418  0.2621  0.0922 -0.1401
  686PSPI   C4A10618  12.168  15.016   7.792  0.0559 -0.2394 -0.0233
  686PSPI   C1B10619  11.884  14.270   6.563 -0.2295  0.1813  0.0446
  686PSPI   C2B10620  11.801  14.220   6.999  0.3328 -0.0119  0.1011
  686PSPI   C3B10621  11.611  14.152   7.450 -0.0012  0.0031 -0.0936
  686PSPI   C4B10622  11.168  14.164   7.623 -0.0001  0.0127  0.4595
  687PSPI    C110623   8.875   9.828   5.304  0.1326  0.0808 -0.1253
  687PSPI    C210624   9.073  10.165   5.391 -0.0770  0.1786 -0.0217
  687PSPI    C310625   9.036  10.048   5.011  0.0265  0.2540 -0.0553
  687PSPI   PO410626   9.058   9.574   5.572  0.2937 -0.1486 -0.1485
  687PSPI   GL110627   9.205   9.639   6.046 -0.1139  0.0628  0.0603
  687PSPI   GL210628   9.544   9.608   6.139 -0.2163 -0.0365 -0.0061
  687PSPI   C1A10629   9.117   9.779   6.452  0.0855  0.2506 -0.0318
  687PSPI   C2A10630   9.159   9.735   6.845  0.3830  0.1607 -0.0132
  687PSPI   C3A10631   9.140   9.845   7.274 -0.4035 -0.1472  0.0064
  687PSPI   C4A10632   9.305   9.795   7.633  0.2004  0.0114 -0.1776
  687PSPI   C1B10633   9.737   9.200   6.246 -0.3973 -0.2025  0.1685
  687PSPI   C2B10634   9.427   8.831   6.229 -0.1809  0.1873  0.0459
  687PSPI   C3B10635   9.164   8.456   6.415  0.0125  0.2099 -0.2004
  687PSPI   C4B10636   8.836   8.481   6.844 -0.1079  0.2421 -0.0908
  688PSPI    C110637  15.824   9.115   5.426 -0.0678 -0.0747  0.2581
  688PSPI    C210638  15.782   9.470   5.605  0.0969 -0.0491  0.2466
  688PSPI    C310639  15.574   9.388   5.273  0.3377  0.1801  0.0338
  688PSPI   PO410640  15.853   8.890   5.664 -0.0029 -0.1368 -0.1787
  688PSPI   GL110641  15.931   8.796   6.188 -0.2152 -0.0912 -0.0876
  688PSPI   GL210642  16.234   8.953   6.267  0.0930 -0.2975  0.0575
  688PSPI   C1A10643  15.710   8.656   6.520 -0.1587 -0.2130 -0.5562
  688PSPI   C2A10644  15.748   8.518   6.953 -0.2671  0.0678  0.0258
  688PSPI   C3A10645  15.481   8.686   7.287  0.1458 -0.2747 -0.2443
  688PSPI   C4A10646  15.300   8.980   7.292 -0.2735 -0.0949  0.2312
  688PSPI   C1B10647  16.406   9.094   6.765 -0.2670  0.0003  0.2752
  688PSPI   C2B10648  16.599   9.097   7.260  0.2943 -0.0704 -0.0286
  688PSPI   C3B10649  16.848   8.864   7.586  0.0081  0.1018  0.0229
  688PSPI   C4B10650  17.078   8.847   8.015 -0.2602  0.3256 -0.0817
  689PSPI    C110651   3.223   2.782   5.963  0.1108  0.3755  0.1513
  689PSPI    C210652   3.163   3.076   5.698  0.1019  0.2387 -0.0005
  689PSPI    C310653   3.105   2.695   5.590  0.1268  0.1797  0.1907
  689PSPI   PO410654   3.351   2.809   6.143  0.2135  0.0857 -0.0370
  689PSPI   GL110655   3.291   2.756   6.618 -0.0323 -0.0491 -0.1798
  689PSPI   GL210656   3.495   2.963   6.589  0.3160  0.3135  0.0173
  689PSPI   C1A10657   3.535   2.725   7.000 -0.2042 -0.1825  0.0754
  689PSPI   C2A10658   3.652   2.779   7.430  0.1490  0.1042 -0.0429
  689PSPI   C3A10659   3.454   2.827   7.790  0.1447  0.4090  0.0111
  689PSPI   C4A10660   2.972   2.826   8.052 -0.0647  0.0533 -0.0233
  689PSPI   C1B10661   3.949   2.825   6.717 -0.1325  0.1088  0.1471
  689PSPI   C2B10662   4.433   2.537   6.737  0.1490  0.3319  0.1476
  689PSPI   C3B10663   4.795   2.288   6.635  0.1628 -0.1997  0.3981
  689PSPI   C4B10664   5.083   1.992   6.704  0.2139 -0.1373  0.1092
  690PSPI    C110665   3.962   5.676   5.583  0.1639 -0.1255 -0.0003
  690PSPI    C210666   4.038   5.325   5.406  0.0851  0.0415 -0.3759
  690PSPI    C310667   3.661   5.431   5.486  0.1377 -0.1823  0.2200
  690PSPI   PO410668   4.096   5.647   5.849  0.0258  0.2757  0.1896
  690PSPI   GL110669   4.419   5.519   6.248  0.3562 -0.0789 -0.2322
  690PSPI   GL210670   4.361   5.034   6.244  0.4073  0.1962  0.1192
  690PSPI   C1A10671   4.389   5.711   6.617  0.1402  0.1147  0.0977
  690PSPI   C2A10672   4.245   5.968   7.031  0.3323  0.0546 -0.2044
  690PSPI   C3A10673   4.111   6.223   7.433 -0.2963  0.1279  0.1366
  690PSPI   C4A10674   3.947   6.512   7.853  0.0841 -0.0909 -0.2848
  690PSPI   C1B10675   4.251   4.761   6.625 -0.0791 -0.1398  0.4323
  690PSPI   C2B10676   3.945   4.469   6.709  0.0873 -0.3454 -0.3227
  690PSPI   C3B10677   3.782   4.254   7.114  0.1877 -0.0762 -0.2624
  690PSPI   C4B10678   3.834   3.996   7.509 -0.2609  0.0745 -0.1774
  691PSPI    C110679   8.375   4.370   5.264 -0.0292 -0.1041 -0.0916
  691PSPI    C210680   8.083   4.590   5.427  0.1333  0.2082 -0.2126
  691PSPI    C310681   8.035   4.431   5.063 -0.0005  0.0046 -0.1080
  691PSPI   PO410682   8.546   4.376   5.584  0.1715 -0.3928  0.1983
  691PSPI   GL110683   8.661   4.248   5.945 -0.1824 -0.2339 -0.2888
  691PSPI   GL210684   8.810   4.034   6.185  0.2053 -0.2409 -0.1189
  691PSPI   C1A10685   8.542   4.405   6.367 -0.1930  0.0387  0.0495
  691PSPI   C2A10686   8.717   4.603   6.672 -0.0842 -0.2043 -0.0600
  691PSPI   C3A10687   8.888   4.625   6.979  0.1016 -0.0132  0.0203
  691PSPI   C4A10688   9.171   4.379   7.253 -0.2981 -0.1425  0.2059
  691PSPI   C1B10689   8.950   4.062   6.527 -0.0920  0.2598 -0.0698
  691PSPI   C2B10690   8.897   4.094   6.977  0.0387 -0.0406 -0.0074
  691PSPI   C3B10691   8.815   4.028   7.367 -0.1369  0.3299  0.3857
  691PSPI   C4B10692   8.543   3.979   7.754  0.1663  0.0073  0.1431
  692PSPI    C110693   9.440  17.775   5.882  0.0807  0.0477  0.0341
  692PSPI    C210694   9.511  17.492   5.609  0.1781  0.3440 -0.2544
  692PSPI    C310695   9.186  17.722   5.578 -0.0044  0.1413  0.0882
  692PSPI   PO410696   9.501  17.637   6.108 -0.1239  0.1371 -0.0612
  692PSPI   GL110697   9.538  17.527   6.487  0.2327 -0.1348  0.1450
  692PSPI   GL210698   9.795  17.360   6.471  0.1854  0.1743  0.1016
  692PSPI   C1A10699   9.624  17.865   6.829 -0.1281 -0.0822  0.0472
  692PSPI   C2A10700   9.764  17.575   7.226 -0.3999  0.3187 -0.1524
  692PSPI   C3A10701  10.094  17.370   7.519 -0.0268  0.3863 -0.3204
  692PSPI   C4A10702  10.183  17.345   7.966 -0.4407 -0.0490  0.0851
  692PSPI   C1B10703   9.927  17.285   6.880 -0.0819  0.2738  0.0336
  692PSPI   C2B10704  10.004  16.979   7.251  0.1271 -0.1817  0.0830
  692PSPI   C3B10705   9.882  16.630   7.461 -0.1142  0.2504  0.0199
  692PSPI   C4B10706   9.663  16.188   7.501 -0.2093  0.1305 -0.2503
  693POPI    C110707  16.443  12.802   5.514  0.0934  0.0588  0.0537
  693POPI    C210708  16.046  12.810   5.469  0.0961 -0.1768 -0.0260
  693POPI    C310709  16.269  13.108   5.324 -0.0242 -0.2021 -0.2686
  693POPI   PO410710  16.459  12.597   5.765  0.0438  0.1221  0.2496
  693POPI   GL110711  16.467  12.661   6.173  0.3778 -0.1643 -0.1098
  693POPI   GL210712  16.396  12.251   6.278  0.1777  0.2986  0.2127
  693POPI   C1A10713  16.421  12.517   6.696 -0.1329 -0.4482 -0.1160
  693POPI   D2A10714  16.367  12.287   7.057 -0.4225 -0.2244 -0.1199
  693POPI   C3A10715  16.577  12.430   7.366  0.3179 -0.0712 -0.1547
  693POPI   C4A10716  16.701  12.591   7.811 -0.0334 -0.1739  0.0564
  693POPI   C1B10717  16.518  12.027   6.597 -0.1124 -0.1811 -0.1574
  693POPI   C2B10718  16.743  11.903   6.982 -0.2901 -0.2127 -0.0938
  693POPI   C3B10719  17.011  11.621   7.094 -0.1005  0.0820 -0.2123
  693POPI   C4B10720  17.252  11.413   6.882 -0.0128  0.0920 -0.3621
  694POPI    C110721  10.539  15.246   5.476  0.0475  0.0696  0.0604
  694POPI    C210722  10.843  15.027   5.335  0.0203  0.0490  0.0341
  694POPI    C310723  10.642  15.270   5.090 -0.1016 -0.0743  0.0106
  694POPI   PO410724  10.658  15.349   5.665 -0.0343  0.2469 -0.2204
  694POPI   GL110725  10.928  15.403   6.088 -0.1026  0.3567 -0.0061
  694POPI   GL210726  10.820  15.130   6.090  0.1472 -0.0084 -0.1423
  694POPI   C1A10727  10.845  15.632   6.550  0.1430 -0.1593 -0.0900
  694POPI   D2A10728  10.651  15.480   6.988  0.1459  0.3398 -0.0921
  694POPI   C3A10729  10.767  15.249   7.241  0.2029  0.0915  0.1024
  694POPI   C4A10730  10.611  15.182   7.564  0.2797  0.1108  0.0027
  694POPI   C1B10731  10.520  15.193   6.427 -0.1931 -0.3430 -0.0249
  694POPI   C2B10732  10.358  15.097   6.849 -0.0543  0.1815 -0.0096
  694POPI   C3B10733  10.346  14.944   7.210  0.2652 -0.1135 -0.1580
  694POPI   C4B10734  10.384  14.656   7.627  0.4415 -0.3301 -0.2741
  695POPI    C110735   5.192   5.374   5.190  0.0026 -0.1756  0.0513
  695POPI    C210736   5.401   5.576   4.915 -0.3409  0.0125 -0.0784
  695POPI    C310737   5.161   5.277   4.803  0.1425 -0.4621  0.1096
  695POPI   PO410738   5.003   5.587   5.362  0.0528  0.2148  0.0059
  695POPI   GL110739   5.184   5.341   5.733 -0.4590  0.3072 -0.1919
  695POPI   GL210740   5.563   5.524   5.884 -0.2334 -0.1920  0.3714
  695POPI   C1A10741   5.156   5.431   6.108  0.0602 -0.1214 -0.3065
  695POPI   D2A10742   5.352   5.752   6.281  0.0239 -0.0903 -0.2599
  695POPI   C3A10743   5.742   5.870   6.367  0.2620  0.1134  0.1242
  695POPI   C4A10744   6.151   6.033   6.418  0.1906  0.1409 -0.1096
  695POPI   C1B10745   5.629   5.378   6.364 -0.4111  0.0377 -0.0226
  695POPI   C2B10746   5.695   5.565   6.782 -0.0331  0.0748  0.0445
  695POPI   C3B10747   5.419   5.945   6.866 -0.2010 -0.1311  0.0212
  695POPI   C4B10748   5.289   6.036   7.218 -0.5203  0.2383  0.3623
  696POPI    C110749  11.581   4.721   5.831  0.2303  0.0195 -0.3107
  696POPI    C210750  11.754   4.954   6.107  0.1138 -0.0679 -0.1625
  696POPI    C310751  11.736   5.074   5.726 -0.0260  0.2073 -0.0718
  696POPI   PO410752  11.321   4.648   5.986 -0.2143 -0.0040  0.2415
  696POPI   GL110753  11.174   4.432   6.295  0.3085  0.3128  0.0301
  696POPI   GL210754  11.156   4.727   6.419  0.1012 -0.0532  0.2312
  696POPI   C1A10755  10.971   4.292   6.698 -0.1139 -0.0080  0.0104
  696POPI   D2A10756  10.718   4.436   7.144  0.5187 -0.1118  0.0306
  696POPI   C3A10757  10.473   4.640   7.291 -0.2227  0.0293  0.2522
  696POPI   C4A10758  10.223   4.553   7.617 -0.2857 -0.2247  0.0020
  696POPI   C1B10759  11.068   4.790   6.865  0.0337 -0.1178 -0.2224
  696POPI   C2B10760  11.016   4.897   7.363  0.0467  0.2192 -0.1400
  696POPI   C3B10761  11.174   4.972   7.824 -0.0245 -0.2131  0.2825
  696POPI   C4B10762  11.491   5.103   8.093  0.4395  0.2050  0.1266
  697POPI    C110763   1.205   5.767   5.721 -0.0797 -0.0163  0.1355
  697POPI    C210764   1.272   5.426   5.918  0.0544 -0.0454  0.0406
  697POPI    C310765   1.260   5.427   5.518  0.0037  0.0524  0.0421
  697POPI   PO410766   0.939   5.865   5.855  0.2232  0.1717  0.0617
  697POPI   GL110767   0.889   6.074   6.273 -0.0665 -0.2536  0.1064
  697POPI   GL210768   0.781   5.933   6.462 -0.1188  0.0481  0.1544
  697POPI   C1A10769   0.863   6.521   6.396  0.0099  0.2752 -0.1626
  697POPI   D2A10770   1.135   6.751   6.694 -0.0573 -0.0531  0.0528
  697POPI   C3A10771   0.936   7.121   6.754  0.0537 -0.0510  0.0375
  697POPI   C4A10772   0.813   7.458   6.926 -0.0132  0.0494 -0.1499
  697POPI   C1B10773   0.735   6.144   6.858  0.0640  0.1417 -0.0374
  697POPI   C2B10774   0.899   6.437   7.125  0.0992  0.0433 -0.2235
  697POPI   C3B10775   0.976   6.493   7.563 -0.3482  0.0323  0.0287
  697POPI   C4B10776   1.010   6.840   7.806 -0.0972  0.1896 -0.0667
  698POPI    C110777  13.289   8.477   5.476  0.4851  0.0435  0.0042
  698POPI    C210778  13.291   8.627   5.105  0.2037 -0.0613 -0.0417
  698POPI    C310779  13.250   8.233   5.162  0.1192 -0.0323  0.1040
  698POPI   PO410780  13.187   8.616   5.653 -0.0941  0.3183  0.0236
  698POPI   GL110781  13.174   8.654   6.088 -0.1232  0.2585 -0.0260
  698POPI   GL210782  13.336   8.419   6.294  0.0233  0.0474 -0.0580
  698POPI   C1A10783  13.146   8.869   6.582 -0.1490 -0.0639 -0.2804
  698POPI   D2A10784  13.460   9.020   6.886 -0.0690 -0.0235  0.0156
  698POPI   C3A10785  13.930   9.252   6.922  0.0608  0.1595 -0.2675
  698POPI   C4A10786  14.024   9.376   7.362  0.3694  0.0239 -0.0164
  698POPI   C1B10787  13.451   8.470   6.592 -0.0072  0.0092 -0.2262
  698POPI   C2B10788  13.643   8.530   6.976 -0.1889  0.0026 -0.3254
  698POPI   C3B10789  13.542   8.631   7.361  0.1139 -0.1455  0.0014
  698POPI   C4B10790  13.613   8.863   7.670  0.1457  0.0887  0.0545
  699POPI    C110791  12.869   7.693   5.410 -0.1892 -0.0717 -0.1887
  699POPI    C210792  12.819   7.884   5.062 -0.0404 -0.1114 -0.2327
  699POPI    C310793  13.185   7.771   5.177 -0.0296  0.2710  0.1312
  699POPI   PO410794  12.820   7.845   5.567  0.2531  0.1704 -0.0102
  699POPI   GL110795  12.719   7.818   6.077 -0.2666  0.0171 -0.0274
  699POPI   GL210796  12.999   7.647   6.120  0.1589  0.1099  0.1729
  699POPI   C1A10797  12.633   7.575   6.430 -0.1011  0.0144 -0.0524
  699POPI   D2A10798  12.693   7.452   6.829  0.1392 -0.0061  0.0584
  699POPI   C3A10799  12.698   7.438   7.344 -0.1367 -0.2634  0.0711
  699POPI   C4A10800  12.621   7.204   7.717 -0.0233  0.2023 -0.1906
  699POPI   C1B10801  12.892   7.957   6.507  0.2348  0.4928 -0.1294
  699POPI   C2B10802  12.907   8.206   6.944 -0.0606  0.1933 -0.2307
  699POPI   C3B10803  13.203   8.329   7.205  0.3764 -0.0581 -0.0756
  699POPI   C4B10804  13.450   8.224   7.607  0.2371 -0.1255 -0.0409
  700POPI    C110805  11.803   9.090   5.399  0.2095 -0.0222 -0.1416
  700POPI    C210806  12.060   9.278   5.158 -0.0667  0.2630 -0.2208
  700POPI    C310807  11.672   9.266   5.065 -0.1123 -0.0035 -0.0094
  700POPI   PO410808  11.962   9.150   5.638 -0.1778  0.2950  0.2583
  700POPI   GL110809  11.943   9.178   6.022 -0.3957 -0.3188 -0.4414
  700POPI   GL210810  12.109   9.361   6.211  0.2921  0.2076 -0.0047
  700POPI   C1A10811  11.784   8.847   6.301 -0.2436 -0.0831 -0.1512
  700POPI   D2A10812  11.839   8.500   6.469 -0.5440  0.1169  0.0552
  700POPI   C3A10813  11.554   8.439   6.935 -0.1305 -0.1202 -0.2362
  700POPI   C4A10814  11.517   8.080   7.240 -0.0721  0.1809  0.1443
  700POPI   C1B10815  12.095   9.277   6.597 -0.0660  0.0548  0.0994
  700POPI   C2B10816  11.999   8.961   6.738  0.0765 -0.1856 -0.2196
  700POPI   C3B10817  11.774   8.877   7.114 -0.1465  0.1555 -0.0178
  700POPI   C4B10818  11.697   8.530   7.427 -0.2604 -0.2830  0.2024
  701POPI    C110819  14.063  14.941   5.671  0.0141 -0.0617  0.0755
  701POPI    C210820  13.727  15.143   5.591 -0.1153 -0.2603  0.1093
  701POPI    C310821  14.063  15.223   5.388 -0.1532  0.0167  0.1526
  701POPI   PO410822  14.076  14.994   5.952 -0.2197 -0.1270 -0.0102
  701POPI   GL110823  13.968  14.931   6.407 -0.1551  0.0486 -0.0608
  701POPI   GL210824  13.686  14.649   6.565 -0.2298  0.0103  0.0536
  701POPI   C1A10825  14.135  14.933   6.818 -0.1847  0.1445  0.5027
  701POPI   D2A10826  14.017  14.797   7.146 -0.3090  0.1285  0.0853
  701POPI   C3A10827  13.965  14.544   7.455 -0.3295 -0.0870 -0.2040
  701POPI   C4A10828  13.681  14.206   7.734  0.1687 -0.3466 -0.0896
  701POPI   C1B10829  13.454  14.664   6.930  0.1883  0.0204 -0.0561
  701POPI   C2B10830  13.015  14.853   7.106  0.0685  0.1640 -0.1406
  701POPI   C3B10831  12.788  15.172   7.221  0.1551  0.1206  0.1601
  701POPI   C4B10832  12.582  15.526   7.085 -0.6348  0.3269 -0.1089
  702POPI    C110833  18.274  16.674   5.844 -0.0845  0.0919  0.1212
  702POPI    C210834  18.417  16.812   5.497 -0.2721  0.1274  0.0568
  702POPI    C310835  18.242  16.453   5.513  0.0099 -0.0080  0.1781
  702POPI   PO410836  18.291  16.949   6.006  0.2447  0.3363  0.0878
  702POPI   GL110837  18.217  16.963   6.456  0.0247  0.1480 -0.2370
  702POPI   GL210838  18.536  17.119   6.485 -0.0614 -0.2169 -0.0101
  702POPI   C1A10839  18.361  16.968   6.912  0.0382 -0.2923  0.0450
  702POPI   D2A10840  18.532  17.124   7.248  0.0171 -0.3038  0.1122
  702POPI   C3A10841  18.424  17.276   7.634 -0.0557  0.0123  0.2870
  702POPI   C4A10842  18.286  17.512   7.892 -0.0319 -0.1559  0.0172
  702POPI   C1B10843  18.667  17.349   6.804  0.1767  0.2084  0.0184
  702POPI   C2B10844  18.700  17.618   7.201 -0.1461 -0.1125 -0.0148
  702POPI   C3B10845  19.082  17.793   7.364 -0.0691  0.2866 -0.3302
  702POPI   C4B10846  19.187  17.880   7.744 -0.0596 -0.3144 -0.3961
  703POPI    C110847  12.275   8.286   5.631  0.0403 -0.2357  0.2842
  703POPI    C210848  12.271   7.987   5.365 -0.1223  0.1650 -0.1792
  703POPI    C310849  11.930   8.105   5.539 -0.0048 -0.1505  0.2846
  703POPI   PO410850  12.479   8.151   5.814  0.3453 -0.0147  0.4057
  703POPI   GL110851  12.647   8.332   6.261  0.0113  0.0393 -0.1468
  703POPI   GL210852  12.365   8.471   6.415  0.1579  0.0795 -0.2788
  703POPI   C1A10853  12.885   8.493   6.545  0.1822  0.1268  0.0102
  703POPI   D2A10854  12.954   8.684   7.071 -0.0073 -0.0824 -0.1595
  703POPI   C3A10855  12.698   8.478   7.266  0.1467  0.2967  0.1415
  703POPI   C4A10856  12.917   8.210   7.632  0.0545  0.0234 -0.0626
  703POPI   C1B10857  12.292   8.506   6.858  0.0302  0.1022  0.0018
  703POPI   C2B10858  12.183   8.557   7.199  0.2268 -0.2860  0.1529
  703POPI   C3B10859  12.198   8.471   7.673 -0.2310 -0.0662 -0.1529
  703POPI   C4B10860  12.177   8.217   8.042  0.1001  0.2644  0.0337
  704POPI    C110861   1.443   6.123   6.022 -0.2597 -0.1086  0.0340
  704POPI    C210862   1.652   6.293   6.318 -0.2043  0.0345 -0.0861
  704POPI    C310863   1.800   6.288   5.946 -0.1877 -0.3128 -0.0778
  704POPI   PO410864   1.370   5.884   6.197 -0.0205  0.1683 -0.0751
  704POPI   GL110865   1.288   5.686   6.639  0.3454  0.1921  0.0816
  704POPI   GL210866   1.515   5.857   6.659 -0.1244  0.3375  0.0646
  704POPI   C1A10867   1.087   5.800   7.016 -0.1015  0.2689 -0.1611
  704POPI   D2A10868   0.985   5.921   7.352  0.0247 -0.0353 -0.3699
  704POPI   C3A10869   0.691   5.612   7.543  0.2640 -0.0587  0.3660
  704POPI   C4A10870   0.538   5.300   7.846  0.4455 -0.1271 -0.0478
  704POPI   C1B10871   1.610   5.641   7.114 -0.1512  0.0238  0.2541
  704POPI   C2B10872   1.266   5.523   7.505 -0.3057 -0.0654  0.0080
  704POPI   C3B10873   1.043   5.436   7.880  0.1643 -0.0617 -0.1195
  704POPI   C4B10874   0.846   5.222   8.247 -0.3958  0.1801  0.1657
  705POPI    C110875   3.977   8.263   5.650  0.0050  0.0238  0.2045
  705POPI    C210876   3.717   7.961   5.689 -0.0196  0.0122 -0.0342
  705POPI    C310877   3.614   8.289   5.485  0.0444  0.1394  0.1348
  705POPI   PO410878   4.084   8.226   5.938  0.2114 -0.0263  0.1010
  705POPI   GL110879   4.015   8.052   6.324  0.1651  0.3195  0.1269
  705POPI   GL210880   3.821   7.798   6.556  0.1263  0.2575  0.3058
  705POPI   C1A10881   3.782   8.289   6.596  0.1988 -0.0860  0.1683
  705POPI   D2A10882   3.658   8.351   6.996  0.3370 -0.0262 -0.2337
  705POPI   C3A10883   3.586   7.981   7.226 -0.0004 -0.0730 -0.0783
  705POPI   C4A10884   3.537   7.659   7.326 -0.0237  0.0069 -0.1155
  705POPI   C1B10885   3.998   8.013   6.951 -0.1555 -0.2560 -0.3539
  705POPI   C2B10886   4.055   7.979   7.348 -0.2777 -0.2558  0.0734
  705POPI   C3B10887   4.200   7.758   7.688  0.1671 -0.2850 -0.0703
  705POPI   C4B10888   4.451   7.723   7.946 -0.1471  0.1083  0.1137
  706POPI    C110889  16.251  10.718   5.414 -0.1925 -0.1877  0.0193
  706POPI    C210890  16.084  10.391   5.257 -0.2169 -0.0564 -0.2335
  706POPI    C310891  16.229  10.676   5.017 -0.4238  0.2353 -0.0188
  706POPI   PO410892  16.121  10.701   5.663  0.3430 -0.0376 -0.0821
  706POPI   GL110893  16.135  10.738   6.044  0.0664 -0.1170  0.1395
  706POPI   GL210894  15.884  10.746   6.129 -0.1750  0.2152  0.2222
  706POPI   C1A10895  16.192  10.647   6.509 -0.1179 -0.0029  0.2863
  706POPI   D2A10896  16.126  10.593   6.920  0.0675  0.2684  0.0996
  706POPI   C3A10897  16.279  10.846   7.268  0.4307 -0.0032  0.3138
  706POPI   C4A10898  16.209  11.263   7.220 -0.1421  0.1643  0.0923
  706POPI   C1B10899  15.718  10.710   6.475 -0.3321 -0.0457 -0.1862
  706POPI   C2B10900  15.644  10.506   6.935  0.4087  0.4009 -0.1966
  706POPI   C3B10901  15.556  10.392   7.332 -0.1892 -0.2730  0.1309
  706POPI   C4B10902  15.444  10.216   7.679 -0.0506 -0.0185 -0.1221
  707POPI    C110903   0.039   8.203   5.887  0.0693  0.0993 -0.0818
  707POPI    C210904  -0.242   8.483   5.837  0.0869  0.0994 -0.1835
  707POPI    C310905   0.098   8.502   5.628  0.0852 -0.0015 -0.1958
  707POPI   PO410906  -0.140   7.917   5.899  0.0750 -0.2472  0.0831
  707POPI   GL110907  -0.140   7.692   6.272  0.1662  0.0993  0.2356
  707POPI   GL210908  -0.376   7.944   6.389  0.0727 -0.0115 -0.4484
  707POPI   C1A10909  -0.205   7.336   6.566 -0.2179 -0.0661 -0.3113
  707POPI   D2A10910  -0.051   7.015   6.765  0.1726  0.2306 -0.0335
  707POPI   C3A10911   0.034   6.847   7.219  0.0515 -0.1691 -0.3121
  707POPI   C4A10912   0.259   7.002   7.559 -0.0339 -0.1704 -0.1388
  707POPI   C1B10913  -0.339   7.802   6.692  0.0676 -0.0388  0.0517
  707POPI   C2B10914  -0.219   7.643   6.961 -0.0497 -0.1532  0.3772
  707POPI   C3B10915  -0.076   7.342   7.357  0.1712  0.1666  0.0826
  707POPI   C4B10916  -0.252   6.945   7.609 -0.0124 -0.3286  0.0309
  708POPI    C110917   6.977  12.514   5.864 -0.0092 -0.0455 -0.0124
  708POPI    C210918   7.109  12.446   5.493  0.1790 -0.0115  0.0473
  708POPI    C310919   7.062  12.141   5.747 -0.2806 -0.0793 -0.1095
  708POPI   PO410920   6.784  12.818   5.838  0.0982  0.0858 -0.1146
  708POPI   GL110921   6.584  12.875   6.172  0.3152  0.2123  0.2982
  708POPI   GL210922   6.862  13.065   6.244  0.1108  0.0722 -0.1189
  708POPI   C1A10923   6.482  12.596   6.521 -0.0724  0.1092  0.0552
  708POPI   D2A10924   6.564  12.389   6.945 -0.2431  0.2970 -0.0629
  708POPI   C3A10925   6.880  12.169   7.102 -0.0060 -0.2034  0.0427
  708POPI   C4A10926   7.059  12.109   7.418  0.0577 -0.0107 -0.3865
  708POPI   C1B10927   6.798  12.955   6.715 -0.0316  0.0085 -0.3184
  708POPI   C2B10928   6.632  12.946   7.146 -0.4228 -0.2554  0.1471
  708POPI   C3B10929   6.531  13.034   7.565  0.0244  0.1996  0.2407
  708POPI   C4B10930   6.487  13.159   7.855 -0.1063 -0.1029 -0.0291
  709POPI    C110931  13.321   3.222   5.896  0.0517 -0.1982  0.0386
  709POPI    C210932  13.629   2.970   5.939  0.1185 -0.1444 -0.1169
  709POPI    C310933  13.445   3.003   5.585 -0.1752 -0.2996  0.0169
  709POPI   PO410934  13.448   3.479   5.965 -0.0994  0.2156  0.2017
  709POPI   GL110935  13.459   3.571   6.387 -0.2254  0.1133 -0.0135
  709POPI   GL210936  13.501   3.208   6.401  0.0123  0.0797 -0.2299
  709POPI   C1A10937  13.271   3.700   6.670 -0.1816 -0.2042  0.0901
  709POPI   D2A10938  13.346   3.536   7.052  0.0022  0.2518 -0.1280
  709POPI   C3A10939  13.083   3.383   7.385 -0.1652  0.0124 -0.0262
  709POPI   C4A10940  12.742   3.506   7.657  0.2709  0.0488  0.2447
  709POPI   C1B10941  13.402   3.074   6.834  0.1050 -0.0553  0.1344
  709POPI   C2B10942  13.445   2.621   7.151  0.0855  0.3144 -0.0705
  709POPI   C3B10943  13.437   2.602   7.573  0.2726 -0.2516 -0.0344
  709POPI   C4B10944  13.667   2.670   7.864  0.0847  0.1536  0.0509
  710POPI    C110945  10.225  17.268   5.728  0.0118  0.0739  0.1130
  710POPI    C210946   9.930  17.503   5.861 -0.0531  0.1646 -0.1846
  710POPI    C310947  10.013  17.488   5.470  0.2136 -0.0051 -0.1239
  710POPI   PO410948  10.433  17.316   5.941 -0.0068  0.0538 -0.2555
  710POPI   GL110949  10.267  17.440   6.364 -0.0392 -0.1310 -0.3714
  710POPI   GL210950  10.414  17.705   6.200  0.0526  0.1293 -0.0887
  710POPI   C1A10951  10.506  17.239   6.774  0.0217  0.2555  0.2289
  710POPI   D2A10952  10.453  17.153   7.159 -0.1014  0.0972  0.0085
  710POPI   C3A10953  10.633  17.432   7.470 -0.4053  0.0062 -0.1352
  710POPI   C4A10954  10.693  17.508   7.921  0.1975  0.0849  0.1865
  710POPI   C1B10955  10.665  17.762   6.659  0.1564 -0.2677  0.0964
  710POPI   C2B10956  10.804  17.709   6.978 -0.2505 -0.2421 -0.1982
  710POPI   C3B10957  11.031  17.828   7.300 -0.0817 -0.4488  0.1985
  710POPI   C4B10958  10.801  17.891   7.624  0.1732 -0.1007  0.2136
  711POPI    C110959   6.372   0.157   5.812 -0.0087  0.3267 -0.0442
  711POPI    C210960   6.443   0.124   5.419  0.0961  0.1354 -0.0103
  711POPI    C310961   6.266   0.453   5.563 -0.1339  0.1178 -0.2438
  711POPI   PO410962   6.168  -0.007   5.885 -0.2171 -0.2304 -0.1882
  711POPI   GL110963   5.955  -0.122   6.183  0.3004 -0.0562 -0.0621
  711POPI   GL210964   5.805   0.159   6.209  0.1040 -0.0314  0.1483
  711POPI   C1A10965   5.994  -0.379   6.539 -0.0184 -0.0787  0.2651
  711POPI   D2A10966   6.096  -0.366   6.985 -0.1452 -0.1326  0.3057
  711POPI   C3A10967   6.043  -0.244   7.436 -0.0334 -0.0023 -0.0603
  711POPI   C4A10968   6.130  -0.097   7.946  0.1750 -0.2452  0.2197
  711POPI   C1B10969   5.807   0.056   6.609  0.1610  0.1441 -0.3339
  711POPI   C2B10970   5.723   0.104   7.023 -0.1059 -0.1651 -0.3376
  711POPI   C3B10971   5.597  -0.085   7.356 -0.3439  0.1098 -0.2599
  711POPI   C4B10972   5.269  -0.244   7.625  0.2594 -0.1047 -0.0267
  712POPI    C110973   6.049   2.174   5.315  0.0698  0.0290  0.0478
  712POPI    C210974   6.206   2.539   5.262  0.0332  0.0145 -0.1670
  712POPI    C310975   5.809   2.492   5.283  0.0350 -0.0216 -0.2109
  712POPI   PO410976   5.978   2.006   5.584 -0.1534 -0.1702  0.2016
  712POPI   GL110977   5.974   2.030   6.105  0.1975 -0.1552 -0.1379
  712POPI   GL210978   5.762   2.288   6.204 -0.7692 -0.1655  0.0370
  712POPI   C1A10979   6.072   1.857   6.531  0.2974  0.0851  0.2058
  712POPI   D2A10980   6.205   1.874   6.989  0.0203  0.4708  0.1227
  712POPI   C3A10981   5.988   2.000   7.396 -0.1513  0.1665 -0.0800
  712POPI   C4A10982   6.201   2.187   7.726  0.0042 -0.2233 -0.0975
  712POPI   C1B10983   5.869   2.314   6.545  0.0106  0.0067 -0.1566
  712POPI   C2B10984   6.195   2.301   6.802  0.2909 -0.6763 -0.3418
  712POPI   C3B10985   6.516   2.567   6.741  0.0479  0.2160  0.0650
  712POPI   C4B10986   6.704   2.927   6.580  0.1123 -0.5039  0.0999
  713POPI    C110987  13.432  15.835   5.824  0.0476 -0.1684 -0.2178
  713POPI    C210988  13.439  16.235   5.821  0.2145 -0.1598  0.2940
  713POPI    C310989  13.143  16.039   5.636  0.0979  0.1985  0.0890
  713POPI   PO410990  13.493  15.779   6.084  0.2512 -0.0355  0.1882
  713POPI   GL110991  13.609  15.937   6.449 -0.1151  0.0543  0.1464
  713POPI   GL210992  13.817  15.590   6.512 -0.1624  0.0699 -0.0510
  713POPI   C1A10993  13.636  16.194   6.720 -0.0896  0.0575  0.2967
  713POPI   D2A10994  13.660  16.367   7.100  0.1573 -0.1166  0.1393
  713POPI   C3A10995  14.008  16.296   7.344 -0.0890 -0.1223  0.2348
  713POPI   C4A10996  14.135  16.403   7.633  0.1634  0.0197  0.1682
  713POPI   C1B10997  13.589  15.624   6.880  0.4077  0.2964 -0.0364
  713POPI   C2B10998  13.377  15.944   7.108 -0.0792  0.0872  0.0646
  713POPI   C3B10999  13.371  15.999   7.601 -0.0200  0.0436  0.4472
  713POPI   C4B11000  13.772  15.976   7.763  0.3653  0.1822 -0.2794
  714POPI    C111001  12.270  10.768   5.414  0.2312 -0.0770  0.1670
  714POPI    C211002  12.012  10.556   5.634  0.1551  0.0025  0.1543
  714POPI    C311003  11.920  10.656   5.257  0.0299  0.3760  0.2799
  714POPI   PO411004  12.347  11.042   5.602 -0.0168  0.0870  0.0510
  714POPI   GL111005  12.500  11.406   5.881 -0.2037  0.0977 -0.1566
  714POPI   GL211006  12.154  11.406   5.938 -0.1471 -0.0589 -0.1514
  714POPI   C1A11007  12.545  11.237   6.404 -0.0209  0.2317 -0.0473
  714POPI   D2A11008  12.664  11.286   6.826 -0.0089 -0.0498 -0.1382
  714POPI   C3A11009  13.113  11.295   6.954 -0.0152 -0.3136  0.0717
  714POPI   C4A11010  13.413  11.011   7.190 -0.4097  0.1957 -0.1149
  714POPI   C1B11011  12.240  11.662   6.262  0.1075  0.2104 -0.2094
  714POPI   C2B11012  12.383  11.673   6.749 -0.1814  0.2727 -0.4268
  714POPI   C3B11013  12.313  11.730   7.239  0.2382  0.1468 -0.2552
  714POPI   C4B11014  12.296  11.642   7.645 -0.0557 -0.3058  0.1350
  715POPI    C111015   6.506  17.613   5.447  0.1230  0.1430 -0.0287
  715POPI    C211016   6.719  17.294   5.334 -0.0134  0.1092 -0.1954
  715POPI    C311017   6.905  17.634   5.431  0.1234  0.0347 -0.1940
  715POPI   PO411018   6.230  17.473   5.636  0.1673  0.4050 -0.2410
  715POPI   GL111019   6.333  17.200   5.874 -0.2975  0.3721 -0.1069
  715POPI   GL211020   6.596  16.941   6.137 -0.0608 -0.0848  0.0251
  715POPI   C1A11021   6.333  17.414   6.257 -0.1262  0.0305 -0.1164
  715POPI   D2A11022   6.424  17.703   6.535  0.0586  0.1684 -0.2949
  715POPI   C3A11023   6.409  17.562   6.989  0.1285  0.1766  0.2107
  715POPI   C4A11024   6.472  17.146   7.268  0.2871  0.0238 -0.0777
  715POPI   C1B11025   6.802  16.732   6.459  0.2470 -0.1336 -0.4296
  715POPI   C2B11026   6.898  16.878   6.904  0.1917 -0.0794  0.5147
  715POPI   C3B11027   6.889  17.346   7.026  0.2561 -0.2589  0.0150
  715POPI   C4B11028   6.916  17.667   6.852 -0.0502 -0.1193 -0.0754
  716POPI    C111029   9.997  14.437   5.278  0.0570  0.0003  0.1988
  716POPI    C211030   9.603  14.391   5.224  0.0746 -0.0248  0.0912
  716POPI    C311031   9.858  14.305   4.927  0.1513  0.1359  0.1092
  716POPI   PO411032   9.979  14.697   5.336 -0.4063 -0.2572  0.2331
  716POPI   GL111033  10.105  15.014   5.610  0.1362  0.2010 -0.0135
  716POPI   GL211034   9.777  15.185   5.704  0.0850  0.0123 -0.3594
  716POPI   C1A11035  10.069  14.817   6.017 -0.3147 -0.0993  0.1892
  716POPI   D2A11036  10.154  14.724   6.428 -0.1367 -0.3464  0.1020
  716POPI   C3A11037  10.550  14.725   6.625 -0.2487 -0.0202  0.0725
  716POPI   C4A11038  10.786  14.849   6.934 -0.0640  0.0752 -0.2842
  716POPI   C1B11039   9.643  15.106   6.101  0.1649 -0.0070  0.2195
  716POPI   C2B11040   9.412  15.270   6.318 -0.2437 -0.0236  0.1232
  716POPI   C3B11041   9.100  15.196   6.718 -0.0670 -0.1270 -0.0507
  716POPI   C4B11042   8.839  15.063   7.021 -0.3721  0.1330 -0.2864
  717POPI    C111043   9.968  16.435   5.651  0.3800 -0.0529  0.1135
  717POPI    C211044  10.242  16.537   5.378  0.0075  0.0816 -0.2193
  717POPI    C311045   9.870  16.446   5.264 -0.0701 -0.1790  0.2186
  717POPI   PO411046  10.020  16.344   5.849  0.2873 -0.1161 -0.2688
  717POPI   GL111047  10.049  15.992   6.101 -0.0350  0.0308 -0.0034
  717POPI   GL211048  10.317  16.066   6.218 -0.2361  0.2058 -0.2591
  717POPI   C1A11049   9.884  15.951   6.448 -0.0336 -0.2753  0.1092
  717POPI   D2A11050   9.758  15.901   6.814  0.0265  0.1888  0.2633
  717POPI   C3A11051   9.738  15.737   7.116  0.1698  0.1690  0.2016
  717POPI   C4A11052   9.429  15.695   7.436  0.1083  0.3782 -0.1368
  717POPI   C1B11053  10.356  15.840   6.589 -0.2886  0.1344 -0.0690
  717POPI   C2B11054  10.229  15.641   6.846  0.0197 -0.2720  0.0816
  717POPI   C3B11055  10.225  15.537   7.265 -0.0094 -0.2346  0.0592
  717POPI   C4B11056   9.947  15.629   7.547  0.0263 -0.1146  0.1443
  718POPI    C111057   1.493  16.859   5.853 -0.1936  0.0146 -0.0738
  718POPI    C211058   1.399  17.048   5.513 -0.3154 -0.0429 -0.0726
  718POPI    C311059   1.422  16.649   5.520 -0.1024 -0.0314 -0.0643
  718POPI   PO411060   1.353  16.980   6.026 -0.1488  0.2791 -0.1273
  718POPI   GL111061   1.373  16.941   6.438 -0.3486 -0.1532 -0.1459
  718POPI   GL211062   1.163  16.658   6.455 -0.3056 -0.3711  0.2262
  718POPI   C1A11063   1.306  17.150   6.871 -0.0017  0.2847 -0.1937
  718POPI   D2A11064   1.368  17.089   7.270  0.0910  0.2842 -0.2121
  718POPI   C3A11065   1.005  16.933   7.644  0.0737 -0.0552  0.1449
  718POPI   C4A11066   0.797  16.835   7.993  0.1141 -0.0825  0.0169
  718POPI   C1B11067   0.974  16.762   6.780  0.2576 -0.0044  0.0914
  718POPI   C2B11068   0.989  16.678   7.217 -0.1241  0.0519 -0.2922
  718POPI   C3B11069   1.160  16.484   7.641  0.2225  0.3189 -0.1779
  718POPI   C4B11070   1.369  16.694   7.873 -0.1725  0.2221  0.0557
  719POPI    C111071   0.112  11.999   5.463 -0.0480 -0.2040  0.2428
  719POPI    C211072   0.395  11.732   5.558  0.5357  0.2670 -0.0965
  719POPI    C311073   0.250  11.745   5.186  0.0213  0.0036  0.0844
  719POPI   PO411074   0.140  12.075   5.755 -0.1145  0.0893 -0.3561
  719POPI   GL111075  -0.074  12.045   6.115  0.0255 -0.1732 -0.0692
  719POPI   GL211076   0.187  12.179   6.336  0.0793 -0.1245 -0.2822
  719POPI   C1A11077  -0.511  11.948   6.316 -0.0309 -0.0868 -0.0095
  719POPI   D2A11078  -0.760  11.880   6.714  0.1000  0.2542 -0.1185
  719POPI   C3A11079  -0.783  11.706   7.073 -0.2761  0.0854 -0.1609
  719POPI   C4A11080  -0.779  11.354   7.403 -0.1189 -0.4013 -0.4472
  719POPI   C1B11081   0.146  12.123   6.753  0.1813  0.5164  0.0666
  719POPI   C2B11082   0.002  12.131   7.176  0.2232  0.1611 -0.0833
  719POPI   C3B11083  -0.319  12.239   7.632  0.1916  0.4716  0.1023
  719POPI   C4B11084  -0.358  11.888   7.981 -0.0321 -0.3520  0.1099
  720POPI    C111085   0.872  12.506   5.592 -0.1374  0.0136  0.2100
  720POPI    C211086   0.547  12.282   5.530 -0.2125  0.1111  0.2503
  720POPI    C311087   0.567  12.653   5.380  0.0152 -0.0108 -0.0308
  720POPI   PO411088   0.982  12.386   5.840 -0.0771 -0.0618 -0.0552
  720POPI   GL111089   0.883  12.309   6.287  0.2390  0.0469  0.1447
  720POPI   GL211090   0.836  12.607   6.266 -0.0628  0.1695 -0.1671
  720POPI   C1A11091   0.609  12.268   6.677  0.0762 -0.2172  0.0481
  720POPI   D2A11092   0.493  12.226   7.096  0.1295 -0.1996 -0.0859
  720POPI   C3A11093   0.519  12.014   7.460  0.2333  0.2053  0.0124
  720POPI   C4A11094   0.545  11.840   7.823  0.0151 -0.0003  0.2975
  720POPI   C1B11095   0.711  12.772   6.679  0.1822 -0.1663  0.1812
  720POPI   C2B11096   0.779  12.742   7.138 -0.3162  0.2254  0.1158
  720POPI   C3B11097   0.648  12.513   7.517  0.0710  0.0278 -0.2013
  720POPI   C4B11098   0.730  12.284   7.835  0.0677  0.0393  0.1683
  721POPI    C111099   3.991   2.144   5.838  0.0942 -0.0151 -0.0898
  721POPI    C211100   3.769   1.817   5.782  0.0757 -0.0208  0.0160
  721POPI    C311101   4.081   1.890   5.543  0.1287 -0.1574  0.0424
  721POPI   PO411102   4.040   2.124   6.120  0.1973  0.1259  0.1678
  721POPI   GL111103   4.291   1.960   6.499 -0.0537  0.4181  0.0593
  721POPI   GL211104   3.995   1.792   6.570 -0.0183  0.2401 -0.0308
  721POPI   C1A11105   4.497   1.971   6.967 -0.5096  0.0100 -0.5808
  721POPI   D2A11106   4.839   2.115   7.120 -0.1591  0.0897 -0.3944
  721POPI   C3A11107   4.789   2.247   7.533 -0.1202 -0.0583  0.0375
  721POPI   C4A11108   4.750   2.385   7.965  0.1190 -0.2847 -0.3529
  721POPI   C1B11109   4.072   1.738   7.000 -0.0324 -0.1386  0.0895
  721POPI   C2B11110   4.315   1.763   7.419  0.1042  0.0031  0.2145
  721POPI   C3B11111   4.457   1.463   7.728  0.4062  0.0651 -0.2216
  721POPI   C4B11112   4.495   1.611   8.191  0.2594 -0.1523  0.2356
  722POPI    C111113  17.072   9.990   5.795  0.1247  0.1166 -0.2170
  722POPI    C211114  17.007   9.763   6.118  0.2547  0.3025 -0.0574
  722POPI    C311115  16.934   9.617   5.752 -0.0788  0.1564  0.0636
  722POPI   PO411116  16.943  10.291   5.836 -0.0055  0.1810  0.3381
  722POPI   GL111117  16.614  10.400   6.163  0.0029  0.1019  0.0950
  722POPI   GL211118  16.417  10.270   6.258 -0.2946  0.0008 -0.2311
  722POPI   C1A11119  16.719  10.519   6.550 -0.2066 -0.0900 -0.2405
  722POPI   D2A11120  16.843  10.421   6.846  0.2515 -0.0096  0.1369
  722POPI   C3A11121  17.254  10.316   6.758 -0.0601  0.4401 -0.0636
  722POPI   C4A11122  17.680  10.541   6.853  0.1935 -0.0183 -0.2777
  722POPI   C1B11123  16.750  10.057   6.445  0.1772  0.1339  0.1033
  722POPI   C2B11124  16.948   9.907   6.820 -0.3380 -0.0604 -0.1513
  722POPI   C3B11125  16.901  10.101   7.231  0.3660 -0.0972  0.0321
  722POPI   C4B11126  17.081  10.383   7.519 -0.0031  0.0156 -0.0919
  723POPI    C111127   0.943   7.950   5.863 -0.1357 -0.1486 -0.0667
  723POPI    C211128   0.771   7.757   5.558 -0.0300 -0.0078 -0.2172
  723POPI    C311129   0.970   8.098   5.493  0.2285 -0.1198 -0.0320
  723POPI   PO411130   0.748   7.988   6.116  0.0865 -0.0961  0.1906
  723POPI   GL111131   0.804   8.170   6.527 -0.1458 -0.1001  0.1814
  723POPI   GL211132   1.000   7.922   6.622  0.2385 -0.1012  0.1210
  723POPI   C1A11133   0.860   8.521   6.825  0.1674 -0.0950  0.1618
  723POPI   D2A11134   1.181   8.614   7.075 -0.0072 -0.0836  0.0074
  723POPI   C3A11135   1.253   8.809   7.479  0.1339 -0.0034  0.1384
  723POPI   C4A11136   1.039   8.712   7.762 -0.0218 -0.3124 -0.0573
  723POPI   C1B11137   0.748   8.022   6.972  0.0942  0.1123  0.2575
  723POPI   C2B11138   0.890   8.313   7.397 -0.1336 -0.2226  0.0112
  723POPI   C3B11139   0.983   8.202   7.844  0.4872 -0.3486 -0.2420
  723POPI   C4B11140   0.917   8.434   8.223  0.0328 -0.0380  0.0637
  724POPI    C111141  10.794   6.979   5.792 -0.2431  0.0086  0.0268
  724POPI    C211142  10.960   6.991   5.428  0.0137 -0.1017  0.1375
  724POPI    C311143  10.747   7.303   5.561  0.0309 -0.0065 -0.0538
  724POPI   PO411144  10.695   6.725   5.807 -0.1018 -0.0073  0.3551
  724POPI   GL111145  10.589   6.423   6.125  0.1365  0.1572  0.4039
  724POPI   GL211146  10.417   6.716   6.183 -0.2621 -0.2514  0.1132
  724POPI   C1A11147  10.636   6.424   6.556 -0.2596 -0.1561 -0.0894
  724POPI   D2A11148  10.974   6.494   6.782  0.2447  0.3103  0.3490
  724POPI   C3A11149  11.316   6.165   6.891 -0.2762  0.0489  0.1228
  724POPI   C4A11150  11.573   6.022   7.176 -0.1712  0.1056  0.1686
  724POPI   C1B11151  10.220   6.749   6.496  0.1928 -0.3235  0.2735
  724POPI   C2B11152  10.202   6.809   6.904 -0.2652  0.0297  0.2491
  724POPI   C3B11153  10.178   6.908   7.274  0.0290  0.0909  0.1036
  724POPI   C4B11154  10.363   6.639   7.529  0.0125  0.3037 -0.0475
  725POPI    C111155   9.235   7.602   5.270  0.0435 -0.1695  0.0666
  725POPI    C211156   9.189   7.999   5.254  0.0103 -0.1752  0.0171
  725POPI    C311157   9.513   7.828   5.092  0.1758 -0.1410  0.3050
  725POPI   PO411158   9.161   7.514   5.538 -0.0078  0.0763  0.0150
  725POPI   GL111159   9.001   7.484   5.887 -0.0398  0.1192  0.0735
  725POPI   GL211160   8.643   7.289   5.952 -0.0307  0.2461  0.1291
  725POPI   C1A11161   8.987   7.389   6.312 -0.1904 -0.1215  0.1425
  725POPI   D2A11162   8.839   7.321   6.750  0.0999  0.4787  0.2922
  725POPI   C3A11163   9.035   7.386   7.077 -0.0132 -0.0589 -0.0832
  725POPI   C4A11164   9.170   7.467   7.434  0.0874  0.0201  0.3148
  725POPI   C1B11165   8.509   7.266   6.366  0.1945  0.2812 -0.3126
  725POPI   C2B11166   8.238   7.228   6.649 -0.3398  0.3152  0.1065
  725POPI   C3B11167   8.069   7.094   7.082 -0.2296  0.1945 -0.0613
  725POPI   C4B11168   8.288   6.927   7.368 -0.3044 -0.0896 -0.0081
  726POPI    C111169   5.267   3.473   5.722  0.1290 -0.0634  0.1084
  726POPI    C211170   5.593   3.532   5.497 -0.0406 -0.0093 -0.1267
  726POPI    C311171   5.291   3.311   5.357 -0.2811  0.2829 -0.0806
  726POPI   PO411172   5.375   3.542   6.033 -0.1843 -0.1910  0.0402
  726POPI   GL111173   5.681   3.521   6.250 -0.1808 -0.0333 -0.0896
  726POPI   GL211174   6.011   3.506   6.239  0.2824  0.3020  0.2506
  726POPI   C1A11175   5.565   4.019   6.442  0.1640  0.2305 -0.0495
  726POPI   D2A11176   5.757   4.299   6.847 -0.0121  0.1824  0.0208
  726POPI   C3A11177   5.862   4.256   7.319  0.1083  0.0466  0.2733
  726POPI   C4A11178   6.251   4.342   7.483 -0.2588  0.1366  0.1766
  726POPI   C1B11179   5.867   3.307   6.668  0.0764  0.1341 -0.1167
  726POPI   C2B11180   5.865   3.225   7.127  0.2178  0.0036  0.0800
  726POPI   C3B11181   5.855   3.614   7.400 -0.1939 -0.0799  0.2248
  726POPI   C4B11182   5.528   3.824   7.305  0.2101 -0.0451 -0.1115
  727POPI    C111183   9.816  12.703   5.185 -0.1990 -0.1789 -0.2599
  727POPI    C211184   9.985  12.453   5.447  0.0847  0.1193 -0.1515
  727POPI    C311185  10.078  12.428   5.059 -0.0086 -0.0436 -0.1643
  727POPI   PO411186   9.734  12.893   5.405 -0.1204  0.0886  0.0429
  727POPI   GL111187   9.796  12.786   5.771  0.2828  0.1267  0.0683
  727POPI   GL211188   9.643  12.882   6.042  0.1758  0.3160  0.0203
  727POPI   C1A11189   9.828  12.351   5.974  0.1221 -0.0731  0.0643
  727POPI   D2A11190   9.916  12.009   6.234  0.0941 -0.1670  0.0909
  727POPI   C3A11191  10.162  11.934   6.628  0.1380 -0.0987  0.1064
  727POPI   C4A11192  10.152  11.679   6.939 -0.0691  0.1078  0.2763
  727POPI   C1B11193   9.661  12.962   6.496 -0.1606 -0.1547 -0.0131
  727POPI   C2B11194   9.571  12.869   6.908 -0.0580  0.2728  0.1391
  727POPI   C3B11195   9.616  12.512   7.318 -0.0985 -0.4080  0.0500
  727POPI   C4B11196   9.660  12.354   7.750 -0.1128 -0.0555  0.2805
  728POPI    C111197  13.342  10.997   5.898  0.1074  0.1774 -0.1351
  728POPI    C211198  13.168  10.956   5.541  0.2155 -0.1649 -0.1513
  728POPI    C311199  13.549  11.074   5.565  0.0681  0.3251 -0.1261
  728POPI   PO411200  13.326  10.811   6.017 -0.0103 -0.1321 -0.1872
  728POPI   GL111201  13.002  10.587   6.158  0.3729  0.0838 -0.0406
  728POPI   GL211202  13.228  10.286   6.134 -0.4356 -0.0578 -0.0306
  728POPI   C1A11203  13.066  10.436   6.623  0.4393 -0.1416  0.0236
  728POPI   D2A11204  13.162  10.281   6.999  0.1489 -0.1167 -0.3719
  728POPI   C3A11205  13.211  10.521   7.388  0.0467  0.2238  0.3257
  728POPI   C4A11206  13.405  10.669   7.727 -0.0373 -0.0907 -0.1082
  728POPI   C1B11207  13.515  10.237   6.626  0.0885  0.1693  0.0698
  728POPI   C2B11208  13.735  10.208   7.063 -0.0033  0.0158 -0.1969
  728POPI   C3B11209  13.465  10.109   7.396 -0.1700  0.0429 -0.0788
  728POPI   C4B11210  13.426   9.730   7.645 -0.1861  0.0099  0.4371
  729POPI    C111211  14.869  13.303   6.150  0.2267  0.0362 -0.0643
  729POPI    C211212  14.808  13.389   5.764 -0.2290  0.1922  0.0355
  729POPI    C311213  14.534  13.180   5.967  0.0816 -0.0269  0.2375
  729POPI   PO411214  14.920  13.429   6.259 -0.1681  0.0507 -0.0542
  729POPI   GL111215  14.900  13.770   6.499  0.2842 -0.0041  0.0227
  729POPI   GL211216  15.195  13.754   6.576 -0.0630  0.3595  0.2621
  729POPI   C1A11217  14.612  13.613   6.771  0.2180 -0.1892  0.2117
  729POPI   D2A11218  14.570  13.450   7.146 -0.1782  0.2428 -0.0817
  729POPI   C3A11219  14.700  13.657   7.403 -0.0063  0.1465 -0.0019
  729POPI   C4A11220  14.488  13.836   7.748 -0.0051  0.1787 -0.0883
  729POPI   C1B11221  15.011  13.834   7.017 -0.1706  0.1691  0.0825
  729POPI   C2B11222  14.988  14.001   7.442 -0.1745 -0.0725  0.1141
  729POPI   C3B11223  14.964  13.886   7.856  0.0204 -0.0376 -0.3555
  729POPI   C4B11224  15.344  13.866   8.137 -0.0282  0.0444 -0.1826
  730POPI    C111225  15.927  13.308   5.636  0.1534  0.2134  0.1615
  730POPI    C211226  15.571  13.280   5.455 -0.0402  0.1479  0.5416
  730POPI    C311227  15.864  13.497   5.290 -0.2033  0.0745  0.1463
  730POPI   PO411228  15.781  13.299   5.923  0.0553 -0.0161 -0.1004
  730POPI   GL111229  15.522  13.059   6.196  0.1410 -0.0877  0.1090
  730POPI   GL211230  15.846  12.842   6.211 -0.1529 -0.1261 -0.0326
  730POPI   C1A11231  15.590  13.146   6.637 -0.2041 -0.1412 -0.0119
  730POPI   D2A11232  15.550  12.968   7.000 -0.2848  0.1091 -0.1751
  730POPI   C3A11233  15.421  12.479   7.164  0.0247  0.0660 -0.1047
  730POPI   C4A11234  15.374  12.214   7.565  0.4640  0.1523  0.0050
  730POPI   C1B11235  15.752  12.650   6.618  0.0366 -0.0458 -0.2591
  730POPI   C2B11236  15.875  12.480   7.009  0.0258  0.0326 -0.0835
  730POPI   C3B11237  15.888  12.202   7.351 -0.1672 -0.1520 -0.2425
  730POPI   C4B11238  15.699  11.858   7.657 -0.0698  0.0996 -0.0243
  731POPI    C111239  11.728  10.135   5.238  0.1436  0.2468  0.0205
  731POPI    C211240  11.388   9.930   5.188  0.1828  0.1134  0.2801
  731POPI    C311241  11.698   9.866   4.944  0.0836  0.1045  0.1551
  731POPI   PO411242  11.611  10.207   5.552  0.0803 -0.4529  0.0225
  731POPI   GL111243  11.713  10.128   5.993  0.2229 -0.3034 -0.0907
  731POPI   GL211244  11.397  10.064   6.040 -0.0327  0.0949  0.2710
  731POPI   C1A11245  11.703   9.976   6.392 -0.5690  0.0196 -0.2673
  731POPI   D2A11246  11.590   9.956   6.850  0.3446 -0.0983 -0.1854
  731POPI   C3A11247  11.763   9.823   7.263  0.0991 -0.0313 -0.1170
  731POPI   C4A11248  11.948   9.661   7.596  0.2219  0.1409  0.1463
  731POPI   C1B11249  11.054   9.896   6.361  0.1584 -0.0765  0.0590
  731POPI   C2B11250  11.118   9.754   6.686 -0.1940  0.0685  0.1530
  731POPI   C3B11251  10.783   9.821   6.991  0.2518 -0.1552  0.0257
  731POPI   C4B11252  10.317   9.699   6.933 -0.1905  0.0879  0.2693
  732POPI    C111253   9.709  12.072   5.219  0.0295 -0.1766 -0.1737
  732POPI    C211254   9.530  12.354   4.999  0.0215 -0.0635 -0.0243
  732POPI    C311255   9.784  12.097   4.827 -0.0257 -0.0107 -0.1745
  732POPI   PO411256   9.537  11.968   5.358  0.0929 -0.1309 -0.0094
  732POPI   GL111257   9.512  11.872   5.746 -0.0512  0.1204 -0.1302
  732POPI   GL211258   9.442  11.562   6.005 -0.1327 -0.0823 -0.1776
  732POPI   C1A11259   9.407  12.103   6.088  0.0511  0.0336 -0.4025
  732POPI   D2A11260   9.505  12.013   6.501 -0.1166 -0.3385  0.0321
  732POPI   C3A11261   9.720  11.695   6.670  0.1064 -0.1623 -0.0824
  732POPI   C4A11262   9.674  11.653   7.084  0.0711  0.2281 -0.2663
  732POPI   C1B11263   9.312  11.580   6.421  0.3804  0.1466 -0.1743
  732POPI   C2B11264   9.387  11.352   6.833 -0.0617  0.2352  0.4001
  732POPI   C3B11265   9.328  11.195   7.168 -0.1987 -0.1341  0.1130
  732POPI   C4B11266   9.406  11.132   7.621 -0.0289  0.0289 -0.1907
  733POPI    C111267  16.232  16.025   6.072 -0.2154 -0.1491  0.1427
  733POPI    C211268  16.310  16.417   6.053 -0.0175 -0.1932  0.0218
  733POPI    C311269  16.013  16.261   5.834  0.1699 -0.1752 -0.2493
  733POPI   PO411270  16.580  15.941   6.039  0.0357 -0.2307 -0.0018
  733POPI   GL111271  16.636  15.588   6.302 -0.0114 -0.0306  0.0294
  733POPI   GL211272  16.642  15.954   6.578  0.0378  0.1842 -0.0137
  733POPI   C1A11273  16.879  15.567   6.713  0.0859 -0.0310  0.1194
  733POPI   D2A11274  16.943  15.468   7.179 -0.1029 -0.2652 -0.1312
  733POPI   C3A11275  17.026  15.268   7.613  0.0692  0.3453 -0.0872
  733POPI   C4A11276  17.413  15.310   7.881 -0.0092 -0.0312  0.2442
  733POPI   C1B11277  16.523  15.746   6.991  0.1847  0.1134 -0.0782
  733POPI   C2B11278  16.518  15.633   7.448  0.2056  0.1073  0.0296
  733POPI   C3B11279  16.939  15.772   7.604  0.1308  0.1802 -0.1637
  733POPI   C4B11280  17.211  15.993   7.884  0.0502 -0.2254 -0.3889
  734POPI    C111281   5.633  10.651   5.737 -0.0374  0.0383  0.0632
  734POPI    C211282   5.830  10.365   5.936  0.0457  0.2514  0.2935
  734POPI    C311283   6.020  10.585   5.661 -0.0033  0.1258  0.1577
  734POPI   PO411284   5.506  10.779   5.980 -0.1472 -0.2499  0.1808
  734POPI   GL111285   5.527  10.904   6.386 -0.1931  0.0101  0.0195
  734POPI   GL211286   5.220  10.945   6.411 -0.0854  0.1727  0.0346
  734POPI   C1A11287   5.808  10.628   6.507  0.0926  0.0701 -0.3440
  734POPI   D2A11288   6.146  10.698   6.902 -0.3110  0.0841 -0.1685
  734POPI   C3A11289   6.175  10.462   7.268  0.1575  0.0766  0.2624
  734POPI   C4A11290   6.361  10.536   7.615  0.2242 -0.1888  0.0984
  734POPI   C1B11291   4.931  11.044   6.735  0.1646 -0.2228  0.1799
  734POPI   C2B11292   4.901  10.771   7.085  0.1900  0.1459  0.2121
  734POPI   C3B11293   4.941  10.697   7.405 -0.0623  0.0103 -0.0340
  734POPI   C4B11294   4.910  10.854   7.890  0.2938 -0.0316 -0.2561
  735POPI    C111295  12.070   7.086   5.531  0.2942 -0.0227 -0.2185
  735POPI    C211296  11.672   7.125   5.553  0.3099  0.0759 -0.1012
  735POPI    C311297  11.837   6.761   5.533  0.2186  0.0313 -0.0484
  735POPI   PO411298  12.166   7.220   5.852  0.2029  0.1845  0.3381
  735POPI   GL111299  12.103   7.062   6.400 -0.0239  0.1178 -0.1759
  735POPI   GL211300  12.232   7.302   6.552 -0.0845 -0.3400  0.2335
  735POPI   C1A11301  12.005   6.896   6.807 -0.0439 -0.2245 -0.1160
  735POPI   D2A11302  11.848   7.015   7.102 -0.0964  0.1194  0.2235
  735POPI   C3A11303  11.701   6.886   7.555 -0.1255  0.1897 -0.1084
  735POPI   C4A11304  11.583   6.664   7.916 -0.2978  0.2489 -0.0439
  735POPI   C1B11305  12.306   7.309   7.050  0.1116  0.0443 -0.0473
  735POPI   C2B11306  12.185   7.141   7.413 -0.1621  0.5127 -0.2828
  735POPI   C3B11307  12.087   7.096   7.800  0.2760 -0.2169 -0.2899
  735POPI   C4B11308  12.075   7.120   8.192  0.2072 -0.0560  0.3041
  736POPI    C111309  15.394   9.044   5.823 -0.0357 -0.2370 -0.1603
  736POPI    C211310  15.461   8.709   6.030 -0.0074 -0.0837  0.0824
  736POPI    C311311  15.155   8.727   5.773  0.1376 -0.3764 -0.1167
  736POPI   PO411312  15.438   9.214   5.975  0.1649 -0.1019  0.3305
  736POPI   GL111313  15.235   9.344   6.360 -0.1024  0.0365  0.0719
  736POPI   GL211314  15.232   8.953   6.396  0.0676  0.1416 -0.1106
  736POPI   C1A11315  15.244   9.297   6.794 -0.1869  0.0749 -0.0227
  736POPI   D2A11316  15.431   9.438   7.134  0.1481  0.2114  0.1660
  736POPI   C3A11317  15.470   9.325   7.538  0.3489 -0.0390  0.2718
  736POPI   C4A11318  15.612   9.039   7.775  0.1134 -0.4233  0.0048
  736POPI   C1B11319  15.318   8.747   6.838  0.1351 -0.1241  0.3119
  736POPI   C2B11320  15.012   8.558   7.148  0.2220 -0.1879 -0.1974
  736POPI   C3B11321  14.921   8.597   7.516 -0.3159 -0.0706 -0.0111
  736POPI   C4B11322  14.680   8.733   7.916 -0.3662 -0.0594  0.0580
  737POPI    C111323   4.080   1.036   5.548 -0.0409  0.1171 -0.3475
  737POPI    C211324   4.188   1.413   5.629  0.1290  0.0049 -0.0345
  737POPI    C311325   3.811   1.331   5.526  0.0299  0.2278  0.1422
  737POPI   PO411326   4.272   0.933   5.838  0.1298 -0.0131 -0.2996
  737POPI   GL111327   4.331   1.144   6.232 -0.3703 -0.1322  0.2052
  737POPI   GL211328   4.155   1.305   6.430 -0.3637  0.0600 -0.1510
  737POPI   C1A11329   4.490   0.997   6.653 -0.0280 -0.2615  0.1760
  737POPI   D2A11330   4.374   0.773   7.041 -0.2912 -0.1437  0.1515
  737POPI   C3A11331   4.471   0.944   7.310  0.1047  0.1760 -0.1142
  737POPI   C4A11332   4.773   1.063   7.532  0.0351  0.0971  0.2098
  737POPI   C1B11333   4.171   1.272   6.996  0.1113 -0.3149 -0.1389
  737POPI   C2B11334   4.086   1.265   7.432 -0.0124 -0.2739  0.0053
  737POPI   C3B11335   4.224   0.892   7.755 -0.1821 -0.0899  0.1193
  737POPI   C4B11336   4.633   0.644   7.930  0.0982 -0.5058  0.1906
  738POPS   CNO11337   9.672   9.360   5.055  0.2018 -0.1751  0.1324
  738POPS   PO411338   9.835   9.021   5.326  0.1509 -0.4233 -0.1768
  738POPS   GL111339   9.957   9.027   5.636  0.1283  0.3045  0.3208
  738POPS   GL211340  10.039   9.354   5.763  0.0366  0.4001  0.1479
  738POPS   C1A11341   9.884   8.752   6.055 -0.2049  0.0490 -0.1110
  738POPS   D2A11342   9.738   8.413   6.259  0.2319  0.1941 -0.1051
  738POPS   C3A11343   9.641   8.554   6.646 -0.0102  0.0820  0.0170
  738POPS   C4A11344   9.600   9.056   6.762 -0.0291 -0.0401 -0.1809
  738POPS   C1B11345  10.063   9.654   6.042 -0.1568 -0.4075  0.2164
  738POPS   C2B11346  10.270   9.728   6.423  0.0630 -0.2780  0.2586
  738POPS   C3B11347  10.493  10.023   6.591  0.0001  0.3042 -0.1786
  738POPS   C4B11348  10.565  10.282   6.949 -0.3327  0.2768  0.0290
  739POPS   CNO11349  13.963   1.015   6.317 -0.4758  0.2953 -0.1142
  739POPS   PO411350  13.790   1.357   6.150  0.1419 -0.0765 -0.0004
  739POPS   GL111351  13.642   1.430   6.544 -0.1566  0.4565 -0.2640
  739POPS   GL211352  13.355   1.372   6.696  0.2453  0.1143 -0.2267
  739POPS   C1A11353  13.641   1.702   6.882 -0.1246  0.2812 -0.0317
  739POPS   D2A11354  13.378   1.944   7.048  0.0224 -0.1603 -0.0575
  739POPS   C3A11355  13.069   2.229   6.931  0.0148  0.1303 -0.1351
  739POPS   C4A11356  12.640   2.334   6.788  0.0278  0.1828 -0.4386
  739POPS   C1B11357  13.195   1.513   7.137 -0.1265 -0.0836 -0.5891
  739POPS   C2B11358  13.316   1.704   7.492 -0.2593  0.1148 -0.1791
  739POPS   C3B11359  13.267   2.114   7.684 -0.0620 -0.0054  0.3443
  739POPS   C4B11360  13.092   2.453   7.948  0.1194 -0.1945 -0.1117
  740POPS   CNO11361   5.758  12.918   5.654  0.0486 -0.0019 -0.1740
  740POPS   PO411362   5.376  12.979   5.895 -0.0759  0.1049  0.0328
  740POPS   GL111363   5.636  13.103   6.189  0.0494 -0.0316  0.2497
  740POPS   GL211364   5.954  13.051   6.111  0.0814  0.2315  0.0395
  740POPS   C1A11365   5.620  12.896   6.492  0.0082 -0.3414 -0.5138
  740POPS   D2A11366   5.594  12.862   6.942 -0.0950  0.0687 -0.1454
  740POPS   C3A11367   5.751  12.599   7.079  0.1225 -0.4009 -0.0022
  740POPS   C4A11368   5.785  12.342   7.454 -0.0015 -0.2061  0.0680
  740POPS   C1B11369   6.082  12.940   6.514 -0.2283 -0.0711  0.2050
  740POPS   C2B11370   6.228  12.876   6.903 -0.1937  0.1328  0.1672
  740POPS   C3B11371   6.259  12.684   7.321  0.3001 -0.3776 -0.0858
  740POPS   C4B11372   6.264  12.263   7.623 -0.1154  0.0218  0.3506
  741POPS   CNO11373   6.439   1.351   5.704 -0.0470  0.1472 -0.1197
  741POPS   PO411374   6.221   1.031   5.846 -0.2558  0.3053  0.0925
  741POPS   GL111375   6.349   0.996   6.220 -0.0102 -0.2089  0.1349
  741POPS   GL211376   6.219   0.786   6.424  0.2347  0.0213  0.1077
  741POPS   C1A11377   6.327   1.258   6.636 -0.2407 -0.0865  0.2657
  741POPS   D2A11378   6.349   1.252   7.043  0.1654 -0.0303  0.4028
  741POPS   C3A11379   6.225   1.535   7.361  0.1892  0.0896 -0.1383
  741POPS   C4A11380   6.127   1.699   7.743 -0.1416 -0.0868  0.1666
  741POPS   C1B11381   5.982   0.959   6.821  0.0610  0.2224 -0.0935
  741POPS   C2B11382   5.883   1.051   7.290  0.0121 -0.2427 -0.1045
  741POPS   C3B11383   6.118   1.130   7.652  0.2558  0.0169 -0.0807
  741POPS   C4B11384   5.880   1.335   7.978  0.0130 -0.0596 -0.0322
  742POPS   CNO11385   0.982  17.241   6.194 -0.0685 -0.0418 -0.0097
  742POPS   PO411386   1.080  17.608   6.302  0.3226 -0.1126  0.0085
  742POPS   GL111387   0.875  17.739   6.592 -0.0706  0.1664 -0.4495
  742POPS   GL211388   0.715  17.994   6.465  0.1546  0.0122 -0.0264
  742POPS   C1A11389   0.912  18.006   6.917  0.0411  0.0721  0.2223
  742POPS   D2A11390   0.891  18.283   7.230 -0.0530 -0.1493 -0.2136
  742POPS   C3A11391   1.094  18.243   7.597  0.4761 -0.1074 -0.1495
  742POPS   C4A11392   1.305  18.574   7.842  0.0500  0.3141  0.2398
  742POPS   C1B11393   0.391  17.867   6.736  0.0188 -0.1122  0.1817
  742POPS   C2B11394   0.012  17.943   7.019 -0.2585 -0.3205 -0.0814
  742POPS   C3B11395  -0.015  18.314   7.344 -0.2453 -0.1242  0.2372
  742POPS   C4B11396   0.181  18.767   7.097 -0.4324 -0.0270 -0.1153
  743POPS   CNO11397  12.441  18.242   6.101 -0.1115  0.0821 -0.0361
  743POPS   PO411398  12.260  17.899   6.110 -0.0748 -0.0346  0.3511
  743POPS   GL111399  12.049  18.083   6.420  0.1209 -0.0667 -0.1314
  743POPS   GL211400  11.800  17.900   6.489  0.2373  0.2145  0.1401
  743POPS   C1A11401  11.859  18.320   6.816  0.2044 -0.1834  0.1851
  743POPS   D2A11402  11.851  18.321   7.240  0.2677 -0.3584  0.2155
  743POPS   C3A11403  11.836  18.340   7.727 -0.0353  0.1299  0.0441
  743POPS   C4A11404  11.945  18.384   8.054  0.3371  0.1624 -0.2132
  743POPS   C1B11405  11.644  17.850   6.898 -0.1939  0.0021  0.2337
  743POPS   C2B11406  11.628  17.866   7.283  0.0586 -0.1305 -0.0720
  743POPS   C3B11407  11.345  17.667   7.628  0.0136 -0.1343 -0.1292
  743POPS   C4B11408  11.084  17.287   7.555  0.0961 -0.1511 -0.0168
  744POPS   CNO11409   1.440  12.047   5.673 -0.1556 -0.0699  0.2014
  744POPS   PO411410   1.758  12.070   5.932  0.0989 -0.1613 -0.3219
  744POPS   GL111411   1.918  12.160   6.248 -0.0474  0.0386  0.2200
  744POPS   GL211412   1.975  11.880   6.443 -0.0863 -0.2002 -0.2591
  744POPS   C1A11413   2.112  12.517   6.394  0.0115 -0.0179 -0.0595
  744POPS   D2A11414   2.288  12.749   6.774 -0.0153 -0.2545  0.1472
  744POPS   C3A11415   2.611  12.971   6.872  0.0938 -0.3031 -0.0097
  744POPS   C4A11416   3.030  12.842   6.836 -0.1209 -0.1647 -0.2340
  744POPS   C1B11417   2.057  12.056   6.711  0.0481  0.1484  0.0783
  744POPS   C2B11418   2.278  12.234   6.976 -0.2288 -0.0450 -0.3588
  744POPS   C3B11419   2.521  12.237   7.448 -0.1913  0.1936 -0.0619
  744POPS   C4B11420   2.820  12.517   7.506 -0.1028  0.0291 -0.1378
  745POPS   CNO11421   3.271   1.903   6.062  0.0363 -0.0531  0.0981
  745POPS   PO411422   3.609   1.616   6.233 -0.1603  0.1126  0.2069
  745POPS   GL111423   3.638   1.275   6.553  0.0087 -0.1324  0.0125
  745POPS   GL211424   3.385   1.374   6.713  0.0006 -0.5904 -0.2176
  745POPS   C1A11425   3.719   1.070   6.939  0.2079 -0.0999  0.2866
  745POPS   D2A11426   3.835   0.838   7.284 -0.0978 -0.0692  0.1293
  745POPS   C3A11427   3.669   0.545   7.614  0.0899  0.2160 -0.2640
  745POPS   C4A11428   3.574   0.493   8.000  0.2143  0.0400  0.2339
  745POPS   C1B11429   3.510   1.494   7.094  0.1566 -0.4185 -0.1853
  745POPS   C2B11430   3.636   1.477   7.489 -0.1513  0.0622 -0.5544
  745POPS   C3B11431   3.694   1.108   7.735 -0.3072  0.0245  0.1158
  745POPS   C4B11432   3.432   1.043   8.153 -0.0596 -0.1416  0.3698
  746POPS   CNO11433  14.125  17.190   5.597 -0.4242 -0.1782  0.1511
  746POPS   PO411434  14.053  17.473   5.924  0.1380  0.2257  0.3391
  746POPS   GL111435  14.161  17.810   6.297 -0.0266 -0.2605 -0.2565
  746POPS   GL211436  13.861  17.927   6.507  0.1634  0.0227 -0.1432
  746POPS   C1A11437  14.345  17.924   6.716 -0.0120  0.0371 -0.0521
  746POPS   D2A11438  14.550  18.017   7.117 -0.0798  0.0291 -0.1581
  746POPS   C3A11439  14.482  17.874   7.645  0.0640  0.0315  0.1010
  746POPS   C4A11440  14.299  17.799   8.016 -0.2293 -0.2336  0.3964
  746POPS   C1B11441  13.612  17.870   6.852  0.1698  0.1936 -0.0015
  746POPS   C2B11442  13.531  18.142   7.291 -0.1894  0.0101 -0.2016
  746POPS   C3B11443  13.538  18.122   7.692  0.2452 -0.1012  0.0003
  746POPS   C4B11444  13.345  17.835   7.940  0.1867  0.2257 -0.0563
  747POPS   CNO11445  16.266   7.144   5.509  0.2235  0.1678 -0.0471
  747POPS   PO411446  16.023   7.439   5.800 -0.4209  0.0450  0.1327
  747POPS   GL111447  16.160   7.172   6.151  0.3642  0.1074 -0.0445
  747POPS   GL211448  16.506   7.091   5.944  0.2608 -0.1129 -0.1838
  747POPS   C1A11449  16.017   7.107   6.576 -0.0223  0.0334  0.0903
  747POPS   D2A11450  15.932   6.938   7.104 -0.1028 -0.2279  0.0575
  747POPS   C3A11451  15.563   7.184   7.220 -0.1878  0.1339  0.4301
  747POPS   C4A11452  15.186   7.305   7.107 -0.2846 -0.2716 -0.1768
  747POPS   C1B11453  16.513   7.023   6.391 -0.2247 -0.1703  0.1015
  747POPS   C2B11454  16.405   6.896   6.817  0.1166 -0.2360  0.1232
  747POPS   C3B11455  16.368   6.674   7.107  0.0573  0.0213 -0.1130
  747POPS   C4B11456  16.257   6.751   7.481 -0.3283  0.0965 -0.0309
  748POPS   CNO11457  10.292   3.016   5.683 -0.1973  0.4465 -0.3989
  748POPS   PO411458  10.659   2.931   5.941 -0.0797 -0.0494  0.1457
  748POPS   GL111459  10.834   3.074   6.348 -0.1652  0.0674  0.1051
  748POPS   GL211460  10.700   3.452   6.291 -0.1209  0.0383 -0.0942
  748POPS   C1A11461  10.867   3.160   6.807  0.0429 -0.0868 -0.3042
  748POPS   D2A11462  10.588   3.125   7.069  0.2437  0.1276  0.0033
  748POPS   C3A11463  10.724   3.023   7.363 -0.1479 -0.0739 -0.2727
  748POPS   C4A11464  10.988   3.246   7.838 -0.3708 -0.0200  0.1651
  748POPS   C1B11465  10.716   3.599   6.688  0.0204  0.0961  0.0385
  748POPS   C2B11466  10.852   3.830   6.902  0.0752  0.1311 -0.1560
  748POPS   C3B11467  10.898   3.938   7.227 -0.0398 -0.0086  0.0053
  748POPS   C4B11468  11.093   4.019   7.508  0.0740 -0.1346  0.1536
  749POPS   CNO11469   0.857   3.988   5.752 -0.0109  0.0000 -0.1030
  749POPS   PO411470   0.549   3.914   5.969  0.1562 -0.0648 -0.0567
  749POPS   GL111471   0.639   4.029   6.458 -0.0036  0.1398 -0.3290
  749POPS   GL211472   0.926   4.033   6.639  0.3670  0.0274 -0.0015
  749POPS   C1A11473   0.541   3.806   6.872  0.2819 -0.1400 -0.1523
  749POPS   D2A11474   0.666   3.776   7.380 -0.0777 -0.1766 -0.0332
  749POPS   C3A11475   0.450   3.620   7.763  0.0364 -0.0185  0.1137
  749POPS   C4A11476   0.494   3.473   8.146  0.0399  0.2317  0.0957
  749POPS   C1B11477   0.878   4.087   7.002 -0.1433  0.2408  0.0721
  749POPS   C2B11478   0.766   4.276   7.427  0.1677 -0.0644  0.1141
  749POPS   C3B11479   0.572   4.090   7.805 -0.0994  0.0920  0.2472
  749POPS   C4B11480   0.834   3.910   8.095 -0.1791  0.0245  0.1177
  750POPS   CNO11481   3.152  12.114   5.862 -0.1238 -0.0390  0.0594
  750POPS   PO411482   2.695  12.215   5.836  0.0032  0.1675 -0.1429
  750POPS   GL111483   2.850  12.407   6.153 -0.1718  0.0669  0.1720
  750POPS   GL211484   3.052  12.236   6.347  0.3480  0.0375 -0.1748
  750POPS   C1A11485   2.684  12.495   6.613 -0.0287 -0.1910  0.0843
  750POPS   D2A11486   2.694  12.564   7.069 -0.1015  0.0811  0.3189
  750POPS   C3A11487   2.389  12.648   7.244  0.0429 -0.1329  0.2857
  750POPS   C4A11488   2.344  12.701   7.680  0.0519  0.0287 -0.2590
  750POPS   C1B11489   3.195  12.391   6.717  0.4056  0.0527 -0.1930
  750POPS   C2B11490   3.226  12.458   7.099  0.1125  0.1728  0.0075
  750POPS   C3B11491   3.416  12.682   7.376 -0.3875  0.1981  0.1642
  750POPS   C4B11492   3.704  12.891   7.695  0.0672  0.0921 -0.1006
  751POPS   CNO11493   6.341   7.869   5.646 -0.2155 -0.3277  0.0896
  751POPS   PO411494   6.220   7.684   5.983  0.1276  0.0623 -0.0877
  751POPS   GL111495   6.238   7.937   6.345  0.1541  0.0851  0.2130
  751POPS   GL211496   6.409   7.754   6.528 -0.0837  0.3108  0.0601
  751POPS   C1A11497   6.489   8.174   6.649  0.2465  0.2036  0.0433
  751POPS   D2A11498   6.677   8.433   6.931  0.3324 -0.0032 -0.1906
  751POPS   C3A11499   6.484   8.754   7.116  0.2513  0.3197 -0.2965
  751POPS   C4A11500   6.330   9.159   7.013 -0.4338 -0.0604  0.1635
  751POPS   C1B11501   6.133   7.858   6.859  0.2347 -0.0452 -0.1077
  751POPS   C2B11502   5.957   7.834   7.278  0.2067 -0.2563 -0.0250
  751POPS   C3B11503   5.998   7.870   7.704 -0.1314  0.2346  0.1702
  751POPS   C4B11504   6.269   7.886   7.995  0.0601  0.1549 -0.0390
  752POPS   CNO11505  18.309   8.999   5.582 -0.2473  0.0728 -0.0219
  752POPS   PO411506  18.448   9.367   5.758  0.1024  0.1841 -0.2605
  752POPS   GL111507  18.252   9.622   6.016 -0.2803 -0.1610 -0.1549
  752POPS   GL211508  17.895   9.576   6.156 -0.1440 -0.1505  0.1714
  752POPS   C1A11509  18.293   9.861   6.463 -0.0240 -0.1877  0.0771
  752POPS   D2A11510  18.173   9.947   6.801 -0.1993 -0.1615  0.3135
  752POPS   C3A11511  18.191  10.425   6.881  0.0138  0.2330  0.1182
  752POPS   C4A11512  18.033  10.850   6.739  0.2870 -0.3557  0.0170
  752POPS   C1B11513  17.749   9.545   6.565  0.1052 -0.0964  0.2529
  752POPS   C2B11514  17.800   9.533   7.012 -0.0215  0.0461 -0.0779
  752POPS   C3B11515  17.904   9.617   7.507  0.1933 -0.2277  0.0488
  752POPS   C4B11516  18.062   9.850   7.848  0.0016 -0.2252 -0.2163
  753POPS   CNO11517   3.146   4.175   5.442  0.0928 -0.0424  0.0863
  753POPS   PO411518   2.918   4.062   5.789  0.1495  0.4036 -0.4730
  753POPS   GL111519   3.186   4.096   6.270  0.0034  0.0645  0.0384
  753POPS   GL211520   2.966   4.153   6.651 -0.0451  0.0406  0.3447
  753POPS   C1A11521   3.503   4.228   6.611  0.3005 -0.0917  0.0404
  753POPS   D2A11522   3.844   3.885   6.735 -0.0934 -0.0992  0.1241
  753POPS   C3A11523   3.698   3.741   7.081 -0.1184 -0.1065 -0.0193
  753POPS   C4A11524   3.437   3.598   7.419  0.1573  0.0163 -0.0049
  753POPS   C1B11525   2.662   4.131   6.935  0.0347 -0.0062  0.1178
  753POPS   C2B11526   2.534   4.059   7.359  0.0955  0.1908  0.2582
  753POPS   C3B11527   2.653   3.988   7.807  0.2330 -0.0622 -0.0296
  753POPS   C4B11528   2.987   4.172   8.096  0.1293 -0.1670 -0.0439
  754POPS   CNO11529   2.056  13.420   5.372  0.1433  0.0609 -0.0506
  754POPS   PO411530   1.849  13.607   5.746 -0.1388 -0.1382 -0.1532
  754POPS   GL111531   1.989  13.747   6.159 -0.2574  0.1111 -0.0228
  754POPS   GL211532   2.200  13.445   6.284 -0.4415  0.0897  0.0881
  754POPS   C1A11533   1.870  13.800   6.610 -0.1856 -0.0409 -0.0927
  754POPS   D2A11534   1.728  13.957   7.027  0.2360  0.0706  0.0852
  754POPS   C3A11535   1.462  14.284   7.152  0.0138 -0.1892  0.3679
  754POPS   C4A11536   1.579  14.695   7.308 -0.2851  0.0439 -0.1525
  754POPS   C1B11537   2.083  13.244   6.656 -0.1712  0.0431 -0.0980
  754POPS   C2B11538   2.068  13.533   6.971 -0.0206  0.2598 -0.1447
  754POPS   C3B11539   2.081  13.703   7.355  0.1973  0.0790  0.2427
  754POPS   C4B11540   2.126  14.025   7.707  0.1574 -0.2411 -0.3251
  755POPS   CNO11541  11.815   6.141   5.843 -0.1162  0.1262  0.3329
  755POPS   PO411542  11.617   6.473   5.887 -0.1177 -0.0024 -0.1047
  755POPS   GL111543  11.442   6.500   6.242 -0.0472  0.1278  0.0682
  755POPS   GL211544  11.060   6.646   6.261 -0.0693 -0.1026 -0.5412
  755POPS   C1A11545  11.459   6.686   6.652  0.1037 -0.0292 -0.0990
  755POPS   D2A11546  11.348   6.711   7.161  0.0325 -0.1146 -0.0052
  755POPS   C3A11547  10.882   6.511   7.267  0.2192 -0.0447 -0.1120
  755POPS   C4A11548  10.529   6.478   7.084  0.1174  0.1093 -0.0947
  755POPS   C1B11549  11.064   6.171   6.391  0.1551  0.0221 -0.4027
  755POPS   C2B11550  10.896   5.945   6.702 -0.2306 -0.2020  0.0014
  755POPS   C3B11551  10.864   6.035   7.105  0.1241  0.2365  0.0327
  755POPS   C4B11552  10.719   6.110   7.501 -0.1781 -0.1049 -0.1654
  756POPS   CNO11553   7.032  13.482   5.279  0.0367  0.1946  0.3196
  756POPS   PO411554   7.267  13.528   5.649  0.0844 -0.0247 -0.0113
  756POPS   GL111555   7.044  13.565   6.095 -0.0356 -0.3363  0.1955
  756POPS   GL211556   7.223  13.397   6.348 -0.1962  0.0869 -0.2367
  756POPS   C1A11557   6.767  13.632   6.387 -0.1248 -0.3652 -0.3274
  756POPS   D2A11558   6.391  13.748   6.737 -0.1275 -0.0315  0.1828
  756POPS   C3A11559   6.332  13.723   7.125  0.2222 -0.2347 -0.2342
  756POPS   C4A11560   6.200  13.406   7.479 -0.3286 -0.2182 -0.1483
  756POPS   C1B11561   7.352  13.074   6.531  0.1575 -0.1655 -0.0094
  756POPS   C2B11562   7.297  13.017   7.011  0.1430 -0.0278  0.1289
  756POPS   C3B11563   7.351  12.928   7.506  0.0208  0.1924  0.0532
  756POPS   C4B11564   7.581  12.774   7.876 -0.0824  0.0928 -0.0111
  757POPS   CNO11565  18.091  11.072   5.744  0.3918 -0.0495  0.1379
  757POPS   PO411566  17.853  11.177   6.151  0.1272  0.0478  0.1247
  757POPS   GL111567  17.655  11.106   6.509 -0.1466  0.2647 -0.0878
  757POPS   GL211568  17.824  11.401   6.640 -0.0717 -0.0223 -0.0044
  757POPS   C1A11569  17.679  11.080   6.970  0.0384 -0.0479  0.1382
  757POPS   D2A11570  17.907  10.738   7.222  0.1457  0.1053 -0.2939
  757POPS   C3A11571  17.842  10.804   7.722 -0.0172  0.0543  0.0479
  757POPS   C4A11572  17.824  10.683   8.172  0.2031  0.0080 -0.0254
  757POPS   C1B11573  18.007  11.469   7.003  0.0111 -0.0944  0.0157
  757POPS   C2B11574  18.214  11.177   7.260  0.1958  0.2700  0.0488
  757POPS   C3B11575  18.153  11.260   7.696 -0.0594  0.0076  0.0477
  757POPS   C4B11576  17.929  11.185   8.105 -0.0911  0.1784  0.1093
  758POPS   CNO11577  10.745   1.476   5.184  0.0616 -0.2148 -0.0397
  758POPS   PO411578  10.595   1.570   5.568 -0.1223  0.0241  0.1738
  758POPS   GL111579  10.599   1.558   6.027  0.1779  0.0988 -0.1160
  758POPS   GL211580  10.148   1.532   6.095  0.0361 -0.1500 -0.2456
  758POPS   C1A11581  10.483   1.573   6.459  0.0312 -0.1664  0.1153
  758POPS   D2A11582  10.563   1.694   6.876  0.2639  0.0009 -0.0898
  758POPS   C3A11583  10.276   1.853   7.206  0.0237 -0.3272  0.1065
  758POPS   C4A11584  10.293   2.284   7.451 -0.0444  0.1110  0.3871
  758POPS   C1B11585  10.000   1.738   6.554 -0.0828  0.3352  0.1371
  758POPS   C2B11586   9.816   1.903   6.944  0.0605 -0.0367 -0.2582
  758POPS   C3B11587   9.802   1.970   7.443 -0.1846 -0.0744  0.0030
  758POPS   C4B11588   9.517   2.211   7.742 -0.1986 -0.3240 -0.1106
  759POPS   CNO11589   0.602   5.122   6.145  0.1169  0.3877 -0.0471
  759POPS   PO411590   0.802   4.783   5.979 -0.2156  0.1354  0.0023
  759POPS   GL111591   0.746   4.786   6.479 -0.3788  0.0282  0.2883
  759POPS   GL211592   0.699   4.496   6.610 -0.1430 -0.2698 -0.2202
  759POPS   C1A11593   0.700   5.020   6.890 -0.0153  0.3207  0.0647
  759POPS   D2A11594   0.895   5.287   7.150 -0.0987  0.3631 -0.2638
  759POPS   C3A11595   0.951   5.156   7.506  0.0788 -0.3497 -0.2693
  759POPS   C4A11596   1.280   4.989   7.719  0.0148  0.0241 -0.2240
  759POPS   C1B11597   0.564   4.530   6.982 -0.3796  0.2879  0.0245
  759POPS   C2B11598   0.517   4.681   7.311 -0.2961 -0.0186 -0.0340
  759POPS   C3B11599   0.263   4.610   7.716  0.2361 -0.0862 -0.0168
  759POPS   C4B11600   0.182   4.343   8.022  0.1158 -0.0820 -0.1678
  760POPS   CNO11601   1.811   8.938   6.495 -0.4569 -0.0844 -0.3852
  760POPS   PO411602   1.407   9.038   6.422  0.2827 -0.1903  0.1607
  760POPS   GL111603   1.375   9.330   6.642 -0.2468  0.0318 -0.0804
  760POPS   GL211604   1.263   9.578   6.483  0.3438  0.0533  0.2041
  760POPS   C1A11605   1.566   9.560   6.933 -0.0391  0.1600  0.2824
  760POPS   D2A11606   1.635   9.728   7.437 -0.1302  0.1434 -0.2863
  760POPS   C3A11607   1.578   9.552   7.894  0.0821 -0.0598 -0.1700
  760POPS   C4A11608   1.684   9.432   8.294 -0.0073  0.1895  0.0399
  760POPS   C1B11609   1.142   9.841   6.852  0.0403 -0.1116 -0.0050
  760POPS   C2B11610   1.117   9.894   7.254  0.2361  0.1993 -0.0351
  760POPS   C3B11611   0.995  10.157   7.655  0.0833 -0.1160 -0.2865
  760POPS   C4B11612   0.977  10.495   7.947  0.1545  0.1861 -0.3471
  761POPS   CNO11613  11.710  16.685   5.675  0.2702 -0.1276 -0.0452
  761POPS   PO411614  11.634  17.003   5.903  0.1696  0.1092  0.0803
  761POPS   GL111615  11.276  17.002   6.215 -0.1097  0.0994  0.1285
  761POPS   GL211616  11.167  16.727   6.230 -0.2777 -0.0528 -0.2078
  761POPS   C1A11617  11.215  16.954   6.716  0.0041 -0.1137 -0.1276
  761POPS   D2A11618  10.987  17.145   7.057  0.1708  0.1960  0.0345
  761POPS   C3A11619  10.823  16.867   7.381  0.4568 -0.0197 -0.1501
  761POPS   C4A11620  11.041  16.680   7.472 -0.1130  0.1116 -0.5772
  761POPS   C1B11621  11.202  16.417   6.577  0.1277 -0.0906 -0.1596
  761POPS   C2B11622  11.466  16.453   7.044  0.1551 -0.0568 -0.0317
  761POPS   C3B11623  11.697  16.519   7.447 -0.0585 -0.2029  0.0375
  761POPS   C4B11624  11.882  16.806   7.626  0.2738  0.2720  0.0390
  762POPS   CNO11625   2.762   0.952   6.337 -0.3379  0.3398  0.1864
  762POPS   PO411626   2.595   1.283   6.204  0.0409  0.1921  0.0517
  762POPS   GL111627   2.679   1.492   6.570  0.4669  0.1081  0.1894
  762POPS   GL211628   2.863   1.303   6.697 -0.2158  0.2932 -0.3226
  762POPS   C1A11629   2.630   1.897   6.788  0.0340  0.1553 -0.1749
  762POPS   D2A11630   2.588   1.994   7.228  0.6880 -0.0208 -0.0406
  762POPS   C3A11631   2.784   2.035   7.568  0.0223 -0.0909 -0.1951
  762POPS   C4A11632   2.955   1.852   7.965 -0.0463  0.2098 -0.0373
  762POPS   C1B11633   2.858   1.562   7.105  0.1859  0.1711 -0.2128
  762POPS   C2B11634   2.784   1.528   7.580 -0.1449  0.0038  0.1895
  762POPS   C3B11635   2.596   1.505   7.954 -0.0089  0.1402  0.2824
  762POPS   C4B11636   2.695   1.687   8.424  0.2072  0.3208  0.0377
  763POPS   CNO11637  10.803  11.914   5.605 -0.0874  0.3098 -0.1573
  763POPS   PO411638  10.587  12.271   5.380 -0.1335 -0.1040  0.2060
  763POPS   GL111639  10.397  12.324   5.745 -0.4363  0.0054 -0.0425
  763POPS   GL211640  10.304  12.603   5.889  0.0508 -0.5747 -0.2615
  763POPS   C1A11641  10.413  12.163   6.203  0.0197  0.1329 -0.1238
  763POPS   D2A11642  10.436  12.340   6.685  0.0460  0.0063  0.2087
  763POPS   C3A11643  10.597  12.752   6.875 -0.1403  0.1404 -0.0107
  763POPS   C4A11644  10.824  12.886   7.103  0.1749 -0.2344 -0.1395
  763POPS   C1B11645  10.093  12.696   6.270  0.0093 -0.1679  0.1183
  763POPS   C2B11646  10.109  12.756   6.675  0.0412  0.2782  0.1307
  763POPS   C3B11647  10.021  12.757   7.122 -0.2017 -0.0783  0.0164
  763POPS   C4B11648  10.355  12.726   7.434 -0.1529 -0.2483  0.0157
  764POPS   CNO11649   5.823  13.214   5.301 -0.1609  0.0844  0.0953
  764POPS   PO411650   6.155  13.563   5.373  0.0784 -0.0466  0.2588
  764POPS   GL111651   6.243  13.638   5.732 -0.0127 -0.0090  0.0207
  764POPS   GL211652   6.606  13.805   5.908 -0.2554 -0.0015  0.2573
  764POPS   C1A11653   6.409  13.375   6.154 -0.2271  0.2412  0.0860
  764POPS   D2A11654   6.436  13.285   6.604 -0.0364  0.0243 -0.0496
  764POPS   C3A11655   6.759  13.436   6.954  0.1559  0.2737 -0.0574
  764POPS   C4A11656   7.001  13.270   7.336 -0.0877 -0.2306  0.4837
  764POPS   C1B11657   6.317  13.852   6.201 -0.0344  0.0273  0.0604
  764POPS   C2B11658   6.230  14.203   6.527 -0.0047  0.2232 -0.3481
  764POPS   C3B11659   6.133  14.160   7.065 -0.0764  0.1184 -0.1199
  764POPS   C4B11660   6.192  14.038   7.535 -0.0613  0.2383  0.1002
  765POPS   CNO11661  11.479  11.713   5.302 -0.2030 -0.1798 -0.1581
  765POPS   PO411662  11.834  11.580   5.504  0.0278  0.0130 -0.0992
  765POPS   GL111663  11.593  11.388   5.874 -0.1552 -0.2838  0.0745
  765POPS   GL211664  11.352  11.136   5.922 -0.1610  0.2209  0.1135
  765POPS   C1A11665  11.564  11.635   6.329  0.0480  0.1257 -0.0275
  765POPS   D2A11666  11.382  11.603   6.619 -0.0467  0.1072  0.3476
  765POPS   C3A11667  11.519  11.753   6.986 -0.0099 -0.1238 -0.2753
  765POPS   C4A11668  11.413  12.058   7.321 -0.0826 -0.1230  0.1463
  765POPS   C1B11669  11.125  11.201   6.363 -0.3594 -0.2946  0.2144
  765POPS   C2B11670  10.956  11.375   6.725 -0.3469  0.0261 -0.0475
  765POPS   C3B11671  10.611  11.475   6.968  0.2018 -0.0886  0.0982
  765POPS   C4B11672  10.398  11.297   7.192  0.4870  0.2236 -0.1709
  766POPS   CNO11673   8.268  11.553   4.946 -0.0965  0.1674  0.0656
  766POPS   PO411674   8.345  11.334   5.274  0.0514  0.0270  0.1438
  766POPS   GL111675   8.389  11.533   5.632 -0.0725 -0.0133  0.0567
  766POPS   GL211676   8.341  11.338   5.887  0.1247 -0.4237  0.2052
  766POPS   C1A11677   8.387  11.834   5.987  0.0290 -0.4281  0.0395
  766POPS   D2A11678   8.013  12.000   6.271  0.0972  0.0755  0.1016
  766POPS   C3A11679   7.861  11.929   6.675 -0.1308 -0.1672  0.1485
  766POPS   C4A11680   7.713  11.585   6.847 -0.0482 -0.2307  0.0043
  766POPS   C1B11681   8.670  11.367   6.101 -0.2614  0.0220 -0.2696
  766POPS   C2B11682   8.720  11.573   6.473 -0.2344 -0.3240  0.0136
  766POPS   C3B11683   9.071  11.735   6.779 -0.0747 -0.0976 -0.2825
  766POPS   C4B11684   8.975  11.769   7.096 -0.0465 -0.1950 -0.0318
  767POPS   CNO11685   7.659  17.308   5.238 -0.1470  0.0883 -0.0456
  767POPS   PO411686   7.857  17.194   5.658  0.0326 -0.2375  0.1692
  767POPS   GL111687   7.941  17.352   5.999 -0.2129  0.0597  0.0006
  767POPS   GL211688   8.106  17.644   6.030  0.0541 -0.2482  0.0564
  767POPS   C1A11689   7.796  17.361   6.393 -0.3177 -0.2649 -0.1414
  767POPS   D2A11690   7.536  17.301   6.598  0.1512  0.1429 -0.1898
  767POPS   C3A11691   7.279  17.664   6.482 -0.0986  0.0338 -0.0561
  767POPS   C4A11692   6.906  17.919   6.414  0.0489 -0.0870 -0.0703
  767POPS   C1B11693   8.120  17.771   6.485  0.2254  0.1440 -0.0689
  767POPS   C2B11694   8.149  17.870   6.849  0.1181 -0.3995  0.0067
  767POPS   C3B11695   8.174  17.660   7.247 -0.2494  0.0345  0.1193
  767POPS   C4B11696   7.991  17.649   7.604  0.3838 -0.1437 -0.2348
  768POPS   CNO11697  10.520   5.568   5.877 -0.0958 -0.0235  0.0649
  768POPS   PO411698  10.760   5.198   5.941 -0.2426 -0.0378  0.2359
  768POPS   GL111699  11.031   5.531   6.116 -0.0985 -0.0759  0.0063
  768POPS   GL211700  10.941   5.838   5.991  0.2654 -0.0507 -0.1679
  768POPS   C1A11701  11.246   5.692   6.451 -0.0273  0.2649 -0.1331
  768POPS   D2A11702  11.542   5.784   6.724  0.0908  0.0996  0.0532
  768POPS   C3A11703  11.680   5.481   7.009 -0.0363  0.1412  0.1037
  768POPS   C4A11704  11.548   5.165   7.328 -0.0457  0.0112 -0.0750
  768POPS   C1B11705  10.657   5.725   6.372 -0.1692  0.1007 -0.4062
  768POPS   C2B11706  10.576   5.659   6.868 -0.0194  0.3138  0.2531
  768POPS   C3B11707  10.437   5.693   7.295 -0.0806 -0.1399 -0.1305
  768POPS   C4B11708  10.380   5.760   7.688 -0.1590 -0.0091  0.1333
  769POPS   CNO11709  15.510   3.181   6.396 -0.0732  0.0838 -0.1424
  769POPS   PO411710  15.238   3.064   6.168  0.0085 -0.3277  0.0870
  769POPS   GL111711  14.983   3.255   6.454  0.1477  0.0341  0.0210
  769POPS   GL211712  15.057   3.500   6.411 -0.2325  0.2601 -0.0921
  769POPS   C1A11713  14.781   3.254   6.739 -0.2262 -0.1707  0.1325
  769POPS   D2A11714  14.730   3.285   7.185 -0.1117 -0.1468  0.0862
  769POPS   C3A11715  15.019   3.283   7.544 -0.1448 -0.0491  0.1048
  769POPS   C4A11716  14.994   3.082   7.896 -0.0146 -0.1504 -0.2063
  769POPS   C1B11717  14.789   3.756   6.716  0.0751 -0.3557  0.2448
  769POPS   C2B11718  14.889   3.844   6.977 -0.0883  0.1693  0.2073
  769POPS   C3B11719  14.843   4.193   7.275  0.1044  0.1313 -0.4092
  769POPS   C4B11720  15.108   4.231   7.695 -0.1502  0.1632 -0.2515
  770POPS   CNO11721   5.640   5.129   4.959  0.2507  0.1083 -0.2487
  770POPS   PO411722   5.573   5.095   5.395 -0.0526 -0.1566  0.4113
  770POPS   GL111723   5.556   4.934   5.802  0.1726  0.1535 -0.1093
  770POPS   GL211724   5.180   4.866   5.950 -0.3530  0.0403 -0.0662
  770POPS   C1A11725   5.823   4.960   6.168  0.2241  0.1804  0.0940
  770POPS   D2A11726   6.055   5.097   6.522 -0.1830 -0.0896 -0.2582
  770POPS   C3A11727   6.064   5.204   6.928 -0.1736  0.0882  0.0705
  770POPS   C4A11728   6.103   5.346   7.356  0.0167  0.1648  0.1128
  770POPS   C1B11729   5.163   5.053   6.429  0.1844 -0.2716 -0.1082
  770POPS   C2B11730   5.240   5.462   6.705  0.1935 -0.1497  0.0250
  770POPS   C3B11731   5.341   5.507   7.098  0.0191  0.4649  0.2424
  770POPS   C4B11732   5.662   5.612   7.373  0.3720 -0.0215 -0.2410
  771POPS   CNO11733  16.307  17.520   5.919 -0.3076  0.2089  0.2627
  771POPS   PO411734  16.260  17.266   6.244 -0.1104 -0.1357  0.0614
  771POPS   GL111735  15.919  17.256   6.618  0.0030  0.2465  0.0649
  771POPS   GL211736  16.048  17.455   6.842  0.1317  0.1654 -0.1846
  771POPS   C1A11737  15.884  16.847   6.829  0.2599  0.0705  0.2241
  771POPS   D2A11738  15.966  16.609   7.178  0.0196 -0.0916  0.0246
  771POPS   C3A11739  15.737  16.624   7.537  0.1417  0.2111  0.0363
  771POPS   C4A11740  15.589  16.849   7.791  0.2937 -0.1190  0.1111
  771POPS   C1B11741  16.005  17.632   7.233  0.2830 -0.0299  0.0406
  771POPS   C2B11742  15.688  17.745   7.589  0.0118  0.0460  0.1127
  771POPS   C3B11743  15.544  17.608   8.051  0.2651  0.0557  0.1954
  771POPS   C4B11744  15.738  17.224   8.268 -0.0370 -0.0600  0.1079
  772POPS   CNO11745  13.505   6.256   5.954 -0.1123 -0.0577  0.1823
  772POPS   PO411746  13.682   6.592   5.780 -0.1584  0.2503 -0.2406
  772POPS   GL111747  13.651   6.700   6.142  0.2918  0.0540 -0.2446
  772POPS   GL211748  13.321   6.815   6.225  0.1507 -0.1790 -0.1690
  772POPS   C1A11749  13.770   6.593   6.605  0.0018 -0.2486 -0.1275
  772POPS   D2A11750  13.683   6.693   7.030  0.1233 -0.2222 -0.2655
  772POPS   C3A11751  13.855   6.616   7.370 -0.1990  0.1933  0.0548
  772POPS   C4A11752  13.849   6.546   7.869 -0.0661  0.0163 -0.0181
  772POPS   C1B11753  13.404   6.908   6.639  0.1125 -0.1293  0.0728
  772POPS   C2B11754  13.209   6.898   6.964  0.0065 -0.2089  0.2989
  772POPS   C3B11755  13.000   6.822   7.300 -0.1947 -0.1770  0.0764
  772POPS   C4B11756  12.968   6.798   7.779 -0.1062 -0.4106 -0.1020
  773POPS   CNO11757   1.122  18.119   6.170 -0.0513 -0.0657  0.2275
  773POPS   PO411758   1.553  18.030   6.300 -0.0713 -0.0911  0.1896
  773POPS   GL111759   1.350  17.971   6.639  0.1152  0.2794 -0.0035
  773POPS   GL211760   1.400  17.625   6.772  0.0790  0.2807  0.1119
  773POPS   C1A11761   1.365  18.150   7.008  0.0261  0.2164  0.3954
  773POPS   D2A11762   1.512  18.074   7.361  0.1103 -0.2873 -0.3070
  773POPS   C3A11763   1.366  17.897   7.795  0.2896  0.1006  0.0779
  773POPS   C4A11764   1.573  17.644   8.043 -0.0869 -0.1833  0.0680
  773POPS   C1B11765   1.136  17.653   7.124 -0.0893 -0.0604 -0.2867
  773POPS   C2B11766   1.131  17.470   7.520  0.2212 -0.1692 -0.1514
  773POPS   C3B11767   0.944  17.424   7.858  0.1415  0.0144  0.0201
  773POPS   C4B11768   1.127  17.493   8.267 -0.1738  0.1673  0.0874
  774POPS   CNO11769  10.289   3.994   5.078  0.1745  0.2041  0.1707
  774POPS   PO411770  10.100   4.300   4.978  0.0109  0.0382  0.2260
  774POPS   GL111771   9.930   4.259   5.464  0.0440  0.1630  0.2683
  774POPS   GL211772  10.002   4.596   5.669 -0.0407  0.3301 -0.2864
  774POPS   C1A11773   9.759   4.021   5.863  0.0016  0.0276  0.0960
  774POPS   D2A11774   9.537   3.574   6.013 -0.0676  0.1643  0.1053
  774POPS   C3A11775   9.488   3.396   6.413 -0.0117 -0.1914 -0.0918
  774POPS   C4A11776   9.304   3.150   6.684 -0.1849 -0.1267  0.1003
  774POPS   C1B11777   9.618   4.524   5.737 -0.1174  0.0552  0.1690
  774POPS   C2B11778   9.458   4.343   6.072  0.1440 -0.1926  0.0094
  774POPS   C3B11779   9.338   3.955   6.246  0.0563 -0.2345  0.3249
  774POPS   C4B11780   8.985   3.593   6.283 -0.1215  0.3045 -0.0954
  775POPS   CNO11781   6.960   5.638   5.739  0.0786 -0.0020  0.0050
  775POPS   PO411782   6.696   5.311   5.664 -0.0971 -0.2086 -0.0297
  775POPS   GL111783   6.847   5.407   6.144  0.0271  0.0191  0.1006
  775POPS   GL211784   6.591   5.470   6.411  0.3091 -0.3381 -0.1232
  775POPS   C1A11785   7.211   5.570   6.344 -0.0351  0.1515  0.2792
  775POPS   D2A11786   7.608   5.642   6.417 -0.4164  0.2938  0.2949
  775POPS   C3A11787   7.855   5.389   6.689  0.3450 -0.4075  0.0304
  775POPS   C4A11788   7.968   5.148   7.009  0.3451 -0.1846 -0.2340
  775POPS   C1B11789   6.956   5.460   6.774 -0.0472  0.3674 -0.4009
  775POPS   C2B11790   6.785   5.579   7.166  0.2421  0.1316  0.0629
  775POPS   C3B11791   6.541   5.472   7.465 -0.1316  0.0930 -0.0292
  775POPS   C4B11792   6.359   5.661   7.789  0.1236 -0.0727  0.1584
  776POPS   CNO11793  13.719   4.841   5.938  0.0494 -0.1163 -0.1086
  776POPS   PO411794  13.417   4.517   5.760  0.2594  0.0861  0.2385
  776POPS   GL111795  13.525   4.332   6.117 -0.1602 -0.1946  0.0131
  776POPS   GL211796  13.810   4.473   6.252 -0.0834  0.2390  0.1209
  776POPS   C1A11797  13.597   4.101   6.432  0.1299 -0.0326 -0.0504
  776POPS   D2A11798  13.714   3.883   6.784  0.3343  0.0778 -0.1113
  776POPS   C3A11799  13.721   4.010   7.120  0.0746 -0.0478 -0.4510
  776POPS   C4A11800  13.971   4.110   7.424  0.1235  0.0688 -0.2377
  776POPS   C1B11801  13.819   4.805   6.484  0.0321  0.3428  0.2047
  776POPS   C2B11802  13.845   5.109   6.811  0.2696 -0.0175 -0.0577
  776POPS   C3B11803  14.049   5.306   7.150 -0.0172 -0.0136 -0.1139
  776POPS   C4B11804  13.880   5.289   7.608 -0.0137  0.3245 -0.0388
  777POPS   CNO11805  10.749  14.351   5.767  0.1095  0.3015  0.1309
  777POPS   PO411806  10.600  13.977   5.656 -0.1826 -0.0015 -0.0468
  777POPS   GL111807  10.495  13.963   6.025  0.0201  0.0036  0.0275
  777POPS   GL211808  10.258  13.724   6.100 -0.1649 -0.3766 -0.1176
  777POPS   C1A11809  10.177  14.215   6.196  0.0692 -0.0011 -0.1192
  777POPS   D2A11810   9.830  14.387   6.246  0.3333  0.0932  0.2114
  777POPS   C3A11811   9.621  14.576   6.579 -0.2439 -0.1220 -0.0704
  777POPS   C4A11812   9.700  14.934   6.694  0.2443  0.0692  0.0018
  777POPS   C1B11813  10.227  13.784   6.529  0.2064 -0.3170  0.4541
  777POPS   C2B11814  10.334  13.744   6.894 -0.0904  0.2719  0.0830
  777POPS   C3B11815  10.106  14.016   7.187  0.1838  0.3386 -0.0472
  777POPS   C4B11816   9.975  14.289   7.511  0.0580  0.0239  0.2303
  778POPS   CNO11817   3.363   9.615   5.974 -0.0408 -0.0555  0.1618
  778POPS   PO411818   3.114   9.308   6.140 -0.0289 -0.2492 -0.0585
  778POPS   GL111819   3.040   9.507   6.531 -0.0707  0.1706  0.0353
  778POPS   GL211820   3.322   9.636   6.481  0.0720  0.3373  0.2255
  778POPS   C1A11821   2.778   9.758   6.767 -0.0934  0.2022 -0.0831
  778POPS   D2A11822   2.433   9.918   6.790 -0.2509  0.1241  0.0246
  778POPS   C3A11823   2.401  10.213   7.029  0.0362 -0.4824  0.1333
  778POPS   C4A11824   2.380  10.535   7.347  0.0200  0.0649 -0.0705
  778POPS   C1B11825   3.702   9.862   6.580  0.1997 -0.2427 -0.0737
  778POPS   C2B11826   4.039  10.289   6.503 -0.3273 -0.3824 -0.0237
  778POPS   C3B11827   4.428  10.315   6.388  0.1586  0.0773 -0.1762
  778POPS   C4B11828   4.821  10.024   6.464 -0.0986 -0.2755  0.1137
  779POPS   CNO11829  16.149   2.118   6.463  0.2479 -0.1994  0.2081
  779POPS   PO411830  15.771   2.095   6.291 -0.3133 -0.0859  0.2208
  779POPS   GL111831  15.734   2.095   6.695  0.2435  0.2775 -0.0036
  779POPS   GL211832  15.390   2.255   6.680  0.3547  0.0900  0.1018
  779POPS   C1A11833  15.901   2.117   7.033  0.1114 -0.0567 -0.2418
  779POPS   D2A11834  16.102   2.518   7.184  0.0010  0.3295  0.0486
  779POPS   C3A11835  16.182   2.576   7.619  0.1758  0.0345  0.0970
  779POPS   C4A11836  16.390   2.887   7.870  0.0979 -0.2561 -0.0713
  779POPS   C1B11837  15.165   2.484   7.016 -0.1395  0.1532 -0.0465
  779POPS   C2B11838  15.093   2.506   7.423  0.0113 -0.2605  0.3595
  779POPS   C3B11839  15.044   2.360   7.790  0.2779 -0.0360 -0.3342
  779POPS   C4B11840  15.001   2.591   8.064  0.1044  0.2486 -0.1687
  780POPS   CNO11841   0.876  16.745   5.634  0.0647  0.0096 -0.1324
  780POPS   PO411842   0.842  16.785   6.032 -0.1607  0.2703 -0.2462
  780POPS   GL111843   0.652  16.955   6.439 -0.2783  0.1033 -0.2187
  780POPS   GL211844   0.800  17.260   6.712 -0.2588 -0.0234  0.0740
  780POPS   C1A11845   0.483  16.887   6.872  0.2185 -0.3465  0.2043
  780POPS   D2A11846   0.513  16.781   7.275 -0.4946  0.1742  0.4141
  780POPS   C3A11847   0.233  16.751   7.691 -0.2565  0.1522  0.2895
  780POPS   C4A11848   0.291  16.529   8.012 -0.1697 -0.1389 -0.0354
  780POPS   C1B11849   0.747  17.304   7.168  0.1582  0.0023 -0.2660
  780POPS   C2B11850   0.555  17.252   7.534 -0.0694 -0.2631  0.0480
  780POPS   C3B11851   0.482  17.226   7.938  0.2257  0.3642 -0.0620
  780POPS   C4B11852   0.203  17.380   8.258  0.0796  0.4435 -0.4546
  781POPS   CNO11853  16.152  11.936   5.470  0.1178  0.2730  0.3535
  781POPS   PO411854  16.186  11.565   5.622  0.2394  0.0916 -0.0164
  781POPS   GL111855  16.227  11.768   6.007 -0.1286  0.2561  0.1205
  781POPS   GL211856  15.976  11.477   6.108 -0.2885 -0.3155  0.1414
  781POPS   C1A11857  16.070  11.795   6.433 -0.2844  0.0708 -0.1443
  781POPS   D2A11858  16.083  11.997   6.833 -0.3851 -0.1850 -0.2893
  781POPS   C3A11859  16.184  11.788   7.213  0.2715 -0.3546  0.1077
  781POPS   C4A11860  16.159  11.552   7.678 -0.2139 -0.0574 -0.0488
  781POPS   C1B11861  15.524  11.690   6.247 -0.0082  0.3150  0.0686
  781POPS   C2B11862  15.178  11.872   6.480 -0.0210  0.4233 -0.1629
  781POPS   C3B11863  14.963  12.151   6.775 -0.0415  0.0193 -0.0915
  781POPS   C4B11864  14.982  12.310   7.132 -0.0982 -0.0932 -0.1683
  782POPS   CNO11865  16.169   6.575   5.442 -0.1536 -0.2373  0.1193
  782POPS   PO411866  15.937   6.383   5.807 -0.2438  0.0279 -0.1795
  782POPS   GL111867  16.064   6.258   6.208  0.1667 -0.1198  0.1830
  782POPS   GL211868  16.038   6.590   6.312  0.0134 -0.1245 -0.0817
  782POPS   C1A11869  15.956   6.141   6.500  0.2536  0.0887  0.1395
  782POPS   D2A11870  15.841   5.917   6.809 -0.2202 -0.0486  0.5729
  782POPS   C3A11871  15.673   5.967   7.188  0.1029  0.1707 -0.1399
  782POPS   C4A11872  15.591   5.791   7.561 -0.1883 -0.0574  0.0344
  782POPS   C1B11873  15.944   6.536   6.729  0.0543 -0.2762  0.0708
  782POPS   C2B11874  15.824   6.451   7.193 -0.0813  0.0546 -0.0504
  782POPS   C3B11875  15.956   6.366   7.623  0.3329 -0.2373 -0.1739
  782POPS   C4B11876  16.243   6.488   7.918 -0.1912 -0.1813  0.0011
  783POPS   CNO11877   4.166  13.317   5.542  0.5344 -0.0687 -0.0521
  783POPS   PO411878   4.397  13.377   5.868  0.0692  0.0420  0.1345
  783POPS   GL111879   4.097  13.520   6.018 -0.0057 -0.3065  0.0602
  783POPS   GL211880   4.267  13.653   6.396  0.1526 -0.0419 -0.0377
  783POPS   C1A11881   3.766  13.679   6.280 -0.0863  0.2371 -0.2845
  783POPS   D2A11882   3.606  13.642   6.663  0.0125 -0.0104  0.0530
  783POPS   C3A11883   3.643  13.615   7.093  0.0719 -0.4130 -0.0387
  783POPS   C4A11884   3.685  13.844   7.389  0.2586  0.0288  0.1943
  783POPS   C1B11885   4.097  13.955   6.606  0.2354  0.1989  0.0042
  783POPS   C2B11886   3.989  14.065   7.080 -0.1340  0.1810 -0.1587
  783POPS   C3B11887   3.980  14.285   7.500 -0.2829 -0.2462  0.3511
  783POPS   C4B11888   4.072  14.423   7.905 -0.0895 -0.0115 -0.3081
  784POPS   CNO11889   2.668   2.794   5.896  0.0203 -0.3495  0.0569
  784POPS   PO411890   2.452   2.907   6.304  0.1308 -0.2386 -0.1078
  784POPS   GL111891   2.377   2.898   6.705  0.3887 -0.1525 -0.0829
  784POPS   GL211892   2.270   2.852   6.936  0.0336 -0.0699  0.2905
  784POPS   C1A11893   2.618   3.168   7.107 -0.2167  0.2717 -0.1408
  784POPS   D2A11894   2.614   3.128   7.537  0.1113  0.0295 -0.1488
  784POPS   C3A11895   2.748   3.472   7.898 -0.1947 -0.0260 -0.2089
  784POPS   C4A11896   2.691   3.818   8.263 -0.0757 -0.4629  0.0177
  784POPS   C1B11897   2.168   2.946   7.345 -0.0656  0.4010  0.1099
  784POPS   C2B11898   2.120   3.036   7.731  0.0730  0.3957  0.3476
  784POPS   C3B11899   1.990   3.102   8.117 -0.2875  0.4688  0.1160
  784POPS   C4B11900   1.872   2.836   8.456  0.0289 -0.2044 -0.1595
  785POPS   CNO11901   8.034  13.397   5.328 -0.0479  0.0320 -0.1884
  785POPS   PO411902   7.978  13.775   5.242 -0.4675 -0.0504  0.1509
  785POPS   GL111903   7.696  13.759   5.630  0.0345  0.2479 -0.0323
  785POPS   GL211904   7.773  13.661   5.936 -0.0648  0.1079 -0.1668
  785POPS   C1A11905   7.461  14.076   5.899 -0.0358  0.1276 -0.1050
  785POPS   D2A11906   7.698  14.265   6.316  0.0130 -0.0481 -0.2352
  785POPS   C3A11907   7.967  14.476   6.662 -0.2666  0.1353 -0.0813
  785POPS   C4A11908   8.259  14.392   6.775 -0.1982  0.2127  0.2901
  785POPS   C1B11909   7.631  13.777   6.340 -0.2060  0.2834  0.0268
  785POPS   C2B11910   7.583  13.550   6.698  0.0404 -0.1132  0.1372
  785POPS   C3B11911   7.808  13.667   7.085  0.1878  0.2905  0.2737
  785POPS   C4B11912   8.099  13.429   7.314  0.1578 -0.2711  0.1633
  786POPS   CNO11913  17.099   8.659   6.149 -0.2156 -0.2322  0.3110
  786POPS   PO411914  17.597   8.468   5.876 -0.0763  0.2773 -0.1841
  786POPS   GL111915  17.786   8.384   6.285  0.0334 -0.1666  0.1524
  786POPS   GL211916  18.076   8.628   6.318 -0.3061  0.1896  0.2189
  786POPS   C1A11917  17.814   8.279   6.697 -0.3740  0.0470 -0.0871
  786POPS   D2A11918  17.681   8.410   7.094  0.0959 -0.2913  0.1804
  786POPS   C3A11919  17.285   8.174   7.067  0.0818 -0.0407 -0.3775
  786POPS   C4A11920  17.087   7.854   6.930  0.3269 -0.3681 -0.2621
  786POPS   C1B11921  18.346   8.359   6.578 -0.0915  0.0302 -0.0675
  786POPS   C2B11922  18.394   8.126   7.004  0.1650 -0.1112 -0.1018
  786POPS   C3B11923  18.397   7.876   7.458  0.1232 -0.2476  0.3518
  786POPS   C4B11924  18.541   7.621   7.764 -0.0773  0.0536  0.1275
  787POPS   CNO11925   8.792   0.755   5.692 -0.1936  0.3471 -0.4067
  787POPS   PO411926   8.534   0.410   5.740  0.2057 -0.1479 -0.0681
  787POPS   GL111927   8.425   0.195   6.260 -0.4593  0.4011  0.1802
  787POPS   GL211928   8.167  -0.132   6.358  0.0831  0.3514  0.0016
  787POPS   C1A11929   8.302   0.427   6.559 -0.2671  0.0595  0.1755
  787POPS   D2A11930   8.320   0.531   7.103 -0.2627  0.2449  0.1919
  787POPS   C3A11931   8.236   0.650   7.508 -0.2571 -0.0018  0.1915
  787POPS   C4A11932   8.529   0.873   7.806 -0.0212  0.0347 -0.0707
  787POPS   C1B11933   7.858  -0.090   6.777  0.1731 -0.0612 -0.2314
  787POPS   C2B11934   7.801  -0.383   7.183  0.3259  0.3083  0.1055
  787POPS   C3B11935   7.522  -0.536   7.484 -0.1594 -0.2152  0.1635
  787POPS   C4B11936   7.576  -0.620   7.903  0.0115  0.0131  0.1791
  788POPS   CNO11937  13.778  10.668   5.291  0.1802 -0.0326  0.0721
  788POPS   PO411938  13.942  10.754   5.727 -0.2739  0.0728 -0.2824
  788POPS   GL111939  13.923  10.643   6.135 -0.1956  0.0613 -0.1209
  788POPS   GL211940  13.610  10.604   6.349  0.1944 -0.1507  0.0351
  788POPS   C1A11941  14.220  10.531   6.545  0.2050 -0.1929 -0.1657
  788POPS   D2A11942  14.141  10.523   6.998  0.0781  0.2021 -0.1088
  788POPS   C3A11943  14.312  10.136   7.288  0.1517 -0.0297  0.1563
  788POPS   C4A11944  14.290  10.062   7.675  0.2803  0.0714  0.0769
  788POPS   C1B11945  13.868  10.869   6.625 -0.3149 -0.2083  0.2125
  788POPS   C2B11946  13.914  11.022   7.058  0.1485 -0.1651  0.0177
  788POPS   C3B11947  14.040  11.434   7.191  0.0826  0.1720 -0.3191
  788POPS   C4B11948  14.103  11.809   7.326  0.0821 -0.2942 -0.1454
  789POPS   CNO11949  14.534   5.172   5.869  0.3545 -0.2480  0.1125
  789POPS   PO411950  14.294   5.499   5.781 -0.0248 -0.0727  0.2347
  789POPS   GL111951  14.161   5.435   6.161 -0.2709 -0.0348  0.0765
  789POPS   GL211952  14.150   5.112   6.246 -0.0617 -0.2512 -0.0543
  789POPS   C1A11953  14.282   5.390   6.673 -0.0608  0.0703  0.0929
  789POPS   D2A11954  14.544   5.285   7.007 -0.2764  0.1706  0.0822
  789POPS   C3A11955  15.027   5.320   7.050 -0.1320  0.3147  0.3018
  789POPS   C4A11956  15.238   5.720   7.221 -0.1741  0.2672  0.2684
  789POPS   C1B11957  14.560   5.176   6.351 -0.1949 -0.0272  0.0474
  789POPS   C2B11958  14.887   5.296   6.589  0.0171  0.1941  0.0628
  789POPS   C3B11959  15.251   5.015   6.678 -0.0107  0.1839  0.3438
  789POPS   C4B11960  15.669   4.978   6.614  0.2285 -0.0056 -0.0092
  790POPS   CNO11961  14.605  15.745   6.236  0.1210  0.1705  0.0752
  790POPS   PO411962  14.165  15.882   6.129 -0.3229  0.4052 -0.0699
  790POPS   GL111963  14.106  16.129   6.511  0.0147 -0.2670  0.1696
  790POPS   GL211964  14.413  16.179   6.520 -0.0639  0.2011 -0.1751
  790POPS   C1A11965  14.024  15.940   6.888 -0.2053  0.1762 -0.0336
  790POPS   D2A11966  13.885  15.831   7.334 -0.0813 -0.1773  0.2006
  790POPS   C3A11967  13.536  15.500   7.377 -0.0553  0.0323  0.1103
  790POPS   C4A11968  13.352  15.228   7.070 -0.1527  0.2395 -0.0245
  790POPS   C1B11969  14.517  16.238   6.938  0.1876 -0.0584 -0.1457
  790POPS   C2B11970  14.556  16.363   7.332 -0.1082 -0.1287  0.2370
  790POPS   C3B11971  14.679  16.709   7.427 -0.3079  0.3609  0.0916
  790POPS   C4B11972  14.845  17.130   7.529 -0.2041 -0.1208 -0.0414
  791POPS   CNO11973  11.682   9.576   5.457 -0.2568 -0.1108  0.2104
  791POPS   PO411974  11.294   9.713   5.684  0.1732 -0.0727 -0.0867
  791POPS   GL111975  11.109   9.484   5.937 -0.0120 -0.0018  0.3094
  791POPS   GL211976  10.864   9.086   5.948  0.0040 -0.0935  0.1360
  791POPS   C1A11977  11.100   9.332   6.315  0.3244  0.1195 -0.1089
  791POPS   D2A11978  11.066   9.135   6.648 -0.1907  0.2103  0.1256
  791POPS   C3A11979  11.053   9.389   6.981  0.3018  0.1700 -0.0095
  791POPS   C4A11980  11.213   9.735   7.234 -0.0478 -0.3026 -0.3289
  791POPS   C1B11981  10.592   9.080   6.343 -0.2689 -0.2161 -0.1080
  791POPS   C2B11982  10.273   9.209   6.346  0.0461  0.1895  0.2651
  791POPS   C3B11983   9.939   9.419   6.636 -0.1989  0.0195  0.1166
  791POPS   C4B11984   9.615   9.652   6.694 -0.2960  0.3459 -0.2431
  792POPS   CNO11985  16.272   3.476   6.447  0.1991  0.0079  0.0074
  792POPS   PO411986  15.943   3.587   6.167 -0.1445 -0.0229  0.0434
  792POPS   GL111987  15.782   3.590   6.553  0.5536  0.0358 -0.1608
  792POPS   GL211988  15.924   3.421   6.820  0.0145  0.1278 -0.0931
  792POPS   C1A11989  15.427   3.503   6.783 -0.0605 -0.3212  0.0723
  792POPS   D2A11990  15.220   3.306   7.037  0.1038 -0.3370 -0.1134
  792POPS   C3A11991  15.187   2.949   7.240 -0.1866 -0.2803 -0.0360
  792POPS   C4A11992  15.364   2.914   7.613  0.3979  0.0306  0.1310
  792POPS   C1B11993  15.872   3.873   6.965 -0.1622  0.3368 -0.2892
  792POPS   C2B11994  16.002   4.050   7.361  0.1281  0.0018 -0.0060
  792POPS   C3B11995  16.051   4.112   7.811 -0.4180  0.1949 -0.1473
  792POPS   C4B11996  16.016   3.985   8.228  0.2528 -0.1384  0.2481
  793POPS   CNO11997  16.213  13.769   5.590  0.0510 -0.0277  0.0931
  793POPS   PO411998  16.114  14.091   5.948  0.2045  0.2401  0.1336
  793POPS   GL111999  16.101  14.045   6.375 -0.1146  0.0451  0.1492
  793POPS   GL212000  16.349  14.309   6.516 -0.1809  0.2058  0.1752
  793POPS   C1A12001  16.107  14.002   6.801  0.1137 -0.1168  0.2601
  793POPS   D2A12002  16.370  14.051   7.236 -0.0880 -0.1538  0.0055
  793POPS   C3A12003  16.457  13.846   7.683  0.0532 -0.1653 -0.3506
  793POPS   C4A12004  16.503  13.442   7.890  0.0014 -0.0151 -0.0415
  793POPS   C1B12005  16.728  14.303   6.831 -0.3175 -0.3290 -0.2005
  793POPS   C2B12006  17.044  14.210   7.106 -0.2509 -0.2094  0.0607
  793POPS   C3B12007  17.362  14.415   7.354  0.2296 -0.0811 -0.0460
  793POPS   C4B12008  17.587  14.380   7.604  0.2887 -0.5253 -0.4121
  794POPS   CNO12009  14.422   3.007   5.861  0.0683 -0.1480  0.0673
  794POPS   PO412010  14.489   3.326   6.077 -0.0336 -0.1470 -0.0109
  794POPS   GL112011  14.151   3.262   6.436 -0.0880  0.2256  0.0675
  794POPS   GL212012  14.328   2.984   6.598  0.0286 -0.1207  0.3199
  794POPS   C1A12013  13.845   3.417   6.742  0.2178  0.0374  0.1061
  794POPS   D2A12014  13.797   3.524   7.122 -0.2014  0.4115 -0.0751
  794POPS   C3A12015  13.622   3.318   7.369 -0.0500  0.0597 -0.2896
  794POPS   C4A12016  13.374   3.138   7.715  0.2039 -0.1033  0.0739
  794POPS   C1B12017  14.242   3.182   6.913  0.1993 -0.1566 -0.0187
  794POPS   C2B12018  14.190   3.289   7.276  0.4393  0.1351 -0.0681
  794POPS   C3B12019  14.185   3.599   7.523  0.0577 -0.0015  0.4459
  794POPS   C4B12020  14.241   3.809   7.848  0.2650 -0.1590  0.0099
  795POPS   CNO12021  14.208   3.825   5.775 -0.2065  0.2549 -0.1388
  795POPS   PO412022  14.365   4.168   5.960 -0.1094 -0.1506 -0.0435
  795POPS   GL112023  14.245   4.221   6.372 -0.1735  0.1754  0.0848
  795POPS   GL212024  14.548   4.161   6.476 -0.0362 -0.0985 -0.1317
  795POPS   C1A12025  14.015   4.292   6.685 -0.1031 -0.0000  0.0142
  795POPS   D2A12026  13.743   4.469   6.855  0.2039  0.3495 -0.0830
  795POPS   C3A12027  13.769   4.765   7.231  0.0657 -0.1993 -0.3990
  795POPS   C4A12028  13.487   4.864   7.627  0.1130  0.2401 -0.2957
  795POPS   C1B12029  14.494   4.385   6.888 -0.3455 -0.1824  0.0950
  795POPS   C2B12030  14.372   4.369   7.231 -0.3003 -0.0728  0.2326
  795POPS   C3B12031  14.523   4.319   7.696 -0.4518 -0.3010  0.0745
  795POPS   C4B12032  14.632   4.232   8.087 -0.1116  0.0121 -0.1944
  796POPS   CNO12033  13.285   9.053   5.345 -0.1977  0.0844  0.0215
  796POPS   PO412034  13.491   9.032   5.712 -0.2058 -0.0309  0.0612
  796POPS   GL112035  13.554   9.099   6.143  0.1103  0.0984  0.0757
  796POPS   GL212036  13.592   8.885   6.379  0.1261 -0.1211  0.0629
  796POPS   C1A12037  13.934   9.292   6.423  0.0160  0.1429 -0.1466
  796POPS   D2A12038  14.270   9.445   6.605  0.2225  0.2115 -0.1172
  796POPS   C3A12039  14.423   9.833   6.462 -0.0254 -0.1213 -0.0306
  796POPS   C4A12040  14.572  10.057   6.270 -0.1988  0.2565 -0.0145
  796POPS   C1B12041  13.884   8.801   6.443 -0.3963  0.0548  0.4508
  796POPS   C2B12042  14.071   8.468   6.720 -0.0434  0.4675 -0.0059
  796POPS   C3B12043  14.371   8.051   6.875  0.0286 -0.1447  0.2239
  796POPS   C4B12044  14.545   7.935   7.308  0.0565  0.1938  0.4830
  797POPS   CNO12045   9.839   6.445   5.312  0.3595  0.1108  0.0814
  797POPS   PO412046   9.510   6.747   5.539 -0.0824 -0.1147 -0.0490
  797POPS   GL112047   9.439   6.763   6.058  0.1941 -0.2975 -0.1607
  797POPS   GL212048   9.700   6.627   6.290 -0.0622  0.0022 -0.0966
  797POPS   C1A12049   9.282   6.988   6.483  0.0695 -0.0169  0.0155
  797POPS   D2A12050   9.313   7.018   6.857  0.1469  0.1156  0.0762
  797POPS   C3A12051   9.140   6.882   7.294 -0.0046 -0.2054  0.2039
  797POPS   C4A12052   9.455   6.916   7.761 -0.2188 -0.0535 -0.3440
  797POPS   C1B12053   9.655   6.651   6.658  0.0410  0.1553 -0.2631
  797POPS   C2B12054   9.753   6.726   7.050  0.3553 -0.1336  0.3040
  797POPS   C3B12055   9.849   6.590   7.494 -0.0881 -0.0834 -0.0997
  797POPS   C4B12056   9.649   6.453   7.975 -0.1520 -0.0706  0.2970
  798POPS   CNO12057  18.292  11.145   6.343  0.1274 -0.0341 -0.0685
  798POPS   PO412058  18.636  10.836   6.090 -0.0309  0.0149 -0.0165
  798POPS   GL112059  18.709  10.798   6.452 -0.0088  0.0085 -0.0922
  798POPS   GL212060  18.444  10.612   6.543 -0.1546 -0.0969  0.1630
  798POPS   C1A12061  18.974  10.709   6.813 -0.2357  0.1751 -0.2744
  798POPS   D2A12062  19.391  10.825   6.952  0.0151 -0.0820  0.3113
  798POPS   C3A12063  19.389  11.108   7.395  0.0178 -0.0312  0.1434
  798POPS   C4A12064  19.382  10.959   7.803 -0.0999  0.1230 -0.1448
  798POPS   C1B12065  18.679  10.358   6.757  0.2327  0.3419  0.0440
  798POPS   C2B12066  18.800  10.452   7.238  0.3348  0.3094 -0.1025
  798POPS   C3B12067  19.177  10.491   7.394  0.0289 -0.0787  0.0873
  798POPS   C4B12068  19.551  10.648   7.483  0.1004  0.3056  0.1434
  799POPS   CNO12069  17.445   5.519   5.824 -0.2789 -0.2108  0.3043
  799POPS   PO412070  17.028   5.401   5.882  0.2409  0.1542 -0.3096
  799POPS   GL112071  17.100   5.225   6.284  0.1239  0.1880  0.1409
  799POPS   GL212072  17.057   4.964   6.236 -0.0640  0.2356 -0.1342
  799POPS   C1A12073  17.168   5.104   6.765 -0.0668  0.1215  0.0138
  799POPS   D2A12074  17.160   4.798   7.137 -0.2593 -0.1797 -0.2910
  799POPS   C3A12075  16.985   4.351   7.388  0.3248  0.0313 -0.2669
  799POPS   C4A12076  16.482   4.309   7.639  0.0768  0.2051  0.0024
  799POPS   C1B12077  16.961   4.602   6.545  0.2207  0.1371 -0.3382
  799POPS   C2B12078  16.893   4.287   6.882  0.1636 -0.4218 -0.2864
  799POPS   C3B12079  16.868   3.878   7.140  0.1587 -0.2691 -0.2098
  799POPS   C4B12080  17.111   3.727   7.412 -0.1640 -0.2269  0.0820
  800POPS   CNO12081   1.005   0.456   5.951 -0.2240 -0.1094 -0.2854
  800POPS   PO412082   0.836   0.192   6.254  0.1128 -0.1556  0.0563
  800POPS   GL112083   0.908   0.189   6.628 -0.0756  0.2450  0.1064
  800POPS   GL212084   1.117   0.011   6.663 -0.2462 -0.0115 -0.4993
  800POPS   C1A12085   0.644   0.184   6.984  0.2426  0.3550  0.3145
  800POPS   D2A12086   0.597   0.340   7.420  0.3418  0.0055 -0.1143
  800POPS   C3A12087   0.774   0.228   7.800 -0.1723  0.1453  0.0900
  800POPS   C4A12088   0.920  -0.131   8.086 -0.0468  0.0547 -0.2301
  800POPS   C1B12089   1.220   0.275   7.044 -0.1509 -0.0193  0.2446
  800POPS   C2B12090   1.104   0.344   7.409  0.1007 -0.0130 -0.0782
  800POPS   C3B12091   1.243   0.706   7.688  0.2433  0.0957 -0.2451
  800POPS   C4B12092   1.192   1.097   7.546  0.0644  0.0653 -0.1130
  801POPS   CNO12093   0.112  11.284   5.911 -0.1244 -0.2311 -0.0720
  801POPS   PO412094   0.141  11.615   6.035  0.3324 -0.1160  0.1825
  801POPS   GL112095   0.074  11.595   6.536 -0.2231  0.0704  0.1588
  801POPS   GL212096  -0.150  11.740   6.621  0.0759 -0.3396 -0.0792
  801POPS   C1A12097   0.057  11.281   6.844  0.0094 -0.1109 -0.1783
  801POPS   D2A12098   0.076  10.781   6.972 -0.1065  0.0523 -0.1239
  801POPS   C3A12099  -0.036  10.554   7.359  0.1227 -0.0661 -0.2878
  801POPS   C4A12100  -0.059  10.769   7.744  0.1064 -0.1097  0.2024
  801POPS   C1B12101  -0.339  12.083   6.755 -0.2554  0.3902  0.2374
  801POPS   C2B12102  -0.490  12.139   7.152 -0.0454 -0.3787 -0.1766
  801POPS   C3B12103  -0.425  11.736   7.490 -0.1979  0.0882  0.0971
  801POPS   C4B12104  -0.780  11.680   7.817  0.2328 -0.0669 -0.1754
  802POPS   CNO12105   4.226  15.591   5.554 -0.1120  0.0222 -0.2298
  802POPS   PO412106   4.397  15.198   5.631  0.0166 -0.0281  0.1321
  802POPS   GL112107   4.359  15.023   6.046 -0.1801  0.0025 -0.1784
  802POPS   GL212108   4.703  15.006   6.181  0.3197 -0.1401 -0.0679
  802POPS   C1A12109   4.071  15.057   6.458 -0.4239  0.1602  0.1342
  802POPS   D2A12110   3.775  15.277   6.753 -0.0772 -0.1879 -0.1135
  802POPS   C3A12111   3.824  15.163   7.201 -0.0312  0.1827  0.1045
  802POPS   C4A12112   4.029  15.299   7.579  0.1202 -0.0384  0.3821
  802POPS   C1B12113   4.799  15.098   6.566 -0.2021  0.2752  0.0236
  802POPS   C2B12114   4.896  15.125   7.018 -0.0961 -0.0097 -0.0119
  802POPS   C3B12115   5.003  15.076   7.445  0.1829 -0.2227 -0.1830
  802POPS   C4B12116   4.641  15.218   7.805  0.1445 -0.1937  0.2304
  803POPS   CNO12117  10.321  16.747   5.844 -0.2495  0.0192  0.0265
  803POPS   PO412118  10.747  16.521   6.003 -0.0420 -0.1183 -0.1551
  803POPS   GL112119  10.733  16.540   6.499  0.1055 -0.1086 -0.0250
  803POPS   GL212120  10.770  16.154   6.622  0.2722 -0.0180 -0.2753
  803POPS   C1A12121  10.886  16.657   6.933  0.2549  0.3678 -0.3445
  803POPS   D2A12122  11.059  16.298   7.158 -0.1189 -0.0718 -0.1255
  803POPS   C3A12123  11.247  16.208   7.591  0.0798  0.1953 -0.2674
  803POPS   C4A12124  11.533  16.127   7.876 -0.1820  0.2252 -0.1197
  803POPS   C1B12125  10.588  16.019   6.981 -0.1313 -0.4713  0.1921
  803POPS   C2B12126  10.715  15.895   7.353  0.0940 -0.0171  0.1661
  803POPS   C3B12127  10.988  15.741   7.737  0.3788  0.0155 -0.0720
  803POPS   C4B12128  11.094  15.856   8.125  0.0851 -0.1063 -0.0207
  804POPS   CNO12129  15.151  15.129   5.814  0.1759  0.1518 -0.1330
  804POPS   PO412130  15.447  14.920   5.838  0.2333 -0.2608  0.2100
  804POPS   GL112131  15.454  15.117   6.271 -0.1696  0.1247  0.3445
  804POPS   GL212132  15.473  14.853   6.434 -0.3182  0.2545 -0.0116
  804POPS   C1A12133  15.415  15.389   6.581 -0.2631 -0.0557 -0.3034
  804POPS   D2A12134  15.548  15.328   6.998 -0.3826 -0.2080  0.1731
  804POPS   C3A12135  15.443  15.179   7.344 -0.0471 -0.0238 -0.2136
  804POPS   C4A12136  15.432  14.790   7.545 -0.2228 -0.2535  0.1280
  804POPS   C1B12137  15.372  14.870   6.866  0.1657 -0.0617 -0.2357
  804POPS   C2B12138  15.136  14.864   7.120  0.0431 -0.1849 -0.1397
  804POPS   C3B12139  14.926  15.005   7.547 -0.0675  0.0552 -0.6260
  804POPS   C4B12140  15.102  14.824   7.960 -0.1269  0.3096 -0.0400
  805POPS   CNO12141  13.624  11.549   5.662 -0.0053 -0.0464 -0.2556
  805POPS   PO412142  13.966  11.668   6.020 -0.0293  0.0699  0.1613
  805POPS   GL112143  13.920  11.868   6.413  0.1738  0.2632  0.0068
  805POPS   GL212144  14.163  11.852   6.449 -0.1647  0.0886  0.2934
  805POPS   C1A12145  13.979  11.905   6.886  0.0795 -0.0166 -0.0601
  805POPS   D2A12146  13.650  12.046   7.307 -0.0257  0.0367 -0.2499
  805POPS   C3A12147  13.750  11.893   7.647  0.0066 -0.0926  0.1619
  805POPS   C4A12148  13.951  11.487   7.698  0.1124  0.0639  0.2957
  805POPS   C1B12149  14.307  11.514   6.788  0.0434  0.1629 -0.2090
  805POPS   C2B12150  14.516  11.571   7.118 -0.1993  0.1126 -0.0991
  805POPS   C3B12151  14.452  11.425   7.510 -0.0173  0.2052  0.2779
  805POPS   C4B12152  14.177  11.071   7.558 -0.1836 -0.1789 -0.2604
  806YOPS   CNO12153   4.879   0.433   6.101 -0.0479  0.3673  0.1468
  806YOPS   PO412154   4.818  -0.052   6.017  0.1510 -0.0438 -0.1788
  806YOPS   GL112155   4.772  -0.075   6.446  0.0950 -0.0907  0.1990
  806YOPS   GL212156   4.490  -0.321   6.466  0.0842 -0.0334 -0.3017
  806YOPS   C1A12157   4.899  -0.186   6.897 -0.3015  0.2235  0.1694
  806YOPS   D2A12158   4.732  -0.152   7.355  0.2211  0.2942  0.0048
  806YOPS   C3A12159   4.648  -0.317   7.826  0.1412  0.0123  0.4755
  806YOPS   C4A12160   4.876  -0.679   7.896 -0.2998  0.0229 -0.1459
  806YOPS   C1B12161   4.347  -0.225   6.876 -0.4085 -0.0477  0.2809
  806YOPS   C2B12162   4.137  -0.109   7.169  0.1524  0.0997  0.0445
  806YOPS   D3B12163   3.840   0.035   7.408 -0.1145 -0.0967  0.5724
  806YOPS   C4B12164   3.443  -0.127   7.302  0.0438  0.0798  0.2628
  807YOPS   CNO12165   5.607   0.513   5.452 -0.0381 -0.2779  0.3013
  807YOPS   PO412166   5.669   0.246   5.765  0.0180 -0.3880 -0.0027
  807YOPS   GL112167   5.393   0.441   6.034 -0.2143 -0.0587 -0.0599
  807YOPS   GL212168   5.290   0.300   6.321  0.3671 -0.1205  0.0621
  807YOPS   C1A12169   5.635   0.670   6.355 -0.1368  0.0108  0.1376
  807YOPS   D2A12170   5.780   0.526   6.706 -0.1331  0.1817 -0.0657
  807YOPS   C3A12171   6.021   0.497   7.147 -0.1377 -0.3626  0.2834
  807YOPS   C4A12172   5.658   0.413   7.444  0.0216  0.3335  0.0671
  807YOPS   C1B12173   5.139   0.221   6.627  0.1749  0.0598 -0.3363
  807YOPS   C2B12174   5.260   0.109   7.019 -0.0334 -0.3172  0.4074
  807YOPS   D3B12175   5.192   0.231   7.386  0.2042  0.2492  0.0742
  807YOPS   C4B12176   4.703   0.519   7.426  0.0190 -0.0958  0.5176
  808YOPS   CNO12177  11.733   8.757   5.819 -0.2245  0.0885  0.0585
  808YOPS   PO412178  11.563   8.359   5.830  0.0271  0.0364  0.1467
  808YOPS   GL112179  11.420   8.494   6.180 -0.2067  0.2367  0.1111
  808YOPS   GL212180  11.211   8.294   6.198 -0.0336  0.4115  0.5366
  808YOPS   C1A12181  11.368   8.732   6.576  0.0150 -0.1915 -0.1647
  808YOPS   D2A12182  11.299   8.886   7.023  0.3136 -0.1730  0.1507
  808YOPS   C3A12183  11.201   8.974   7.407 -0.1378 -0.0841 -0.0644
  808YOPS   C4A12184  11.143   9.395   7.573  0.2794 -0.1081 -0.3608
  808YOPS   C1B12185  11.103   8.204   6.553  0.0529  0.1202 -0.0719
  808YOPS   C2B12186  11.081   8.257   6.883  0.1473  0.1773  0.0643
  808YOPS   D3B12187  10.918   7.905   7.225  0.1347 -0.4184  0.2302
  808YOPS   C4B12188  10.537   7.887   7.522 -0.5140 -0.3560 -0.1114
  809YOPS   CNO12189  14.446   0.801   6.225  0.0222 -0.2552 -0.3382
  809YOPS   PO412190  14.838   0.693   6.173 -0.2106 -0.0869  0.1590
  809YOPS   GL112191  15.045   0.729   6.634  0.0074  0.0710  0.0246
  809YOPS   GL212192  14.676   0.578   6.741 -0.1566 -0.2967  0.1438
  809YOPS   C1A12193  15.246   0.577   6.908 -0.0052 -0.2402  0.3838
  809YOPS   D2A12194  15.174   0.383   7.262 -0.1941 -0.1919 -0.1947
  809YOPS   C3A12195  15.373   0.267   7.574  0.4737 -0.0326  0.0750
  809YOPS   C4A12196  15.233  -0.034   7.955 -0.0879 -0.0273  0.1759
  809YOPS   C1B12197  14.882   0.720   7.119 -0.0527 -0.3558  0.0017
  809YOPS   C2B12198  15.056   0.671   7.603  0.0486 -0.1483  0.2929
  809YOPS   D3B12199  15.195   0.550   7.971 -0.2533 -0.0908  0.0006
  809YOPS   C4B12200  15.597   0.577   8.109 -0.0649 -0.0935 -0.0733
  810YOPS   CNO12201   0.085   2.467   6.415 -0.3054  0.3392  0.0002
  810YOPS   PO412202   0.261   2.115   6.240 -0.0376 -0.2303 -0.2262
  810YOPS   GL112203   0.199   2.043   6.678 -0.2341  0.0661  0.0730
  810YOPS   GL212204  -0.166   1.951   6.783 -0.0509  0.0983  0.3269
  810YOPS   C1A12205   0.212   2.053   7.135  0.0634  0.1155  0.1052
  810YOPS   D2A12206   0.303   2.092   7.587 -0.1997  0.0173  0.0738
  810YOPS   C3A12207   0.497   2.365   7.905 -0.1499 -0.0261  0.1713
  810YOPS   C4A12208   0.492   2.721   8.253  0.2274 -0.0040 -0.1803
  810YOPS   C1B12209  -0.271   1.961   7.146 -0.2954 -0.0598  0.1029
  810YOPS   C2B12210  -0.242   1.936   7.616 -0.1569 -0.1553 -0.1257
  810YOPS   D3B12211  -0.346   1.674   7.955 -0.3503 -0.4383  0.0926
  810YOPS   C4B12212  -0.023   1.638   8.347 -0.2956  0.1014  0.1417
  811YOPS   CNO12213   1.994  15.927   6.065 -0.2612 -0.1842  0.3778
  811YOPS   PO412214   2.387  15.880   5.875 -0.1451 -0.2798 -0.0986
  811YOPS   GL112215   2.347  15.556   6.160  0.0954 -0.2657  0.3996
  811YOPS   GL212216   2.650  15.619   6.409  0.0442 -0.0130  0.1991
  811YOPS   C1A12217   2.119  15.421   6.558 -0.1675 -0.2670  0.0556
  811YOPS   D2A12218   2.002  15.459   6.940 -0.1416 -0.0564  0.1508
  811YOPS   C3A12219   2.049  15.273   7.306 -0.1527  0.1414 -0.0325
  811YOPS   C4A12220   2.074  14.816   7.361 -0.1089 -0.0318 -0.4167
  811YOPS   C1B12221   2.441  15.685   6.813  0.2342  0.3324 -0.1301
  811YOPS   C2B12222   2.521  15.499   7.225  0.2939 -0.2545  0.0754
  811YOPS   D3B12223   2.511  15.207   7.608  0.0230  0.0829  0.0863
  811YOPS   C4B12224   2.885  15.043   7.724 -0.0443 -0.1221  0.2006
  812YOPS   CNO12225   4.398   3.793   5.745  0.1741 -0.1909 -0.0419
  812YOPS   PO412226   4.426   4.059   6.121 -0.1668  0.2470  0.3971
  812YOPS   GL112227   4.626   4.444   6.418  0.1975 -0.0373 -0.0987
  812YOPS   GL212228   4.818   4.743   6.355  0.2474 -0.0700 -0.0288
  812YOPS   C1A12229   4.831   4.369   6.778 -0.1333  0.4259 -0.2695
  812YOPS   D2A12230   4.948   4.520   7.089  0.0014 -0.0543  0.0008
  812YOPS   C3A12231   5.064   4.711   7.515  0.1368  0.4319  0.0739
  812YOPS   C4A12232   5.410   4.750   7.527  0.0827 -0.2374 -0.2401
  812YOPS   C1B12233   4.672   4.842   6.858 -0.0116 -0.0197  0.3607
  812YOPS   C2B12234   4.631   5.027   7.160  0.1187  0.0671 -0.0059
  812YOPS   D3B12235   4.676   5.120   7.600 -0.1063 -0.0205 -0.3894
  812YOPS   C4B12236   4.372   5.311   7.809 -0.0550  0.0624 -0.2145
  813YOPS   CNO12237  16.939  16.065   5.733 -0.3647 -0.0047  0.0838
  813YOPS   PO412238  17.148  15.645   5.799  0.0144 -0.4434  0.0905
  813YOPS   GL112239  17.043  15.906   6.197  0.0477 -0.0749  0.0861
  813YOPS   GL212240  17.130  16.236   6.178 -0.1001  0.3431  0.2520
  813YOPS   C1A12241  17.151  15.929   6.610  0.1096  0.2145 -0.1163
  813YOPS   D2A12242  17.135  15.912   7.058 -0.4256 -0.0905  0.1150
  813YOPS   C3A12243  17.216  16.207   7.402 -0.1080  0.2485 -0.1015
  813YOPS   C4A12244  17.654  16.116   7.602  0.0552  0.1239  0.0608
  813YOPS   C1B12245  16.984  16.402   6.574 -0.2794  0.3814  0.1959
  813YOPS   C2B12246  16.904  16.361   6.969 -0.3133 -0.4100  0.0333
  813YOPS   D3B12247  16.733  16.090   7.262  0.0313  0.0173 -0.0442
  813YOPS   C4B12248  16.685  16.208   7.549  0.0282 -0.0589  0.0338
  814YOPS   CNO12249   8.488  13.183   5.527  0.0789 -0.0747  0.1027
  814YOPS   PO412250   8.815  13.074   5.700 -0.0521  0.1960  0.0237
  814YOPS   GL112251   9.060  13.167   6.020 -0.2238 -0.0137  0.0062
  814YOPS   GL212252   8.960  13.466   6.262 -0.2510  0.0849  0.0523
  814YOPS   C1A12253   9.193  13.044   6.347  0.4360 -0.1124 -0.5094
  814YOPS   D2A12254   9.107  12.917   6.729  0.2447 -0.1462 -0.0249
  814YOPS   C3A12255   8.726  12.759   6.986  0.1233 -0.3807  0.0666
  814YOPS   C4A12256   8.713  12.654   7.380 -0.3254  0.3898  0.1741
  814YOPS   C1B12257   9.265  13.499   6.651  0.0498  0.2351  0.1327
  814YOPS   C2B12258   9.275  13.294   7.074 -0.0051 -0.1422 -0.0727
  814YOPS   D3B12259   9.343  13.514   7.508  0.1140 -0.0984  0.2435
  814YOPS   C4B12260   9.133  13.766   7.870  0.0889 -0.2134 -0.0758
  815YOPS   CNO12261   4.252  16.572   6.065  0.3922 -0.4791 -0.2354
  815YOPS   PO412262   3.876  16.782   6.002 -0.0201  0.0915  0.3542
  815YOPS   GL112263   3.913  17.009   6.351  0.0609 -0.0087 -0.3728
  815YOPS   GL212264   3.916  16.768   6.540 -0.2960  0.3740 -0.1434
  815YOPS   C1A12265   3.985  17.215   6.744  0.0052  0.0586  0.1073
  815YOPS   D2A12266   3.993  17.023   7.131  0.1053 -0.3636  0.1403
  815YOPS   C3A12267   4.221  16.945   7.412 -0.1686  0.0164 -0.0697
  815YOPS   C4A12268   3.893  16.969   7.678  0.0791 -0.0626 -0.0224
  815YOPS   C1B12269   4.045  16.576   6.938  0.0868  0.0033 -0.0884
  815YOPS   C2B12270   4.017  16.441   7.400  0.0499 -0.3639 -0.1311
  815YOPS   D3B12271   3.982  16.492   7.799 -0.1088  0.0657  0.1337
  815YOPS   C4B12272   4.316  16.165   7.918  0.0430 -0.2045 -0.0255
  816YOPS   CNO12273  15.291   4.656   5.708 -0.1085  0.0566  0.2702
  816YOPS   PO412274  15.361   4.439   6.152  0.0065  0.0546 -0.1814
  816YOPS   GL112275  15.358   4.107   6.472  0.1734  0.0422 -0.1181
  816YOPS   GL212276  15.013   4.071   6.439 -0.4165  0.0679  0.1714
  816YOPS   C1A12277  15.403   3.963   6.771  0.1130  0.0510  0.1108
  816YOPS   D2A12278  15.403   3.791   7.202  0.2289 -0.0800 -0.2340
  816YOPS   C3A12279  15.125   3.713   7.451 -0.0738  0.1584  0.0251
  816YOPS   C4A12280  15.231   3.712   7.834 -0.3230  0.1892  0.0525
  816YOPS   C1B12281  15.049   4.325   6.846 -0.2721 -0.3232 -0.1622
  816YOPS   C2B12282  15.372   4.705   7.026  0.2173  0.3914  0.2230
  816YOPS   D3B12283  15.341   5.016   7.306  0.0765  0.2486  0.0614
  816YOPS   C4B12284  15.572   5.126   7.642 -0.2814  0.3523  0.0047
  817YOPS   CNO12285   8.555  14.798   5.263  0.1423  0.2034 -0.0629
  817YOPS   PO412286   8.846  14.709   5.575 -0.1573 -0.2166  0.1784
  817YOPS   GL112287   8.948  14.745   6.000  0.1814  0.4295  0.0601
  817YOPS   GL212288   9.242  14.531   6.020  0.2049 -0.1286  0.0657
  817YOPS   C1A12289   9.221  14.850   6.358 -0.1971  0.0817 -0.2891
  817YOPS   D2A12290   9.149  14.656   6.865 -0.1391 -0.1932  0.0133
  817YOPS   C3A12291   9.178  14.378   7.162  0.1459  0.1718  0.2938
  817YOPS   C4A12292   9.641  14.275   7.124  0.1667 -0.1408  0.1020
  817YOPS   C1B12293   9.384  14.194   6.411 -0.2363 -0.0447  0.2744
  817YOPS   C2B12294   9.441  13.911   6.822 -0.0404  0.4743 -0.2507
  817YOPS   D3B12295   9.563  13.732   7.150 -0.0640 -0.1480  0.0506
  817YOPS   C4B12296   9.531  13.974   7.527  0.0958  0.0384  0.2294
  818YOPS   CNO12297   7.213  15.952   5.575 -0.2123 -0.2702  0.1629
  818YOPS   PO412298   7.541  15.728   5.509  0.4928  0.2137  0.1740
  818YOPS   GL112299   7.519  15.957   5.937 -0.3591 -0.0796  0.1789
  818YOPS   GL212300   7.816  15.920   5.966  0.0750  0.1755 -0.3032
  818YOPS   C1A12301   7.590  16.205   6.336 -0.0584  0.0161 -0.2216
  818YOPS   D2A12302   7.751  16.275   6.732  0.0683  0.0532  0.0207
  818YOPS   C3A12303   7.735  16.280   7.144  0.2468 -0.2905  0.0355
  818YOPS   C4A12304   7.679  15.950   7.455 -0.1316 -0.0487 -0.0227
  818YOPS   C1B12305   7.881  15.706   6.330  0.3606 -0.1609 -0.2019
  818YOPS   C2B12306   7.785  15.337   6.629 -0.0283 -0.0563  0.0248
  818YOPS   D3B12307   7.706  15.002   6.891  0.1293  0.2385  0.0807
  818YOPS   C4B12308   7.487  14.595   6.657  0.1230 -0.1858 -0.0151
  819YOPS   CNO12309   3.103   7.520   5.538 -0.0555  0.0776  0.1410
  819YOPS   PO412310   3.322   7.708   5.916 -0.0414  0.2185 -0.3283
  819YOPS   GL112311   3.332   7.664   6.418  0.1040 -0.2179 -0.1154
  819YOPS   GL212312   3.037   7.748   6.420 -0.1701 -0.3541 -0.2235
  819YOPS   C1A12313   3.495   7.546   6.802 -0.0854 -0.1466  0.0860
  819YOPS   D2A12314   3.872   7.553   7.001 -0.0982  0.1203  0.0382
  819YOPS   C3A12315   4.146   7.299   7.279 -0.2289  0.0873  0.0176
  819YOPS   C4A12316   3.958   6.887   7.432 -0.0183 -0.0240 -0.1426
  819YOPS   C1B12317   2.866   8.111   6.623 -0.0090  0.1762 -0.1532
  819YOPS   C2B12318   2.691   8.284   7.030 -0.1136 -0.2534  0.2571
  819YOPS   D3B12319   2.764   8.680   7.033  0.2773  0.0148  0.2768
  819YOPS   C4B12320   2.856   8.705   7.503 -0.0491 -0.1697 -0.1413
  820YOPS   CNO12321   2.275   9.292   6.214 -0.1799 -0.1517  0.2028
  820YOPS   PO412322   2.167   9.606   6.229 -0.5755  0.1121 -0.4726
  820YOPS   GL112323   1.983   9.813   6.530  0.1136 -0.0265 -0.2222
  820YOPS   GL212324   1.978   9.522   6.710 -0.0543 -0.1929 -0.1072
  820YOPS   C1A12325   1.909   9.989   6.937 -0.4601 -0.0633  0.0377
  820YOPS   D2A12326   2.126   9.834   7.329  0.2544  0.4010  0.3066
  820YOPS   C3A12327   2.025   9.829   7.734 -0.2404  0.0570 -0.2847
  820YOPS   C4A12328   2.136   9.549   8.019  0.2366 -0.0512 -0.1383
  820YOPS   C1B12329   2.058   9.360   7.156 -0.0192 -0.0611  0.1926
  820YOPS   C2B12330   2.174   9.319   7.586 -0.1468  0.0178  0.1437
  820YOPS   D3B12331   2.564   9.628   7.643 -0.3567  0.0182  0.3760
  820YOPS   C4B12332   2.580   9.808   7.249  0.0755 -0.0201  0.1714
  821YOPS   CNO12333   3.755   6.090   6.043 -0.0413  0.1800  0.0727
  821YOPS   PO412334   3.455   6.386   6.084 -0.1180  0.4436 -0.4682
  821YOPS   GL112335   3.646   6.429   6.449  0.2031  0.1581  0.0642
  821YOPS   GL212336   3.949   6.647   6.559 -0.0373  0.1492  0.1387
  821YOPS   C1A12337   3.797   6.131   6.732  0.0598 -0.0142  0.1540
  821YOPS   D2A12338   3.758   6.013   7.157 -0.0013 -0.2313 -0.0070
  821YOPS   C3A12339   3.404   5.962   7.421 -0.1205  0.1085  0.0856
  821YOPS   C4A12340   3.198   6.234   7.823 -0.0486  0.0566  0.1275
  821YOPS   C1B12341   3.830   6.631   7.024  0.1893  0.2051 -0.1527
  821YOPS   C2B12342   3.643   6.471   7.455  0.0040 -0.2058  0.0129
  821YOPS   D3B12343   3.796   6.064   7.788 -0.2568 -0.2391  0.2363
  821YOPS   C4B12344   3.774   5.658   7.586 -0.2223  0.0363  0.0492
  822YOPS   CNO12345   5.227   8.578   5.654 -0.0931  0.2252 -0.0314
  822YOPS   PO412346   5.124   8.955   5.675  0.0650  0.3173  0.0097
  822YOPS   GL112347   5.092   9.194   6.039 -0.0247  0.0399 -0.1693
  822YOPS   GL212348   5.406   9.089   6.184  0.0059  0.0700 -0.4051
  822YOPS   C1A12349   4.890   9.561   6.251  0.0662 -0.0163  0.0551
  822YOPS   D2A12350   4.968   9.595   6.652 -0.1304 -0.0805  0.2651
  822YOPS   C3A12351   4.878   9.741   7.045  0.0591 -0.2066  0.0183
  822YOPS   C4A12352   4.514   9.849   7.140  0.0580 -0.3160  0.0115
  822YOPS   C1B12353   5.227   9.164   6.581  0.1731  0.2307 -0.4983
  822YOPS   C2B12354   5.343   9.392   7.038  0.0200  0.1992  0.2935
  822YOPS   D3B12355   5.186   9.490   7.441  0.1675  0.0467  0.0228
  822YOPS   C4B12356   5.400   9.823   7.645  0.0088  0.1507 -0.4871
  823YOPS   CNO12357   9.601  15.264   5.159 -0.1305 -0.0078  0.0744
  823YOPS   PO412358   9.493  15.576   5.529 -0.0504  0.0735  0.0747
  823YOPS   GL112359   9.305  15.478   5.923 -0.0605 -0.3200 -0.1540
  823YOPS   GL212360   9.505  15.718   6.093 -0.0096  0.1393  0.3460
  823YOPS   C1A12361   8.946  15.438   6.225 -0.0410  0.2034  0.1686
  823YOPS   D2A12362   8.745  15.074   6.422 -0.0730 -0.3413 -0.0561
  823YOPS   C3A12363   8.681  14.707   6.625  0.2461 -0.2679  0.2415
  823YOPS   C4A12364   8.916  14.432   6.454 -0.1428  0.0705  0.2469
  823YOPS   C1B12365   9.386  15.806   6.462  0.1879  0.3121  0.1968
  823YOPS   C2B12366   9.391  15.559   6.794  0.2632  0.0162 -0.1549
  823YOPS   D3B12367   9.463  15.093   7.144  0.1785  0.0568  0.4138
  823YOPS   C4B12368   9.618  15.141   7.573  0.1252  0.1447  0.1948
  824YOPS   CNO12369  12.446   3.605   5.917 -0.0922 -0.2160  0.2156
  824YOPS   PO412370  12.624   3.278   5.794  0.2819  0.1118  0.0827
  824YOPS   GL112371  12.526   3.211   6.230 -0.0790  0.0958 -0.1792
  824YOPS   GL212372  12.664   2.897   6.424  0.0744 -0.2579  0.0271
  824YOPS   C1A12373  12.264   3.181   6.578 -0.0990 -0.1408 -0.0357
  824YOPS   D2A12374  11.997   3.229   7.029  0.0884  0.1367  0.1870
  824YOPS   C3A12375  12.054   3.254   7.473  0.2226 -0.0937 -0.2769
  824YOPS   C4A12376  11.817   3.556   7.727  0.0880 -0.0200 -0.2068
  824YOPS   C1B12377  12.497   2.850   6.872  0.1411  0.0445  0.4912
  824YOPS   C2B12378  12.343   2.872   7.321 -0.0422 -0.3228 -0.0211
  824YOPS   D3B12379  12.509   3.023   7.623  0.0841  0.0957 -0.4851
  824YOPS   C4B12380  12.496   3.174   8.097 -0.0577 -0.4395 -0.5958
  825YOPS   CNO12381  11.059   0.457   5.946 -0.2232  0.1883 -0.1614
  825YOPS   PO412382  10.680   0.317   5.827  0.3480  0.3583 -0.3324
  825YOPS   GL112383  10.624   0.337   6.306  0.0294  0.0643  0.1818
  825YOPS   GL212384  10.763   0.587   6.406  0.1816 -0.0087 -0.1174
  825YOPS   C1A12385  10.402   0.244   6.655 -0.0202  0.1620  0.0827
  825YOPS   D2A12386  10.309   0.197   7.172 -0.2374  0.1062 -0.0156
  825YOPS   C3A12387   9.951   0.303   7.454  0.0017  0.1032 -0.0987
  825YOPS   C4A12388  10.057   0.675   7.738  0.0999  0.1410  0.0574
  825YOPS   C1B12389  10.658   0.617   6.852  0.1152 -0.0026 -0.1896
  825YOPS   C2B12390  10.773   0.696   7.207  0.0735  0.2080 -0.1215
  825YOPS   D3B12391  10.623   0.436   7.583 -0.1748 -0.0632 -0.2106
  825YOPS   C4B12392  10.833   0.330   7.806 -0.0564  0.0902 -0.0556
  826YOPS   CNO12393   7.973   6.932   5.053  0.1641  0.0305 -0.0374
  826YOPS   PO412394   8.218   7.056   5.370  0.1157  0.0037 -0.0482
  826YOPS   GL112395   8.195   6.956   5.749  0.0658 -0.0477  0.1992
  826YOPS   GL212396   8.146   7.261   5.984 -0.0209  0.0452  0.2204
  826YOPS   C1A12397   8.328   6.852   6.140 -0.0875  0.0324 -0.1216
  826YOPS   D2A12398   8.259   6.751   6.617 -0.3254  0.1210 -0.0919
  826YOPS   C3A12399   8.281   6.609   6.998  0.2893 -0.2181 -0.1398
  826YOPS   C4A12400   8.070   6.259   7.162 -0.2930 -0.1646 -0.1049
  826YOPS   C1B12401   8.033   7.514   6.211  0.1670  0.0839 -0.0765
  826YOPS   C2B12402   7.646   7.610   6.507 -0.1762 -0.1112 -0.1803
  826YOPS   D3B12403   7.303   7.465   6.774  0.1198  0.1881  0.1172
  826YOPS   C4B12404   7.358   7.195   7.038 -0.2425 -0.0846 -0.0910
  827YOPS   CNO12405   0.149   8.565   6.184 -0.0898  0.4064  0.2839
  827YOPS   PO412406   0.523   8.450   6.158  0.2616  0.1460 -0.0744
  827YOPS   GL112407   0.444   8.597   6.546  0.2784  0.4264  0.0378
  827YOPS   GL212408   0.409   8.861   6.572  0.1993 -0.1734 -0.1943
  827YOPS   C1A12409   0.411   8.384   6.950  0.0290 -0.0663  0.2773
  827YOPS   D2A12410   0.419   8.134   7.363  0.1202  0.1614 -0.3471
  827YOPS   C3A12411   0.038   8.220   7.787  0.2206  0.1085 -0.1567
  827YOPS   C4A12412  -0.427   8.038   7.798  0.0062  0.0602  0.0969
  827YOPS   C1B12413   0.160   8.808   6.913  0.1246  0.0931  0.0900
  827YOPS   C2B12414  -0.021   8.968   7.245 -0.2617  0.1634 -0.0764
  827YOPS   D3B12415  -0.256   9.116   7.332  0.3041  0.1243  0.1468
  827YOPS   C4B12416  -0.748   9.081   7.193 -0.0272  0.0491  0.1999
  828YOPS   CNO12417   6.723  11.620   5.992 -0.2027  0.2978  0.2697
  828YOPS   PO412418   6.336  11.365   5.955 -0.2930  0.1696  0.0762
  828YOPS   GL112419   6.537  11.239   6.268 -0.0462 -0.3103  0.0261
  828YOPS   GL212420   6.390  11.089   6.379 -0.0527 -0.2131 -0.0967
  828YOPS   C1A12421   6.721  11.233   6.735 -0.1507 -0.1204  0.2793
  828YOPS   D2A12422   6.802  11.239   7.081  0.1290  0.1364  0.1104
  828YOPS   C3A12423   6.748  11.367   7.425  0.1876 -0.1244  0.0238
  828YOPS   C4A12424   6.934  11.670   7.786 -0.2059 -0.0273 -0.0116
  828YOPS   C1B12425   6.147  11.164   6.742 -0.1162  0.1686  0.2496
  828YOPS   C2B12426   5.709  11.048   6.881  0.0328  0.4168 -0.2568
  828YOPS   D3B12427   5.664  10.757   7.144  0.3329  0.1898  0.0331
  828YOPS   C4B12428   5.905  10.804   7.548 -0.0059  0.3179 -0.0648
  829YOPS   CNO12429   2.448  10.053   6.341  0.0237  0.0635 -0.1932
  829YOPS   PO412430   2.291  10.563   6.150  0.2412 -0.2328  0.0658
  829YOPS   GL112431   2.304  10.596   6.562  0.3770 -0.0312 -0.2230
  829YOPS   GL212432   2.142  10.330   6.627 -0.3169  0.0540 -0.0241
  829YOPS   C1A12433   2.291  10.764   6.931  0.3098  0.1043 -0.0611
  829YOPS   D2A12434   2.148  10.951   7.199  0.1222 -0.0232 -0.2765
  829YOPS   C3A12435   1.983  10.770   7.643  0.0916 -0.0440  0.2908
  829YOPS   C4A12436   2.007  10.849   8.051 -0.0043  0.1144 -0.1163
  829YOPS   C1B12437   1.798  10.564   6.919  0.0451 -0.0800 -0.0574
  829YOPS   C2B12438   1.622  10.755   7.291 -0.2146  0.5272 -0.1205
  829YOPS   D3B12439   1.486  11.035   7.619  0.1040  0.1171  0.3790
  829YOPS   C4B12440   1.717  11.338   7.816  0.1950  0.0968 -0.3351
  830YOPS   CNO12441   4.909   6.894   5.201  0.0638 -0.0912 -0.2207
  830YOPS   PO412442   4.981   6.532   5.388 -0.1891  0.1059 -0.0247
  830YOPS   GL112443   4.909   6.300   5.747  0.2177 -0.1782  0.1718
  830YOPS   GL212444   4.682   6.362   5.894 -0.2658  0.0083 -0.1109
  830YOPS   C1A12445   5.153   6.185   6.108 -0.0851  0.1139  0.1351
  830YOPS   D2A12446   5.392   6.244   6.340  0.1642 -0.2460 -0.1828
  830YOPS   C3A12447   5.845   6.325   6.622  0.1237 -0.0683  0.0624
  830YOPS   C4A12448   5.948   6.016   6.882  0.1058 -0.1219  0.0373
  830YOPS   C1B12449   4.772   6.439   6.362  0.1324  0.1153 -0.0855
  830YOPS   C2B12450   5.018   6.367   6.668  0.3890  0.0936 -0.1644
  830YOPS   D3B12451   5.374   6.463   6.753 -0.3117 -0.1323  0.0798
  830YOPS   C4B12452   5.586   6.391   7.101  0.0868  0.0484  0.0369
  831YOPS   CNO12453  10.877  16.004   6.112 -0.2895  0.2639 -0.0422
  831YOPS   PO412454  11.256  15.772   5.966 -0.1766 -0.1938 -0.0563
  831YOPS   GL112455  11.413  15.448   6.190  0.2742  0.0238 -0.1387
  831YOPS   GL212456  11.382  15.194   6.117  0.1284 -0.2818 -0.1062
  831YOPS   C1A12457  11.479  15.459   6.666  0.0593  0.3236 -0.0697
  831YOPS   D2A12458  11.757  15.684   6.610 -0.2177 -0.1466  0.4894
  831YOPS   C3A12459  12.037  15.629   6.443 -0.1732  0.1024 -0.1219
  831YOPS   C4A12460  12.171  15.987   6.399  0.1448 -0.2061  0.2342
  831YOPS   C1B12461  11.059  15.154   6.550  0.1628  0.1248  0.0996
  831YOPS   C2B12462  11.156  15.219   6.911  0.0490  0.2001 -0.0252
  831YOPS   D3B12463  11.360  15.277   7.278 -0.1268 -0.3850 -0.0733
  831YOPS   C4B12464  11.139  15.219   7.599 -0.0726  0.0252 -0.3109
  832YOPS   CNO12465  15.067  12.553   5.732  0.1485  0.3793 -0.0287
  832YOPS   PO412466  15.483  12.346   5.671 -0.2164  0.1113 -0.1376
  832YOPS   GL112467  15.456  12.412   6.113  0.1869 -0.3785 -0.2802
  832YOPS   GL212468  15.800  12.373   6.169 -0.1757 -0.0764 -0.5477
  832YOPS   C1A12469  15.286  12.450   6.530  0.0363  0.2102  0.1785
  832YOPS   D2A12470  15.194  12.758   6.748  0.3464  0.2640 -0.1545
  832YOPS   C3A12471  15.083  12.855   7.128  0.0941 -0.4775 -0.1745
  832YOPS   C4A12472  14.802  13.098   7.332  0.1627  0.2607  0.1449
  832YOPS   C1B12473  15.665  12.084   6.516 -0.2438 -0.0754  0.0081
  832YOPS   C2B12474  15.424  12.056   6.865  0.1362  0.0102 -0.0335
  832YOPS   D3B12475  15.319  11.869   7.152  0.0480  0.1444 -0.0949
  832YOPS   C4B12476  15.032  11.558   6.938  0.4104 -0.2684 -0.0889
  833YOPS   CNO12477   4.879  18.208   5.547 -0.0039 -0.1547 -0.2236
  833YOPS   PO412478   5.240  17.890   5.611 -0.0806 -0.0283  0.1233
  833YOPS   GL112479   5.272  17.779   5.996 -0.0646 -0.1630 -0.1555
  833YOPS   GL212480   5.186  17.580   6.070 -0.2317 -0.1029 -0.1929
  833YOPS   C1A12481   5.655  17.781   6.253 -0.1473 -0.1746  0.1079
  833YOPS   D2A12482   5.882  17.526   6.468 -0.0166  0.1406  0.0279
  833YOPS   C3A12483   5.947  17.474   6.964  0.0816 -0.1704 -0.0076
  833YOPS   C4A12484   6.066  17.597   7.338  0.1286  0.0095 -0.2848
  833YOPS   C1B12485   5.041  17.831   6.423  0.3115  0.0863  0.1212
  833YOPS   C2B12486   4.984  17.746   6.816  0.2290 -0.1309 -0.2151
  833YOPS   D3B12487   4.824  17.769   7.313 -0.1444 -0.2209  0.3227
  833YOPS   C4B12488   4.423  17.875   7.317 -0.3396 -0.1014 -0.3548
  834YOPS   CNO12489  13.714  12.869   5.621 -0.1262 -0.1256  0.1461
  834YOPS   PO412490  13.760  12.560   5.916 -0.1894 -0.2612 -0.0964
  834YOPS   GL112491  13.540  12.457   6.205 -0.2080  0.1776 -0.0220
  834YOPS   GL212492  13.285  12.233   6.118  0.0621  0.0862 -0.2439
  834YOPS   C1A12493  13.170  12.417   6.567 -0.0116  0.0693  0.5204
  834YOPS   D2A12494  12.972  12.395   6.874 -0.0207  0.0697  0.4067
  834YOPS   C3A12495  12.927  12.448   7.280 -0.0311 -0.1507 -0.1381
  834YOPS   C4A12496  12.652  12.534   7.507 -0.3109  0.1941  0.2396
  834YOPS   C1B12497  13.444  12.015   6.478  0.4849  0.2439  0.2383
  834YOPS   C2B12498  13.536  12.154   6.828  0.0366 -0.3437  0.0719
  834YOPS   D3B12499  13.465  12.496   7.194  0.0056 -0.3705 -0.2352
  834YOPS   C4B12500  13.260  12.852   7.097 -0.0443 -0.0428 -0.3623
  835POPE   NH312501   4.476   6.532   5.283  0.2822 -0.2932 -0.1885
  835POPE   PO412502   3.984   6.587   5.287 -0.1026 -0.1965  0.0740
  835POPE   GL112503   4.167   6.447   5.671 -0.0901 -0.1002 -0.1869
  835POPE   GL212504   4.312   6.666   5.751  0.3028  0.1756 -0.0883
  835POPE   C1A12505   4.205   6.274   6.075  0.2817 -0.0609 -0.0182
  835POPE   D2A12506   4.206   6.195   6.483 -0.4410 -0.2441 -0.1810
  835POPE   C3A12507   4.479   6.309   6.759 -0.0227 -0.0791 -0.1421
  835POPE   C4A12508   4.438   6.413   7.132 -0.1592  0.0532  0.2623
  835POPE   C1B12509   4.390   6.681   6.204  0.0226  0.1995  0.3443
  835POPE   C2B12510   4.563   6.837   6.681 -0.0308  0.2138  0.1625
  835POPE   C3B12511   4.892   6.691   7.013 -0.1170 -0.3321  0.2122
  835POPE   C4B12512   4.911   6.388   7.367 -0.1287  0.0066  0.3323
  836POPE   NH312513   2.712  16.237   5.730  0.3464 -0.0966  0.0260
  836POPE   PO412514   2.855  16.549   6.105  0.0567  0.1840  0.0785
  836POPE   GL112515   3.181  16.379   6.423  0.0224  0.2348  0.1941
  836POPE   GL212516   3.506  16.371   6.272 -0.0385  0.1545  0.0760
  836POPE   C1A12517   3.191  16.323   6.933  0.1469 -0.1413 -0.1899
  836POPE   D2A12518   3.108  16.110   7.239 -0.3228 -0.3333  0.0802
  836POPE   C3A12519   2.942  15.725   7.149 -0.2793 -0.0679 -0.0270
  836POPE   C4A12520   2.919  15.447   6.849  0.2032  0.1444  0.0841
  836POPE   C1B12521   3.599  16.279   6.759 -0.1250 -0.1484 -0.0885
  836POPE   C2B12522   3.629  16.225   7.175 -0.0498  0.1565 -0.0179
  836POPE   C3B12523   3.612  16.176   7.599 -0.0477 -0.1754  0.1249
  836POPE   C4B12524   3.836  15.879   7.815  0.1362 -0.1157 -0.0313
  837POPE   NH312525   6.784  15.218   5.862 -0.0748  0.0752 -0.0662
  837POPE   PO412526   6.977  14.833   5.815  0.3948  0.0095  0.2651
  837POPE   GL112527   6.784  14.843   6.214  0.0149  0.1002 -0.2704
  837POPE   GL212528   6.555  14.566   6.123  0.4110  0.2014  0.1683
  837POPE   C1A12529   6.784  15.066   6.604 -0.0005  0.2949 -0.0867
  837POPE   D2A12530   6.843  15.249   6.925 -0.0569 -0.0159 -0.1767
  837POPE   C3A12531   6.515  15.029   7.244  0.0555 -0.1793 -0.1099
  837POPE   C4A12532   6.270  14.785   7.474  0.0357 -0.2366 -0.3257
  837POPE   C1B12533   6.739  14.092   6.444 -0.1880 -0.3496 -0.0321
  837POPE   C2B12534   6.604  14.161   6.900  0.1187  0.0234  0.0531
  837POPE   C3B12535   6.544  14.375   7.298 -0.4923  0.1534 -0.2434
  837POPE   C4B12536   6.751  14.213   7.656  0.0949 -0.0636  0.1630
  838POPE   NH312537   3.821  11.652   6.173  0.1559  0.1840  0.0130
  838POPE   PO412538   4.096  11.214   6.212 -0.0777  0.0490 -0.3369
  838POPE   GL112539   3.764  11.316   6.539 -0.4397 -0.0405 -0.5553
  838POPE   GL212540   3.787  11.679   6.727  0.1807  0.3157  0.1593
  838POPE   C1A12541   3.794  11.265   7.007  0.1177 -0.2184 -0.1621
  838POPE   D2A12542   3.654  11.591   7.316 -0.1693 -0.0363  0.0489
  838POPE   C3A12543   3.298  11.742   7.497 -0.2465  0.1037 -0.0580
  838POPE   C4A12544   3.220  11.860   7.872 -0.1252  0.0013 -0.0804
  838POPE   C1B12545   3.987  11.848   7.076 -0.2501 -0.0696  0.2451
  838POPE   C2B12546   4.254  11.948   7.336 -0.1298 -0.1894 -0.2544
  838POPE   C3B12547   4.554  12.163   7.623  0.2354  0.0114 -0.1727
  838POPE   C4B12548   4.764  12.316   7.934 -0.2299 -0.0350  0.1085
  839POPE   NH312549   8.856   6.267   5.516  0.0325  0.4234 -0.0274
  839POPE   PO412550   9.084   6.569   5.750  0.4486  0.1824  0.1720
  839POPE   GL112551   9.032   6.199   5.957 -0.2004 -0.1330 -0.1757
  839POPE   GL212552   9.264   6.283   6.115 -0.1432  0.3621  0.0895
  839POPE   C1A12553   8.744   5.888   6.145 -0.1405  0.1042  0.2107
  839POPE   D2A12554   8.735   5.647   6.543  0.1397 -0.1931 -0.0810
  839POPE   C3A12555   8.891   5.627   6.927 -0.3909  0.0848  0.1823
  839POPE   C4A12556   8.745   5.596   7.307  0.3846  0.6911 -0.1835
  839POPE   C1B12557   9.054   6.507   6.397  0.0933  0.0026  0.2551
  839POPE   C2B12558   8.753   6.815   6.608 -0.2168  0.4033  0.1396
  839POPE   C3B12559   8.604   6.964   7.014  0.1406  0.1305  0.3844
  839POPE   C4B12560   8.672   7.140   7.394  0.1729  0.0196 -0.0775
  840POPE   NH312561   9.096  17.370   6.154  0.3138  0.1132  0.1508
  840POPE   PO412562   8.724  17.122   6.053 -0.0177 -0.1746 -0.4068
  840POPE   GL112563   8.401  17.266   6.222  0.0500  0.0924  0.2953
  840POPE   GL212564   8.573  17.563   6.329  0.0945  0.0567 -0.1791
  840POPE   C1A12565   8.297  17.267   6.612 -0.2442 -0.0870  0.1921
  840POPE   D2A12566   7.931  17.409   6.913  0.1141  0.0888  0.0510
  840POPE   C3A12567   8.119  17.191   7.279 -0.0780 -0.0696  0.2076
  840POPE   C4A12568   8.343  17.025   7.665 -0.1105  0.0549  0.0117
  840POPE   C1B12569   8.594  17.788   6.621 -0.0730 -0.2714  0.0622
  840POPE   C2B12570   8.614  17.759   7.063 -0.1696  0.1065  0.0808
  840POPE   C3B12571   8.568  17.772   7.464 -0.0103 -0.1329  0.1401
  840POPE   C4B12572   8.532  17.605   7.797  0.2617  0.2247  0.0837
  841POPE   NH312573   7.751  17.661   5.622 -0.2584 -0.0847 -0.0450
  841POPE   PO412574   7.823  18.044   5.953 -0.0779  0.3566  0.1697
  841POPE   GL112575   7.668  18.087   6.322  0.1335 -0.3510 -0.0293
  841POPE   GL212576   7.436  18.248   6.305  0.0070  0.2535  0.3527
  841POPE   C1A12577   7.674  17.807   6.693  0.3007 -0.0089  0.1257
  841POPE   D2A12578   7.398  17.500   7.008  0.0666  0.3631  0.0167
  841POPE   C3A12579   7.617  17.387   7.341 -0.0055 -0.3458  0.0652
  841POPE   C4A12580   7.724  17.186   7.732 -0.3518 -0.0818  0.5627
  841POPE   C1B12581   7.366  18.252   6.705 -0.0941  0.0978  0.1283
  841POPE   C2B12582   7.333  18.043   7.025 -0.2388  0.0407  0.2656
  841POPE   C3B12583   7.053  17.945   7.337  0.1817 -0.0390  0.0295
  841POPE   C4B12584   7.125  18.042   7.752 -0.0466 -0.0415 -0.0495
  842POPE   NH312585  10.766   1.998   5.769  0.1087  0.1610  0.0965
  842POPE   PO412586  10.986   2.278   5.990  0.2712 -0.3508  0.3846
  842POPE   GL112587  11.156   2.253   6.441 -0.1511 -0.0581 -0.0290
  842POPE   GL212588  10.953   1.952   6.514 -0.2763 -0.1322  0.0294
  842POPE   C1A12589  11.461   2.230   6.789 -0.2711  0.1104 -0.3130
  842POPE   D2A12590  11.588   2.487   7.073  0.0750 -0.1449  0.2224
  842POPE   C3A12591  11.307   2.385   7.473  0.0769  0.1650 -0.0752
  842POPE   C4A12592  11.121   2.376   7.923  0.0299  0.1543 -0.1123
  842POPE   C1B12593  10.930   2.165   6.916 -0.0330 -0.3128 -0.1688
  842POPE   C2B12594  10.820   2.106   7.379 -0.1510 -0.1723 -0.3322
  842POPE   C3B12595  10.783   1.882   7.819 -0.0727 -0.2565  0.0699
  842POPE   C4B12596  10.825   2.022   8.214 -0.0678 -0.1687 -0.3805
  843POPE   NH312597   5.620   8.874   5.590 -0.1676 -0.2267  0.0684
  843POPE   PO412598   5.877   9.240   5.395  0.1927 -0.0244 -0.0905
  843POPE   GL112599   6.069   9.280   5.789  0.0687 -0.0356  0.1327
  843POPE   GL212600   5.802   9.278   5.937 -0.1075  0.0909 -0.3303
  843POPE   C1A12601   6.102   9.642   6.051  0.0335  0.2785  0.2132
  843POPE   D2A12602   5.915   9.976   6.315 -0.4407 -0.2952 -0.1668
  843POPE   C3A12603   6.135  10.183   6.641  0.3949  0.3684 -0.0006
  843POPE   C4A12604   6.387  10.101   6.922 -0.1006  0.0708  0.0798
  843POPE   C1B12605   5.996   9.108   6.274 -0.2550 -0.0602  0.2473
  843POPE   C2B12606   6.267   8.963   6.560  0.0893 -0.0286  0.3478
  843POPE   C3B12607   6.619   8.995   6.696 -0.0103 -0.2130  0.1425
  843POPE   C4B12608   6.962   8.975   7.031  0.1763 -0.3383 -0.0030
  844POPE   NH312609   1.038   1.590   6.342 -0.2481 -0.2667 -0.1981
  844POPE   PO412610   1.378   1.892   6.311 -0.0923  0.2031  0.3149
  844POPE   GL112611   1.538   1.887   6.636 -0.0680 -0.1480 -0.2661
  844POPE   GL212612   1.910   2.077   6.681  0.1842  0.0770  0.3038
  844POPE   C1A12613   1.714   1.683   7.012  0.1201 -0.1901 -0.0231
  844POPE   D2A12614   1.899   1.268   6.967 -0.0454 -0.2633  0.0556
  844POPE   C3A12615   2.120   1.102   7.405  0.1360 -0.0975  0.0520
  844POPE   C4A12616   2.331   1.163   7.708 -0.0421 -0.0249 -0.3425
  844POPE   C1B12617   2.097   2.208   7.032 -0.1800 -0.0302 -0.1216
  844POPE   C2B12618   2.161   2.148   7.507  0.0263  0.1362  0.0017
  844POPE   C3B12619   2.053   2.168   7.922  0.0253  0.1505  0.0246
  844POPE   C4B12620   2.442   2.012   7.987  0.0593  0.0124  0.1627
  845POPE   NH312621  12.372  10.297   5.266  0.1188  0.0208 -0.1655
  845POPE   PO412622  12.471  10.436   5.776 -0.0199 -0.1020  0.2004
  845POPE   GL112623  12.456  10.356   6.076  0.2636  0.1779  0.1737
  845POPE   GL212624  12.155  10.256   6.151 -0.0037  0.0220 -0.1544
  845POPE   C1A12625  12.537  10.632   6.406  0.0026 -0.0580 -0.4086
  845POPE   D2A12626  12.290  10.838   6.769 -0.3104 -0.0726 -0.1860
  845POPE   C3A12627  12.390  10.908   7.140  0.0551 -0.0786 -0.2279
  845POPE   C4A12628  12.443  10.969   7.607  0.0111 -0.2016  0.1324
  845POPE   C1B12629  12.108  10.317   6.569 -0.0814  0.1776  0.2831
  845POPE   C2B12630  11.986  10.440   6.974 -0.1557  0.3429 -0.4213
  845POPE   C3B12631  11.961  10.581   7.415  0.0407 -0.0519 -0.1933
  845POPE   C4B12632  11.765  10.676   7.824 -0.2245  0.0713  0.2073
  846POPE   NH312633   6.195  18.086   5.536  0.2668  0.0759  0.4235
  846POPE   PO412634   6.686  18.125   5.694  0.2188 -0.0658 -0.1180
  846POPE   GL112635   6.563  18.138   6.113  0.0032 -0.1908  0.0820
  846POPE   GL212636   6.694  18.476   6.170  0.0946 -0.1179  0.3380
  846POPE   C1A12637   6.474  18.182   6.544  0.0441 -0.0557  0.0828
  846POPE   D2A12638   6.614  18.066   6.886  0.0464 -0.0150  0.2507
  846POPE   C3A12639   6.455  17.900   7.312 -0.4494 -0.3258  0.2670
  846POPE   C4A12640   6.234  17.813   7.763  0.2408 -0.4196  0.1292
  846POPE   C1B12641   6.892  18.502   6.584 -0.0061 -0.3227  0.3728
  846POPE   C2B12642   6.994  18.485   7.054  0.1382  0.0984 -0.0473
  846POPE   C3B12643   7.115  18.435   7.444  0.1405  0.3053  0.1809
  846POPE   C4B12644   7.366  18.766   7.687 -0.1204 -0.1815  0.1993
  847POPE   NH312645  10.009  17.951   5.903  0.0422 -0.2976 -0.1667
  847POPE   PO412646   9.713  18.262   5.814  0.1126 -0.1735  0.4088
  847POPE   GL112647   9.638  18.134   6.195 -0.2239 -0.0296  0.2278
  847POPE   GL212648   9.890  17.915   6.392 -0.1414 -0.0417  0.0481
  847POPE   C1A12649   9.497  18.309   6.604  0.1664  0.0283  0.0002
  847POPE   D2A12650   9.465  18.339   6.978  0.1028 -0.1159  0.2420
  847POPE   C3A12651   9.064  18.517   6.970  0.1550 -0.2917  0.2885
  847POPE   C4A12652   8.795  18.643   7.105 -0.1770  0.0158 -0.0028
  847POPE   C1B12653  10.108  17.715   6.741 -0.0013  0.1156  0.0572
  847POPE   C2B12654  10.299  17.711   7.157 -0.1990  0.0258  0.2290
  847POPE   C3B12655  10.280  17.795   7.615  0.1624  0.2302  0.0781
  847POPE   C4B12656  10.205  17.861   8.005  0.2330 -0.1828 -0.2034
  848POPE   NH312657  12.924  12.193   5.294 -0.0380  0.1637 -0.2190
  848POPE   PO412658  12.904  12.240   5.782 -0.0999  0.0043 -0.6205
  848POPE   GL112659  12.682  12.280   6.162  0.2510  0.0632 -0.0750
  848POPE   GL212660  12.378  12.253   6.188 -0.0460 -0.2703 -0.1739
  848POPE   C1A12661  12.623  12.602   6.464 -0.2282 -0.0102  0.3604
  848POPE   D2A12662  12.931  12.889   6.491 -0.0260  0.1331 -0.0648
  848POPE   C3A12663  13.340  12.880   6.509  0.0034 -0.3262 -0.0584
  848POPE   C4A12664  13.614  12.641   6.727 -0.0194 -0.1150  0.2306
  848POPE   C1B12665  12.446  12.154   6.605  0.0420  0.0608 -0.1435
  848POPE   C2B12666  12.569  12.124   7.088  0.1336 -0.0230  0.1088
  848POPE   C3B12667  12.669  11.989   7.449  0.0629 -0.0711 -0.3180
  848POPE   C4B12668  12.527  12.111   7.861 -0.1869 -0.0900 -0.0381
  849POPE   NH312669  17.209  15.153   5.628  0.1338  0.1711 -0.0247
  849POPE   PO412670  17.151  14.694   5.780 -0.1155  0.0138  0.0894
  849POPE   GL112671  17.450  14.825   6.081  0.2423 -0.0107 -0.1959
  849POPE   GL212672  17.733  14.668   6.069  0.2240  0.0557  0.0771
  849POPE   C1A12673  17.402  14.955   6.461 -0.2608  0.0558  0.2384
  849POPE   D2A12674  17.171  15.149   6.790 -0.0947 -0.0584  0.1082
  849POPE   C3A12675  16.762  15.093   6.581  0.1383 -0.1239 -0.0224
  849POPE   C4A12676  16.517  14.749   6.677 -0.4095  0.3287 -0.2238
  849POPE   C1B12677  17.968  14.972   6.185  0.1480  0.0777 -0.0368
  849POPE   C2B12678  17.895  14.976   6.639  0.1448  0.0948 -0.3964
  849POPE   C3B12679  17.808  15.038   6.990 -0.0395  0.2066  0.1392
  849POPE   C4B12680  17.447  14.926   7.206 -0.3021 -0.3958 -0.2633
  850POPE   NH312681  15.038   6.010   5.813 -0.4164  0.0196 -0.1143
  850POPE   PO412682  15.304   5.724   5.848 -0.0190 -0.1565  0.1864
  850POPE   GL112683  15.240   5.810   6.242 -0.1025  0.0023 -0.1685
  850POPE   GL212684  15.487   5.752   6.395 -0.0967  0.0043 -0.3751
  850POPE   C1A12685  15.055   5.848   6.726 -0.1813  0.2799  0.1788
  850POPE   D2A12686  14.796   5.765   7.021 -0.0463 -0.0070 -0.1174
  850POPE   C3A12687  14.803   5.576   7.409  0.0423 -0.3342 -0.1659
  850POPE   C4A12688  14.806   5.229   7.482  0.2008 -0.0556 -0.2776
  850POPE   C1B12689  15.514   5.518   6.759  0.1631 -0.2919  0.0116
  850POPE   C2B12690  15.634   5.432   7.276 -0.1809 -0.1895 -0.1791
  850POPE   C3B12691  15.928   5.482   7.716  0.0343  0.0172 -0.3329
  850POPE   C4B12692  16.172   5.874   7.740  0.3368  0.0567 -0.0311
  851POPE   NH312693   1.847   2.154   6.192 -0.1250 -0.2819 -0.0209
  851POPE   PO412694   2.336   2.291   6.327 -0.1147  0.2089  0.0483
  851POPE   GL112695   2.511   2.372   6.774 -0.1471  0.2693  0.0946
  851POPE   GL212696   2.909   2.274   6.840 -0.2480 -0.1865  0.2296
  851POPE   C1A12697   2.456   2.478   7.241  0.0241 -0.0081  0.3500
  851POPE   D2A12698   2.476   2.582   7.613  0.2477 -0.1785  0.2515
  851POPE   C3A12699   2.675   2.453   7.932 -0.1032 -0.2425  0.2453
  851POPE   C4A12700   2.754   2.218   8.336 -0.1463  0.3024  0.0307
  851POPE   C1B12701   3.044   2.027   7.124 -0.0278 -0.0864  0.1105
  851POPE   C2B12702   3.214   1.883   7.510 -0.0852  0.0685  0.4005
  851POPE   C3B12703   3.484   1.815   7.838  0.0407 -0.1222 -0.3358
  851POPE   C4B12704   3.654   1.496   8.109 -0.2436 -0.0882 -0.3587
  852POPE   NH312705   6.416   4.551   5.763  0.2933  0.1263  0.2585
  852POPE   PO412706   6.332   4.964   5.621  0.0143  0.2055  0.1956
  852POPE   GL112707   6.389   5.094   6.029  0.2569  0.0631 -0.0868
  852POPE   GL212708   6.109   5.375   6.148 -0.5424  0.1708  0.0518
  852POPE   C1A12709   6.527   4.986   6.509 -0.1064  0.2119 -0.1312
  852POPE   D2A12710   6.540   5.251   6.874  0.1218 -0.1165  0.0651
  852POPE   C3A12711   6.539   5.021   7.165 -0.2273  0.3550  0.0258
  852POPE   C4A12712   6.569   4.723   7.480 -0.2882  0.1700  0.2381
  852POPE   C1B12713   6.168   5.589   6.579 -0.0031  0.1141  0.2379
  852POPE   C2B12714   6.267   5.634   6.991 -0.1252 -0.0078 -0.0348
  852POPE   C3B12715   6.125   5.896   7.347 -0.2250 -0.3543 -0.1011
  852POPE   C4B12716   5.794   6.108   7.404  0.2843 -0.1205 -0.3650
  853POPE   NH312717   1.662   5.097   5.611  0.2140 -0.0580  0.1905
  853POPE   PO412718   1.879   4.863   6.003 -0.1524  0.2580 -0.0783
  853POPE   GL112719   1.718   4.601   6.390 -0.3095 -0.1394 -0.0773
  853POPE   GL212720   1.702   4.876   6.608  0.2672  0.2205 -0.2920
  853POPE   C1A12721   1.730   4.376   6.693 -0.1036 -0.1203  0.2268
  853POPE   D2A12722   1.736   4.428   7.081  0.0137 -0.2884  0.0959
  853POPE   C3A12723   1.687   4.668   7.557 -0.3867  0.0175  0.1066
  853POPE   C4A12724   1.581   4.407   7.834  0.2936 -0.0963 -0.1521
  853POPE   C1B12725   1.837   4.881   6.975 -0.1024 -0.2788 -0.2745
  853POPE   C2B12726   2.087   4.964   7.327  0.0464 -0.2339 -0.1124
  853POPE   C3B12727   2.078   5.081   7.822  0.2834 -0.0854 -0.0059
  853POPE   C4B12728   1.933   5.329   8.142  0.1129 -0.1092  0.0510
  854POPE   NH312729  13.654  17.154   5.769 -0.0874 -0.0524  0.0187
  854POPE   PO412730  13.583  16.718   6.023 -0.1674  0.1670  0.1328
  854POPE   GL112731  13.655  16.863   6.433  0.0339  0.2686  0.1398
  854POPE   GL212732  13.850  16.601   6.470  0.2612 -0.0095  0.3280
  854POPE   C1A12733  13.382  16.840   6.799 -0.1336 -0.2259 -0.0880
  854POPE   D2A12734  13.180  16.472   6.835  0.1182  0.0194 -0.0214
  854POPE   C3A12735  13.223  16.429   7.294 -0.3320 -0.6861  0.0940
  854POPE   C4A12736  13.574  16.484   7.609 -0.0895 -0.1398  0.1164
  854POPE   C1B12737  14.081  16.472   6.858  0.0589 -0.1193 -0.2588
  854POPE   C2B12738  14.224  16.683   7.167 -0.0917 -0.0981  0.0795
  854POPE   C3B12739  14.285  16.948   7.437  0.2284 -0.0928 -0.2023
  854POPE   C4B12740  14.511  16.967   7.884 -0.0943  0.1518  0.1919
  855POPE   NH312741   7.394  10.834   5.636 -0.1718 -0.0401  0.1073
  855POPE   PO412742   7.008  10.601   5.803  0.3168  0.6740 -0.5876
  855POPE   GL112743   7.145  10.798   6.103  0.2904  0.3454  0.1025
  855POPE   GL212744   6.857  10.875   6.299  0.3499 -0.0704  0.0971
  855POPE   C1A12745   7.484  10.659   6.395  0.0305 -0.1317  0.0829
  855POPE   D2A12746   7.635  10.553   6.699 -0.0129  0.0500 -0.1514
  855POPE   C3A12747   7.603  10.735   7.095  0.0702  0.0890 -0.1342
  855POPE   C4A12748   7.441  10.914   7.518 -0.2745  0.0069 -0.0953
  855POPE   C1B12749   7.171  10.882   6.689 -0.1242  0.0880  0.0221
  855POPE   C2B12750   7.019  10.787   7.166 -0.6080 -0.4286 -0.0693
  855POPE   C3B12751   6.884  10.833   7.556  0.2414  0.0285 -0.1282
  855POPE   C4B12752   7.139  11.043   7.892  0.1071 -0.0692  0.1183
  856POPE   NH312753  11.328   7.892   5.774  0.0617 -0.2893  0.0783
  856POPE   PO412754  10.911   7.745   5.700  0.1055 -0.0493  0.1987
  856POPE   GL112755  10.832   7.870   6.093  0.2020 -0.1025  0.0072
  856POPE   GL212756  10.753   8.227   6.178  0.0456 -0.0471 -0.0612
  856POPE   C1A12757  10.463   7.723   6.354 -0.1264  0.1763 -0.0853
  856POPE   D2A12758  10.403   7.276   6.600  0.0528 -0.1214 -0.2297
  856POPE   C3A12759  10.267   7.300   6.935  0.3340  0.1716 -0.0716
  856POPE   C4A12760   9.925   7.616   7.257  0.3095 -0.3365  0.0701
  856POPE   C1B12761  10.600   8.156   6.656  0.0348 -0.0650 -0.3102
  856POPE   C2B12762  10.624   8.251   7.106  0.0070 -0.3085  0.2215
  856POPE   C3B12763  10.604   8.483   7.533 -0.2467 -0.1467 -0.1917
  856POPE   C4B12764  10.954   8.663   7.690 -0.1759  0.1945 -0.1673
  857POPE   NH312765  12.984  12.679   5.972  0.2815 -0.3218  0.0574
  857POPE   PO412766  12.969  13.098   5.767 -0.0987  0.2516  0.0095
  857POPE   GL112767  12.760  13.275   6.063 -0.4946  0.2219 -0.0500
  857POPE   GL212768  13.005  13.369   6.195  0.1111 -0.1807 -0.1592
  857POPE   C1A12769  12.480  13.070   6.319 -0.3502 -0.2238  0.1593
  857POPE   D2A12770  12.301  13.021   6.760  0.0346  0.4828  0.2686
  857POPE   C3A12771  11.851  13.019   6.703 -0.2614 -0.0229 -0.2237
  857POPE   C4A12772  11.610  12.903   6.373 -0.1348 -0.1756  0.3427
  857POPE   C1B12773  13.078  13.348   6.538 -0.0741  0.2568  0.1305
  857POPE   C2B12774  13.050  13.342   7.020  0.0377 -0.1187 -0.1047
  857POPE   C3B12775  12.907  13.186   7.453  0.0694 -0.3219  0.0578
  857POPE   C4B12776  12.639  13.071   7.822  0.0998  0.1422  0.1944
  858POPE   NH312777  10.139   0.332   5.797  0.1202 -0.0777  0.1406
  858POPE   PO412778  10.384   0.750   5.627 -0.1937  0.0716 -0.0328
  858POPE   GL112779  10.362   0.695   6.101  0.0504 -0.0964 -0.1876
  858POPE   GL212780  10.007   0.791   6.110  0.0189  0.1232  0.2213
  858POPE   C1A12781  10.284   0.692   6.551 -0.0184 -0.3980  0.1034
  858POPE   D2A12782  10.131   0.628   6.866 -0.2926 -0.2330 -0.0393
  858POPE   C3A12783  10.165   0.853   7.257 -0.0772  0.1878 -0.0562
  858POPE   C4A12784  10.496   1.003   7.659 -0.0170 -0.1750 -0.0007
  858POPE   C1B12785  10.020   1.130   6.290 -0.3080 -0.1708 -0.0197
  858POPE   C2B12786  10.082   1.197   6.598  0.2596 -0.3661 -0.1436
  858POPE   C3B12787   9.923   1.354   6.965  0.1922 -0.0098  0.0116
  858POPE   C4B12788   9.779   1.469   7.323 -0.0505  0.2375  0.2620
  859POPE   NH312789  13.291  13.985   5.819 -0.1770 -0.0325 -0.0643
  859POPE   PO412790  13.246  14.416   5.951 -0.0130 -0.2501 -0.1708
  859POPE   GL112791  13.282  14.555   6.340  0.0077 -0.3008  0.1005
  859POPE   GL212792  13.251  14.320   6.532 -0.1215  0.1749  0.3001
  859POPE   C1A12793  13.290  14.973   6.573 -0.1321 -0.3305 -0.1900
  859POPE   D2A12794  13.606  15.175   6.676  0.0248 -0.1436 -0.0604
  859POPE   C3A12795  13.930  15.289   7.025  0.1850  0.0054 -0.1298
  859POPE   C4A12796  13.981  15.221   7.447 -0.1462  0.3745  0.1685
  859POPE   C1B12797  12.949  14.491   6.735 -0.1616 -0.1579  0.0485
  859POPE   C2B12798  12.699  14.452   7.162 -0.2199  0.1385 -0.2910
  859POPE   C3B12799  12.710  14.210   7.547  0.1803 -0.0469  0.0650
  859POPE   C4B12800  12.795  13.901   7.880  0.2128  0.0769 -0.1571
  860POPE   NH312801   3.839   5.203   5.879  0.1069 -0.0550 -0.0827
  860POPE   PO412802   3.479   5.320   6.015 -0.2821 -0.0904  0.0434
  860POPE   GL112803   3.775   5.506   6.256 -0.2440 -0.0465 -0.1908
  860POPE   GL212804   3.929   5.726   6.296 -0.3549 -0.0210  0.1458
  860POPE   C1A12805   4.048   5.205   6.526 -0.0108 -0.2380 -0.0868
  860POPE   D2A12806   4.268   5.251   6.872  0.1591 -0.1817  0.0223
  860POPE   C3A12807   4.191   5.113   7.328  0.2581 -0.2556  0.3128
  860POPE   C4A12808   4.157   4.780   7.631  0.3019 -0.1603  0.0852
  860POPE   C1B12809   3.910   5.670   6.750  0.1174  0.0412 -0.1059
  860POPE   C2B12810   3.865   5.501   7.118  0.1798 -0.0643 -0.0825
  860POPE   C3B12811   3.695   5.105   7.341  0.1519  0.1191  0.2780
  860POPE   C4B12812   3.384   5.274   7.595 -0.1678 -0.3669  0.0972
  861POPE   NH312813  13.340   5.138   6.012  0.2987 -0.1512  0.0973
  861POPE   PO412814  13.681   5.355   5.858  0.1943 -0.0876  0.2396
  861POPE   GL112815  13.633   5.410   6.323  0.0048  0.0711  0.1116
  861POPE   GL212816  13.542   5.248   6.440  0.3201  0.0098  0.0951
  861POPE   C1A12817  13.772   5.614   6.698  0.1443 -0.0337  0.2713
  861POPE   D2A12818  13.715   5.698   7.049 -0.1997 -0.0254  0.0164
  861POPE   C3A12819  13.685   5.754   7.468  0.2031  0.0547 -0.1483
  861POPE   C4A12820  13.619   6.133   7.680  0.0774 -0.0974 -0.0139
  861POPE   C1B12821  13.430   5.319   6.830  0.0890 -0.0577 -0.4369
  861POPE   C2B12822  13.425   5.311   7.253 -0.0755  0.1241  0.1823
  861POPE   C3B12823  13.378   5.366   7.697  0.0558  0.1752  0.0456
  861POPE   C4B12824  13.604   5.692   7.983  0.1221  0.0369  0.1707
  862POPE   NH312825   3.584   3.247   6.163  0.0025  0.0177  0.0562
  862POPE   PO412826   3.443   3.599   6.381  0.3099  0.0670  0.1691
  862POPE   GL112827   3.579   3.436   6.733 -0.1147 -0.5376 -0.0492
  862POPE   GL212828   3.939   3.344   6.602  0.3064 -0.1910 -0.0775
  862POPE   C1A12829   3.738   3.232   7.124  0.1655 -0.2058  0.0223
  862POPE   D2A12830   3.958   3.470   7.544  0.2274  0.0192 -0.1563
  862POPE   C3A12831   3.778   3.674   7.936 -0.0062  0.0193 -0.0501
  862POPE   C4A12832   3.756   4.000   8.246 -0.0049 -0.0221 -0.0637
  862POPE   C1B12833   4.144   3.462   6.993 -0.1528 -0.0571  0.3173
  862POPE   C2B12834   4.217   3.851   7.227  0.1019  0.0819  0.1121
  862POPE   C3B12835   4.339   3.942   7.619  0.1137 -0.0378 -0.2272
  862POPE   C4B12836   4.119   4.148   7.936 -0.0476  0.0621  0.0277
  863POPE   NH312837  11.112   4.194   5.857  0.0094  0.1394  0.1497
  863POPE   PO412838  10.885   4.320   5.499  0.1583  0.0984  0.2570
  863POPE   GL112839  10.731   4.489   5.957 -0.0195 -0.2611 -0.0753
  863POPE   GL212840  10.814   4.751   6.059 -0.0151  0.1015 -0.1190
  863POPE   C1A12841  10.573   4.273   6.384  0.1616  0.1713  0.3728
  863POPE   D2A12842  10.469   4.266   6.751  0.1827 -0.1846 -0.0103
  863POPE   C3A12843  10.315   4.173   7.131  0.1356  0.0300 -0.0006
  863POPE   C4A12844  10.479   4.050   7.548 -0.0922 -0.0328  0.0362
  863POPE   C1B12845  10.703   4.716   6.534 -0.1954  0.0152  0.3767
  863POPE   C2B12846  10.593   4.970   6.868 -0.2464  0.1371 -0.0578
  863POPE   C3B12847  10.586   5.161   7.259 -0.1632  0.1610 -0.2309
  863POPE   C4B12848  10.555   4.995   7.724 -0.0135 -0.2103  0.2859
  864YOPE   NH312849   6.860  10.378   5.324  0.0090  0.0809 -0.0813
  864YOPE   PO412850   6.447  10.387   5.510 -0.2176  0.1234 -0.0144
  864YOPE   GL112851   6.325  10.335   6.061  0.0364 -0.2973  0.2581
  864YOPE   GL212852   6.389  10.102   6.136  0.2500  0.2644  0.0914
  864YOPE   C1A12853   6.397  10.527   6.457 -0.0554 -0.3561  0.1758
  864YOPE   D2A12854   6.667  10.677   6.783  0.0563  0.1569 -0.0058
  864YOPE   C3A12855   6.614  10.545   7.156 -0.1087 -0.1514  0.1864
  864YOPE   C4A12856   6.872  10.373   7.523  0.3379 -0.0369 -0.0477
  864YOPE   C1B12857   6.524   9.872   6.428 -0.1352  0.0234 -0.2192
  864YOPE   C2B12858   6.618   9.521   6.721  0.1115  0.0550  0.0581
  864YOPE   D3B12859   6.710   9.427   7.221 -0.0405 -0.1188 -0.1189
  864YOPE   C4B12860   6.659   9.615   7.664 -0.3722  0.0174  0.2287
  865YOPE   NH312861   8.163   4.067   5.767 -0.1111  0.0071 -0.3574
  865YOPE   PO412862   7.732   4.269   5.784  0.0792 -0.0361 -0.0913
  865YOPE   GL112863   7.890   4.182   6.208 -0.1105  0.2704 -0.0556
  865YOPE   GL212864   7.642   4.260   6.334 -0.0554  0.0424 -0.0851
  865YOPE   C1A12865   8.188   4.103   6.586 -0.0195 -0.3031  0.1629
  865YOPE   D2A12866   8.407   4.113   6.908  0.0941  0.3831  0.1524
  865YOPE   C3A12867   8.283   3.974   7.287 -0.2007  0.1557  0.2021
  865YOPE   C4A12868   7.977   4.248   7.518 -0.1093 -0.0982  0.1288
  865YOPE   C1B12869   7.680   4.175   6.788  0.1635 -0.1169 -0.1271
  865YOPE   C2B12870   7.858   4.397   7.090 -0.3755  0.1255  0.0695
  865YOPE   D3B12871   7.951   4.728   7.333 -0.3571 -0.3210 -0.1517
  865YOPE   C4B12872   7.902   5.082   7.578  0.0908  0.1248  0.0077
  866YOPE   NH312873  10.478  16.908   6.296 -0.0934  0.1778  0.3862
  866YOPE   PO412874  10.033  17.004   6.124  0.0370 -0.1396  0.1737
  866YOPE   GL112875   9.966  16.614   6.265 -0.0920  0.0923 -0.1046
  866YOPE   GL212876  10.234  16.490   6.402  0.0430 -0.1527  0.1700
  866YOPE   C1A12877   9.801  16.480   6.656  0.2900 -0.4583  0.1356
  866YOPE   D2A12878   9.758  16.366   7.061 -0.0362  0.1633  0.0024
  866YOPE   C3A12879   9.449  16.586   7.259  0.0628 -0.0763  0.1375
  866YOPE   C4A12880   9.125  16.334   7.542  0.1824 -0.0416  0.1851
  866YOPE   C1B12881  10.158  16.204   6.804 -0.0653  0.1050  0.0736
  866YOPE   C2B12882  10.089  16.072   7.249  0.2462 -0.2061  0.1644
  866YOPE   D3B12883  10.165  16.089   7.631 -0.2891 -0.0308  0.1691
  866YOPE   C4B12884   9.837  15.896   7.957 -0.1265 -0.1054 -0.2430
  867YOPE   NH312885   8.453   3.903   5.419  0.1518  0.1372 -0.0824
  867YOPE   PO412886   8.557   3.759   5.797  0.1603  0.2442  0.2078
  867YOPE   GL112887   8.414   3.715   6.201  0.1773  0.0471 -0.0270
  867YOPE   GL212888   8.127   3.360   6.166  0.1812 -0.0748  0.3433
  867YOPE   C1A12889   8.590   3.698   6.586  0.0659 -0.0218 -0.3452
  867YOPE   D2A12890   8.692   3.638   7.063 -0.1751 -0.1242 -0.1541
  867YOPE   C3A12891   9.066   3.537   7.344 -0.0369  0.3843  0.3857
  867YOPE   C4A12892   9.310   3.424   7.610  0.1838 -0.0788 -0.1983
  867YOPE   C1B12893   8.195   3.325   6.549 -0.2288 -0.0798 -0.1676
  867YOPE   C2B12894   8.372   3.150   6.895 -0.3170 -0.0267 -0.0162
  867YOPE   D3B12895   8.486   2.886   7.185 -0.5359  0.0744 -0.1197
  867YOPE   C4B12896   8.877   2.905   7.499 -0.1898 -0.1066  0.0093
  868YOPE   NH312897   0.566  11.974   5.990 -0.0372 -0.3673 -0.0578
  868YOPE   PO412898   0.654  11.539   5.930  0.0795  0.1761 -0.0651
  868YOPE   GL112899   0.817  11.658   6.415 -0.3414 -0.1017  0.2152
  868YOPE   GL212900   0.515  11.813   6.564  0.0952  0.3513  0.0149
  868YOPE   C1A12901   1.038  11.993   6.646  0.2908  0.0424  0.0854
  868YOPE   D2A12902   1.484  12.016   6.588 -0.0853 -0.2341  0.3311
  868YOPE   C3A12903   1.727  12.355   6.695  0.1484 -0.3191 -0.0586
  868YOPE   C4A12904   1.814  12.507   7.102 -0.2915 -0.1253  0.0390
  868YOPE   C1B12905   0.376  11.639   6.975  0.0746  0.1733  0.1212
  868YOPE   C2B12906   0.105  11.659   7.243 -0.0619 -0.0216 -0.0492
  868YOPE   D3B12907   0.224  11.370   7.603 -0.0246 -0.5159  0.0946
  868YOPE   C4B12908   0.240  11.069   7.998  0.2533 -0.0640  0.1765
  869YOPE   NH312909   0.536   5.621   6.031 -0.1088 -0.1710  0.0074
  869YOPE   PO412910   0.093   5.403   6.051 -0.1675 -0.0866  0.1196
  869YOPE   GL112911   0.181   5.477   6.431 -0.0002  0.0067 -0.0384
  869YOPE   GL212912   0.531   5.527   6.533  0.1026 -0.0672  0.1442
  869YOPE   C1A12913   0.216   5.231   6.856  0.0973  0.0619  0.0701
  869YOPE   D2A12914   0.267   5.121   7.270 -0.3615  0.0629 -0.4557
  869YOPE   C3A12915   0.144   5.274   7.588  0.2028  0.1042 -0.0176
  869YOPE   C4A12916  -0.094   5.425   7.940 -0.2282  0.1523  0.3315
  869YOPE   C1B12917   0.569   5.577   6.938  0.0900 -0.0079  0.1371
  869YOPE   C2B12918   0.230   5.635   7.279 -0.0271 -0.5360 -0.1242
  869YOPE   D3B12919   0.232   5.804   7.749  0.1356 -0.0895  0.4991
  869YOPE   C4B12920   0.565   5.995   7.991  0.1351  0.0542  0.1462
  870YOPE   NH312921  18.371  13.344   6.114  0.2298 -0.5116 -0.3066
  870YOPE   PO412922  18.332  13.806   6.032  0.3577 -0.1756  0.2047
  870YOPE   GL112923  18.366  13.746   6.428  0.1942  0.0308 -0.0395
  870YOPE   GL212924  18.008  13.882   6.454  0.2671  0.0453 -0.2053
  870YOPE   C1A12925  18.377  13.728   6.869  0.2117 -0.2211 -0.0287
  870YOPE   D2A12926  18.340  13.771   7.341 -0.0697  0.1146  0.4340
  870YOPE   C3A12927  18.733  14.044   7.571 -0.2651  0.1677 -0.1243
  870YOPE   C4A12928  19.005  14.078   7.960  0.1773 -0.1204  0.0771
  870YOPE   C1B12929  17.996  14.082   6.816  0.1023 -0.0155 -0.0066
  870YOPE   C2B12930  18.229  14.263   7.152 -0.0647  0.0701 -0.0291
  870YOPE   D3B12931  18.346  14.351   7.469 -0.4318 -0.4077 -0.2849
  870YOPE   C4B12932  18.166  14.684   7.834 -0.0471  0.3698  0.0870
  871YOPE   NH312933   2.367  13.284   5.806  0.0408  0.1047 -0.1678
  871YOPE   PO412934   2.356  13.745   5.809 -0.1139  0.0659  0.2691
  871YOPE   GL112935   2.439  14.081   6.170  0.1067  0.0867 -0.1169
  871YOPE   GL212936   2.271  14.342   6.055 -0.1158 -0.2270  0.1021
  871YOPE   C1A12937   2.285  14.130   6.607 -0.0322  0.2598 -0.1559
  871YOPE   D2A12938   1.978  14.393   6.949 -0.2678 -0.3478 -0.2919
  871YOPE   C3A12939   1.822  14.301   7.449 -0.0528 -0.0292  0.1162
  871YOPE   C4A12940   1.667  13.961   7.557 -0.1678 -0.0004 -0.1288
  871YOPE   C1B12941   1.891  14.277   6.275 -0.2263  0.0834 -0.1810
  871YOPE   C2B12942   1.540  14.352   6.545 -0.0863 -0.2633  0.3322
  871YOPE   D3B12943   1.186  14.138   6.720 -0.1476 -0.0592 -0.1137
  871YOPE   C4B12944   0.839  14.157   6.951 -0.1095 -0.2262 -0.2007
  872YOPE   NH312945   5.933   1.473   5.735 -0.1107  0.2541  0.1535
  872YOPE   PO412946   5.464   1.578   5.928  0.1747  0.3465  0.1535
  872YOPE   GL112947   5.633   1.681   6.279  0.0841  0.1936 -0.3300
  872YOPE   GL212948   5.382   1.610   6.445 -0.2764 -0.1852 -0.0783
  872YOPE   C1A12949   5.536   2.026   6.665 -0.2723  0.1135 -0.0478
  872YOPE   D2A12950   5.738   2.205   6.999 -0.1298 -0.0618 -0.4136
  872YOPE   C3A12951   5.604   2.255   7.398  0.3190 -0.2492  0.2387
  872YOPE   C4A12952   5.430   2.548   7.667  0.2414 -0.1578 -0.1578
  872YOPE   C1B12953   5.311   1.580   6.855 -0.1682  0.2089 -0.2439
  872YOPE   C2B12954   5.259   1.935   7.229  0.0835  0.5307  0.0911
  872YOPE   D3B12955   5.215   2.013   7.608 -0.2363  0.1531 -0.5250
  872YOPE   C4B12956   5.273   2.124   8.022 -0.1257 -0.0580  0.0494
  873YOPE   NH312957  17.486   6.847   5.996  0.2094  0.0404 -0.2851
  873YOPE   PO412958  17.346   6.482   5.742 -0.2147  0.1287 -0.2894
  873YOPE   GL112959  17.239   6.320   6.135  0.1698  0.0359  0.2269
  873YOPE   GL212960  16.867   6.336   6.012  0.4286  0.4516  0.2321
  873YOPE   C1A12961  17.255   6.237   6.575  0.3383  0.0310  0.0672
  873YOPE   D2A12962  17.334   6.160   6.971  0.3193  0.0891  0.0521
  873YOPE   C3A12963  17.269   6.387   7.274 -0.0833 -0.0439  0.1185
  873YOPE   C4A12964  17.538   6.607   7.560 -0.0140  0.1959 -0.2109
  873YOPE   C1B12965  16.525   6.408   6.321  0.0197 -0.1126  0.2031
  873YOPE   C2B12966  16.468   6.411   6.732 -0.0195  0.2166  0.0959
  873YOPE   D3B12967  16.229   6.142   7.069 -0.1887  0.2162 -0.1917
  873YOPE   C4B12968  16.136   5.713   7.278 -0.0886  0.0093  0.4770
  874YOPE   NH312969   8.390  17.115   5.599  0.1320  0.0315  0.1257
  874YOPE   PO412970   8.234  16.932   5.921  0.1877 -0.1300  0.0362
  874YOPE   GL112971   8.403  16.757   6.328  0.0629 -0.2850 -0.1372
  874YOPE   GL212972   8.704  16.698   6.356  0.0646 -0.1101 -0.2143
  874YOPE   C1A12973   8.502  16.824   6.780 -0.0064  0.3764 -0.3774
  874YOPE   D2A12974   8.457  16.782   7.235 -0.1004 -0.2098 -0.0810
  874YOPE   C3A12975   8.752  16.732   7.430  0.1445  0.4374 -0.0481
  874YOPE   C4A12976   9.134  16.879   7.485  0.0559  0.0214 -0.0959
  874YOPE   C1B12977   8.631  16.393   6.654  0.1159  0.2345  0.1504
  874YOPE   C2B12978   8.632  16.067   6.747  0.0149 -0.1605 -0.1679
  874YOPE   D3B12979   8.626  15.854   7.030 -0.0432  0.2732  0.0811
  874YOPE   C4B12980   8.530  15.537   7.342 -0.2075 -0.0187 -0.0976
  875YOPE   NH312981   9.876   5.680   5.703  0.0801  0.1800  0.0932
  875YOPE   PO412982   9.979   6.031   5.588  0.0956  0.0306  0.0691
  875YOPE   GL112983  10.043   6.079   5.997 -0.4980  0.0151  0.0834
  875YOPE   GL212984   9.798   6.022   6.223  0.0302 -0.3070  0.0667
  875YOPE   C1A12985  10.238   6.158   6.342  0.1967  0.0172  0.1146
  875YOPE   D2A12986  10.352   6.082   6.718 -0.2450 -0.0123 -0.1594
  875YOPE   C3A12987   9.994   6.314   6.908  0.0667  0.3065  0.0328
  875YOPE   C4A12988   9.609   6.274   7.198 -0.0971  0.2898 -0.0513
  875YOPE   C1B12989   9.571   6.160   6.632  0.1834 -0.0383 -0.1722
  875YOPE   C2B12990   9.264   6.473   6.830 -0.3712  0.0296 -0.2183
  875YOPE   D3B12991   8.909   6.548   7.004 -0.3780 -0.2516 -0.1386
  875YOPE   C4B12992   8.645   6.530   7.324  0.1614 -0.0457 -0.0882
  876YOPE   NH312993   9.198  10.717   5.585 -0.4029  0.2263  0.2767
  876YOPE   PO412994   9.556  10.372   5.585 -0.3888  0.2249 -0.0405
  876YOPE   GL112995   9.777  10.218   6.017  0.0198 -0.2600 -0.4232
  876YOPE   GL212996   9.809  10.458   6.210 -0.1859  0.0129 -0.0934
  876YOPE   C1A12997   9.907  10.015   6.447 -0.1259 -0.1953  0.2158
  876YOPE   D2A12998  10.114  10.119   6.871 -0.0162 -0.0308  0.2513
  876YOPE   C3A12999   9.842   9.846   7.069 -0.2324 -0.0067  0.2892
  876YOPE   C4A13000   9.573   9.483   7.133 -0.0366 -0.1113  0.0537
  876YOPE   C1B13001   9.992  10.527   6.584  0.0830  0.4348  0.1974
  876YOPE   C2B13002  10.044  10.596   7.023  0.1149  0.0287  0.0076
  876YOPE   D3B13003  10.346  10.668   7.396 -0.3129  0.0544 -0.1359
  876YOPE   C4B13004  10.437  10.918   7.669  0.0446  0.0116 -0.2292
  877YOPE   NH313005   2.729   9.642   6.138 -0.2006  0.1028 -0.3014
  877YOPE   PO413006   2.907  10.045   6.075 -0.0246 -0.3171  0.1685
  877YOPE   GL113007   3.290  10.124   6.404 -0.0034  0.1674 -0.0797
  877YOPE   GL213008   3.508  10.329   6.519  0.1059 -0.0581 -0.2601
  877YOPE   C1A13009   3.300   9.968   6.851 -0.1172 -0.0470 -0.2656
  877YOPE   D2A13010   3.088   9.775   7.204  0.0212 -0.0963  0.0330
  877YOPE   C3A13011   3.070   9.880   7.524 -0.2502  0.1948  0.1418
  877YOPE   C4A13012   3.362   9.893   7.859 -0.0223  0.1996 -0.0526
  877YOPE   C1B13013   3.579  10.480   6.913  0.0184  0.2819  0.2484
  877YOPE   C2B13014   3.896  10.787   7.148  0.1548 -0.0965  0.1256
  877YOPE   D3B13015   4.378  10.893   7.177  0.0746 -0.0182 -0.1479
  877YOPE   C4B13016   4.653  11.170   7.257  0.0551  0.1660 -0.1809
  878YOPE   NH313017  13.467  10.509   5.673 -0.0212 -0.1448  0.0669
  878YOPE   PO413018  13.334  10.067   5.737 -0.1463 -0.1947  0.1774
  878YOPE   GL113019  13.174   9.823   6.133 -0.0011  0.1411  0.2375
  878YOPE   GL213020  13.196   9.450   6.166  0.0104 -0.1174  0.2721
  878YOPE   C1A13021  13.131   9.929   6.612 -0.3874 -0.0453 -0.2562
  878YOPE   D2A13022  13.032   9.749   7.102 -0.1161  0.0514  0.1638
  878YOPE   C3A13023  12.987  10.011   7.447 -0.0519 -0.1022 -0.1887
  878YOPE   C4A13024  13.163  10.205   7.857 -0.0796  0.0957 -0.4384
  878YOPE   C1B13025  13.016   9.448   6.692  0.0427  0.5258  0.0483
  878YOPE   C2B13026  12.999   9.241   7.071 -0.1266 -0.3797 -0.1225
  878YOPE   D3B13027  13.129   8.968   7.410  0.0580 -0.1971 -0.3175
  878YOPE   C4B13028  13.174   8.630   7.815  0.1040  0.1229 -0.4549
  879YOPE   NH313029  15.359  15.682   6.000  0.0465  0.2726  0.0495
  879YOPE   PO413030  15.732  15.878   6.098  0.1228 -0.2376  0.3296
  879YOPE   GL113031  15.608  15.932   6.536  0.1232  0.0666  0.0622
  879YOPE   GL213032  15.396  16.116   6.510 -0.0143  0.3782 -0.1528
  879YOPE   C1A13033  15.354  15.802   6.956 -0.2814 -0.0990 -0.0363
  879YOPE   D2A13034  15.348  15.707   7.356  0.0663 -0.2440 -0.1217
  879YOPE   C3A13035  14.896  15.808   7.556  0.0055 -0.3497  0.1262
  879YOPE   C4A13036  14.747  15.832   8.046  0.4416  0.0544  0.0565
  879YOPE   C1B13037  15.184  16.283   6.805 -0.0177 -0.0001  0.1141
  879YOPE   C2B13038  14.899  16.615   6.945  0.0910  0.2328 -0.2451
  879YOPE   D3B13039  14.717  16.994   7.035  0.1599 -0.0025  0.0295
  879YOPE   C4B13040  14.433  17.148   6.852  0.0125  0.3490 -0.1631
  880YOPE   NH313041  11.167  10.461   5.787 -0.0238  0.0714 -0.2273
  880YOPE   PO413042  11.492  10.724   5.685  0.0250 -0.2763 -0.1125
  880YOPE   GL113043  11.564  10.631   6.062 -0.1078  0.1869  0.0050
  880YOPE   GL213044  11.890  10.633   6.165  0.3696 -0.1603 -0.2142
  880YOPE   C1A13045  11.479  10.429   6.477  0.3458 -0.2394 -0.0188
  880YOPE   D2A13046  11.065  10.217   6.771  0.2056 -0.2429  0.0425
  880YOPE   C3A13047  11.008  10.214   7.184 -0.1221 -0.1521 -0.4488
  880YOPE   C4A13048  11.193  10.170   7.708 -0.1934 -0.2086  0.0037
  880YOPE   C1B13049  11.718  10.874   6.621 -0.2968 -0.1783 -0.1447
  880YOPE   C2B13050  11.380  11.177   6.863 -0.2781  0.0036 -0.1595
  880YOPE   D3B13051  11.166  11.048   7.228 -0.0886  0.1107  0.0754
  880YOPE   C4B13052  10.819  10.681   7.363 -0.1963  0.2726 -0.0753
  881YOPE   NH313053  14.118   6.080   5.606 -0.2027  0.2398 -0.2106
  881YOPE   PO413054  14.582   5.893   5.657  0.0734 -0.2703 -0.2021
  881YOPE   GL113055  14.321   6.022   6.081  0.2777 -0.5174  0.1346
  881YOPE   GL213056  14.046   6.318   6.072 -0.1000  0.2231 -0.1528
  881YOPE   C1A13057  14.278   5.850   6.451 -0.2549  0.1213 -0.1460
  881YOPE   D2A13058  14.251   5.912   6.868  0.1186  0.0097 -0.2486
  881YOPE   C3A13059  14.356   5.711   7.269 -0.0823  0.2965  0.0566
  881YOPE   C4A13060  14.106   5.717   7.619 -0.1828  0.0888 -0.1023
  881YOPE   C1B13061  13.852   6.104   6.370  0.0207  0.3254 -0.1494
  881YOPE   C2B13062  13.771   6.129   6.794 -0.1019 -0.0527 -0.1060
  881YOPE   D3B13063  13.708   6.234   7.059 -0.0033 -0.0073 -0.2117
  881YOPE   C4B13064  14.082   6.157   7.339  0.0496 -0.1675  0.0430
  882YOPE   NH313065   8.189   6.560   5.300  0.0507 -0.2191  0.1991
  882YOPE   PO413066   8.402   6.235   5.349  0.1495 -0.0198 -0.1395
  882YOPE   GL113067   8.282   6.159   5.704  0.0198 -0.2529  0.1478
  882YOPE   GL213068   8.132   6.429   5.794  0.0529  0.0818  0.0466
  882YOPE   C1A13069   8.253   5.861   6.055  0.1768 -0.2406 -0.2824
  882YOPE   D2A13070   8.011   5.521   6.165 -0.0499 -0.3003  0.0082
  882YOPE   C3A13071   8.187   5.113   6.012 -0.1041 -0.3059  0.0541
  882YOPE   C4A13072   8.462   4.870   6.250 -0.0822  0.0363 -0.2736
  882YOPE   C1B13073   7.805   6.131   5.998  0.3229 -0.0174  0.1427
  882YOPE   C2B13074   7.906   6.010   6.401 -0.2032 -0.0734 -0.0878
  882YOPE   D3B13075   8.181   5.737   6.550  0.2772 -0.0768  0.0980
  882YOPE   C4B13076   8.391   5.619   6.921 -0.0248  0.0219  0.0733
  883YOPE   NH313077  13.014   4.225   5.614 -0.0770 -0.1922 -0.0099
  883YOPE   PO413078  12.610   4.461   5.480  0.0457 -0.0070 -0.0307
  883YOPE   GL113079  12.563   4.414   6.027 -0.0050  0.1869  0.0998
  883YOPE   GL213080  12.936   4.453   6.041  0.3523 -0.1283 -0.0866
  883YOPE   C1A13081  12.470   4.313   6.496 -0.0137  0.3672 -0.0817
  883YOPE   D2A13082  12.072   4.308   6.670 -0.0084 -0.0976 -0.1047
  883YOPE   C3A13083  11.900   4.241   7.020 -0.1447 -0.0387  0.0574
  883YOPE   C4A13084  11.921   4.400   7.421  0.2268  0.1662 -0.0184
  883YOPE   C1B13085  13.108   4.245   6.463 -0.1985  0.0132 -0.1526
  883YOPE   C2B13086  13.278   4.274   6.903  0.1465  0.2348  0.2256
  883YOPE   D3B13087  13.502   4.376   7.308 -0.0719 -0.1816  0.2049
  883YOPE   C4B13088  13.646   4.187   7.744 -0.0409  0.0043 -0.1633
  884YOPE   NH313089   6.095  15.703   6.041  0.0818  0.2315 -0.1910
  884YOPE   PO413090   6.423  15.621   5.868 -0.2159 -0.4410  0.1518
  884YOPE   GL113091   6.794  15.554   6.246  0.1954  0.0347  0.0496
  884YOPE   GL213092   7.002  15.369   6.299  0.0345 -0.0270 -0.1862
  884YOPE   C1A13093   6.922  15.681   6.700  0.2435  0.0103  0.0321
  884YOPE   D2A13094   7.284  15.726   7.099 -0.0615 -0.0130  0.1560
  884YOPE   C3A13095   7.230  15.725   7.597 -0.1817  0.2413 -0.3528
  884YOPE   C4A13096   7.023  15.881   7.906  0.1133 -0.0204 -0.2211
  884YOPE   C1B13097   7.388  15.692   6.362  0.2918  0.0070  0.0117
  884YOPE   C2B13098   7.574  15.817   6.692 -0.3287 -0.1345 -0.1520
  884YOPE   D3B13099   7.768  15.686   7.060  0.0716  0.1735  0.1524
  884YOPE   C4B13100   7.758  15.528   7.335  0.0362 -0.1324 -0.0758
  885YOPE   NH313101   2.178   3.422   6.385 -0.2060  0.1264  0.0623
  885YOPE   PO413102   2.346   3.844   6.241  0.0104  0.1031  0.0948
  885YOPE   GL113103   2.501   3.839   6.638  0.1575  0.3100  0.0136
  885YOPE   GL213104   2.236   3.835   6.786  0.1197 -0.3032 -0.4651
  885YOPE   C1A13105   2.626   3.651   7.104 -0.1740  0.2596  0.2334
  885YOPE   D2A13106   2.855   3.606   7.433  0.1977 -0.0005 -0.5080
  885YOPE   C3A13107   3.111   3.773   7.811  0.0157 -0.4265  0.1370
  885YOPE   C4A13108   3.305   3.793   8.228 -0.0489 -0.0181 -0.2481
  885YOPE   C1B13109   2.161   4.088   7.037  0.3851  0.0095  0.0639
  885YOPE   C2B13110   1.987   4.089   7.465  0.2239  0.2040  0.0829
  885YOPE   D3B13111   2.113   4.030   7.922  0.1925 -0.1224 -0.0128
  885YOPE   C4B13112   2.120   4.015   8.346  0.0293 -0.2551 -0.1566
  886YOPE   NH313113  17.151   3.293   6.346 -0.1357 -0.1195 -0.1285
  886YOPE   PO413114  16.785   3.450   6.381 -0.2129  0.0665  0.0428
  886YOPE   GL113115  16.792   3.432   6.775  0.1604  0.1222  0.0239
  886YOPE   GL213116  17.082   3.569   6.810  0.1435  0.0951  0.1301
  886YOPE   C1A13117  16.652   3.357   7.268 -0.5194 -0.0717 -0.1340
  886YOPE   D2A13118  16.759   3.102   7.628  0.1713 -0.0699  0.0469
  886YOPE   C3A13119  16.927   2.995   8.039 -0.1761  0.0693  0.0535
  886YOPE   C4A13120  17.184   3.064   8.456  0.0821  0.0348 -0.1381
  886YOPE   C1B13121  17.403   3.591   7.045 -0.1042  0.0213  0.1912
  886YOPE   C2B13122  17.585   3.620   7.451 -0.0620 -0.1808  0.2165
  886YOPE   D3B13123  17.442   3.647   7.792  0.1947 -0.0013 -0.0490
  886YOPE   C4B13124  17.371   3.797   8.197  0.0050  0.1686 -0.0058
  887YOPE   NH313125  17.017  13.686   6.115  0.2107  0.0530 -0.2430
  887YOPE   PO413126  17.423  13.850   6.004  0.2471  0.2687 -0.1541
  887YOPE   GL113127  17.502  13.723   6.389  0.0160  0.1377  0.3066
  887YOPE   GL213128  17.290  13.883   6.514 -0.4631  0.1940  0.2568
  887YOPE   C1A13129  17.376  13.478   6.789  0.1505 -0.1720  0.0133
  887YOPE   D2A13130  17.429  13.569   7.192  0.2033  0.1336  0.1130
  887YOPE   C3A13131  17.413  13.880   7.524 -0.3025  0.1355  0.0914
  887YOPE   C4A13132  17.382  14.115   7.941  0.0571 -0.2822 -0.6046
  887YOPE   C1B13133  17.524  14.027   6.874 -0.1610  0.2762  0.1284
  887YOPE   C2B13134  17.700  14.080   7.173  0.2269 -0.0930 -0.1787
  887YOPE   D3B13135  17.891  14.062   7.505 -0.0601  0.0463  0.0499
  887YOPE   C4B13136  18.193  14.112   7.880  0.1987 -0.0629 -0.0553
  888YOPE   NH313137   9.580   7.752   5.620 -0.1090 -0.0866 -0.1651
  888YOPE   PO413138   9.576   8.130   5.745 -0.0295  0.1313 -0.3666
  888YOPE   GL113139   9.408   7.942   6.159  0.0432  0.0125 -0.0465
  888YOPE   GL213140   9.440   7.514   6.152  0.1379 -0.1577 -0.0062
  888YOPE   C1A13141   9.410   7.996   6.557  0.0409  0.0331  0.1331
  888YOPE   D2A13142   9.270   8.254   6.888 -0.1878 -0.3228  0.1857
  888YOPE   C3A13143   9.178   8.144   7.257  0.1191  0.0923 -0.0094
  888YOPE   C4A13144   9.071   7.923   7.583  0.3309  0.0201 -0.1170
  888YOPE   C1B13145   9.347   7.519   6.665 -0.1538  0.2474 -0.0747
  888YOPE   C2B13146   9.477   7.742   7.062  0.0212 -0.0761  0.0420
  888YOPE   D3B13147   9.633   8.005   7.426  0.3048 -0.0858  0.0487
  888YOPE   C4B13148   9.934   8.303   7.420 -0.0529 -0.2179  0.0158
  889YOPE   NH313149   8.099   1.838   5.760 -0.0484  0.0234  0.0432
  889YOPE   PO413150   7.863   2.336   5.701  0.1163 -0.2234  0.0062
  889YOPE   GL113151   8.043   2.347   6.105  0.0534  0.0991 -0.2729
  889YOPE   GL213152   8.277   2.178   6.109  0.0762  0.0681  0.1851
  889YOPE   C1A13153   8.153   2.452   6.565 -0.1258  0.1786  0.2452
  889YOPE   D2A13154   8.022   2.373   6.942  0.1564 -0.0332  0.3324
  889YOPE   C3A13155   7.664   2.526   7.081  0.0809 -0.2072 -0.0471
  889YOPE   C4A13156   7.480   2.841   7.134  0.2212 -0.0820 -0.3686
  889YOPE   C1B13157   8.571   2.007   6.502 -0.1932 -0.1025 -0.0694
  889YOPE   C2B13158   8.438   1.924   6.990 -0.0069  0.1501 -0.0502
  889YOPE   D3B13159   8.275   1.528   7.156 -0.2098  0.0503 -0.0784
  889YOPE   C4B13160   8.100   1.246   7.532 -0.2141  0.0173 -0.2274
  890YOPE   NH313161  17.244   1.732   6.499  0.0761 -0.0017  0.0746
  890YOPE   PO413162  17.628   1.882   6.339 -0.3610  0.1655  0.1690
  890YOPE   GL113163  17.755   1.746   6.719 -0.0262 -0.1119 -0.1119
  890YOPE   GL213164  17.612   1.970   6.906 -0.1560  0.0831 -0.1735
  890YOPE   C1A13165  17.935   1.542   7.040  0.1749 -0.1007 -0.0626
  890YOPE   D2A13166  18.044   1.527   7.421 -0.0849 -0.1023  0.0447
  890YOPE   C3A13167  18.098   1.170   7.807  0.0766 -0.0954  0.4339
  890YOPE   C4A13168  18.072   0.892   8.053 -0.4304  0.0297  0.5128
  890YOPE   C1B13169  17.673   1.981   7.348 -0.0384  0.0508  0.0448
  890YOPE   C2B13170  17.650   2.037   7.755 -0.4497 -0.0559 -0.3413
  890YOPE   D3B13171  17.461   2.216   8.245 -0.0382  0.2009 -0.4586
  890YOPE   C4B13172  17.190   2.530   8.451  0.1117  0.0158 -0.4094
  891YOPE   NH313173   4.283   9.417   5.809 -0.0597 -0.2784 -0.0375
  891YOPE   PO413174   4.182   9.147   6.093  0.1939 -0.0247 -0.2147
  891YOPE   GL113175   4.368   8.936   6.269 -0.2253  0.0815 -0.0796
  891YOPE   GL213176   4.674   8.986   6.144  0.1892  0.0402  0.2254
  891YOPE   C1A13177   4.439   8.839   6.660  0.0594  0.3924 -0.0281
  891YOPE   D2A13178   4.382   8.914   7.087  0.1136  0.0772 -0.0847
  891YOPE   C3A13179   4.434   9.142   7.454 -0.1144 -0.1672  0.0929
  891YOPE   C4A13180   4.242   9.489   7.672  0.1142 -0.0198  0.0859
  891YOPE   C1B13181   4.740   9.197   6.524  0.0275  0.2052 -0.0354
  891YOPE   C2B13182   4.825   9.245   7.032  0.0225  0.0205  0.3545
  891YOPE   D3B13183   4.889   9.067   7.426 -0.0267 -0.3436 -0.0568
  891YOPE   C4B13184   5.040   8.887   7.765 -0.3547 -0.2875 -0.0283
  892YOPE   NH313185   5.000  10.817   5.931  0.1104  0.3050 -0.0407
  892YOPE   PO413186   4.887  11.283   5.944 -0.3164  0.0080  0.0686
  892YOPE   GL113187   4.988  11.399   6.368 -0.1134  0.0225 -0.3668
  892YOPE   GL213188   4.709  11.513   6.447  0.1529  0.0013  0.0879
  892YOPE   C1A13189   5.295  11.312   6.699  0.0176 -0.0622 -0.1641
  892YOPE   D2A13190   5.227  11.070   7.148 -0.1635  0.0089 -0.1668
  892YOPE   C3A13191   5.405  10.918   7.535  0.1377 -0.1107 -0.0589
  892YOPE   C4A13192   5.381  11.074   7.921  0.2075 -0.1532  0.1629
  892YOPE   C1B13193   4.454  11.362   6.804 -0.0904 -0.2604 -0.1498
  892YOPE   C2B13194   4.261  11.443   7.189  0.1920 -0.3334 -0.1194
  892YOPE   D3B13195   3.974  11.275   7.484 -0.0088  0.0370 -0.0878
  892YOPE   C4B13196   3.511  11.120   7.523 -0.0119 -0.1511 -0.0985
  893YOPE   NH313197  16.975   7.388   5.963  0.2535  0.1285  0.2841
  893YOPE   PO413198  17.321   7.260   6.263 -0.3250  0.4954  0.0541
  893YOPE   GL113199  17.215   7.399   6.670  0.0350 -0.0554  0.3073
  893YOPE   GL213200  16.864   7.377   6.733 -0.0460 -0.2460  0.3765
  893YOPE   C1A13201  17.195   7.434   7.137  0.0107 -0.0302 -0.2470
  893YOPE   D2A13202  17.094   7.781   7.458  0.1641 -0.0295 -0.0403
  893YOPE   C3A13203  17.451   8.137   7.517  0.0778 -0.1501 -0.0752
  893YOPE   C4A13204  17.893   8.052   7.299  0.3397 -0.0304 -0.2261
  893YOPE   C1B13205  16.708   7.628   7.182  0.4613 -0.0294 -0.2938
  893YOPE   C2B13206  16.725   7.504   7.560  0.3436  0.0887 -0.0239
  893YOPE   D3B13207  17.138   7.321   7.645 -0.0627 -0.1269 -0.0946
  893YOPE   C4B13208  17.162   6.910   7.495  0.1673 -0.1177 -0.1819
  894YOPE   NH313209   5.572  12.512   5.924 -0.2979 -0.0062  0.0815
  894YOPE   PO413210   5.492  12.079   5.756  0.2624 -0.0742 -0.1487
  894YOPE   GL113211   5.652  12.070   6.182  0.1417 -0.1184 -0.0610
  894YOPE   GL213212   5.519  11.752   6.236  0.2097  0.0466  0.1509
  894YOPE   C1A13213   5.992  11.817   6.452  0.1190  0.0784  0.0834
  894YOPE   D2A13214   5.894  11.569   6.873  0.0372  0.0955 -0.2072
  894YOPE   C3A13215   5.869  11.744   7.288 -0.0997  0.0911  0.0697
  894YOPE   C4A13216   6.009  11.865   7.619  0.2947 -0.0069  0.0152
  894YOPE   C1B13217   5.466  11.793   6.637 -0.1882 -0.0392  0.3448
  894YOPE   C2B13218   5.413  11.634   7.070  0.4325  0.0491  0.2001
  894YOPE   D3B13219   5.649  11.302   7.402  0.1693 -0.2197  0.0657
  894YOPE   C4B13220   5.753  11.464   7.739  0.0358  0.0869 -0.2773
  895YOPE   NH313221   0.420   4.425   6.106 -0.0664  0.3585 -0.2392
  895YOPE   PO413222  -0.147   4.493   6.121 -0.0628 -0.1580 -0.3127
  895YOPE   GL113223  -0.416   4.562   6.520  0.0087 -0.1699  0.1048
  895YOPE   GL213224  -0.259   4.806   6.750  0.2831  0.0362  0.0004
  895YOPE   C1A13225  -0.371   4.421   7.016 -0.0441 -0.2062 -0.2425
  895YOPE   D2A13226  -0.494   4.417   7.374  0.0674  0.0868  0.0604
  895YOPE   C3A13227  -0.325   4.330   7.739  0.0415  0.0193  0.1100
  895YOPE   C4A13228  -0.376   4.184   8.199 -0.0780 -0.0068  0.0522
  895YOPE   C1B13229  -0.047   4.842   7.043 -0.0516 -0.1136  0.2001
  895YOPE   C2B13230  -0.064   4.804   7.439  0.2090 -0.1356 -0.0704
  895YOPE   D3B13231  -0.222   4.915   7.816 -0.2154  0.3780 -0.0081
  895YOPE   C4B13232  -0.218   4.652   8.178  0.0657 -0.2841  0.1457
  896YOPE   NH313233  15.009   7.993   5.332 -0.0767 -0.1820 -0.0924
  896YOPE   PO413234  14.879   8.208   5.719  0.2355 -0.0363 -0.1187
  896YOPE   GL113235  14.770   8.359   6.184 -0.1762 -0.0386  0.4345
  896YOPE   GL213236  15.035   8.432   6.461 -0.1928 -0.0055 -0.0379
  896YOPE   C1A13237  14.519   8.452   6.512 -0.2677  0.1916 -0.2677
  896YOPE   D2A13238  14.581   8.510   6.908 -0.1183  0.3728  0.0769
  896YOPE   C3A13239  14.242   8.413   7.249 -0.2003 -0.0962 -0.0230
  896YOPE   C4A13240  13.986   8.099   7.498  0.0688 -0.0602  0.0004
  896YOPE   C1B13241  14.960   8.127   6.800  0.3828  0.0152  0.0093
  896YOPE   C2B13242  15.139   7.766   6.993  0.0075 -0.1704 -0.0790
  896YOPE   D3B13243  15.325   7.704   7.450  0.0409  0.0781  0.0648
  896YOPE   C4B13244  15.436   7.700   7.863 -0.2803  0.0581  0.0594
  897YOPE   NH313245   2.024  17.963   6.226 -0.1105  0.0342 -0.0154
  897YOPE   PO413246   2.078  17.487   6.199 -0.1386 -0.1345 -0.2795
  897YOPE   GL113247   2.073  17.344   6.607  0.2025  0.0221 -0.0595
  897YOPE   GL213248   1.758  17.299   6.647 -0.0496  0.0260 -0.4085
  897YOPE   C1A13249   2.230  17.286   7.000 -0.3310 -0.2847  0.0268
  897YOPE   D2A13250   2.301  17.437   7.366  0.0089  0.0509 -0.3214
  897YOPE   C3A13251   2.213  17.184   7.694  0.1144 -0.2277 -0.1426
  897YOPE   C4A13252   2.185  16.814   8.013 -0.1380 -0.2902 -0.0107
  897YOPE   C1B13253   1.801  17.026   7.017 -0.1050  0.0537  0.0147
  897YOPE   C2B13254   2.056  16.757   7.178  0.0869  0.2594 -0.1398
  897YOPE   D3B13255   2.119  16.416   7.559  0.1988 -0.0380 -0.0393
  897YOPE   C4B13256   2.453  16.272   7.734 -0.1188 -0.0860  0.0084
  898YOPE   NH313257   6.518   3.652   5.534  0.1247  0.1996  0.1889
  898YOPE   PO413258   6.758   3.776   5.863  0.2315  0.0380  0.0122
  898YOPE   GL113259   6.803   3.916   6.196 -0.3216  0.1361 -0.1981
  898YOPE   GL213260   6.491   3.967   6.294  0.1622  0.0693  0.1119
  898YOPE   C1A13261   7.093   4.015   6.489 -0.3399 -0.0584  0.0679
  898YOPE   D2A13262   7.277   4.431   6.751 -0.0914  0.0593 -0.0415
  898YOPE   C3A13263   7.367   4.269   7.199  0.3527 -0.1563 -0.1614
  898YOPE   C4A13264   7.205   4.168   7.609  0.0049  0.1362  0.5270
  898YOPE   C1B13265   6.661   3.920   6.705  0.2306  0.1397 -0.0565
  898YOPE   C2B13266   6.819   4.007   7.089  0.2880  0.1619 -0.1167
  898YOPE   D3B13267   6.738   4.204   7.483 -0.0458 -0.1390  0.2213
  898YOPE   C4B13268   6.652   4.259   7.910  0.0617  0.1338 -0.1821
  899YOPE   NH313269   3.147  10.461   6.015 -0.2869  0.0113 -0.0040
  899YOPE   PO413270   3.055  10.834   6.054 -0.0297 -0.0882  0.1643
  899YOPE   GL113271   3.170  10.812   6.507 -0.1387  0.0730  0.1711
  899YOPE   GL213272   3.390  10.836   6.598  0.0316  0.0402 -0.1002
  899YOPE   C1A13273   2.916  10.877   6.767 -0.0778 -0.1330 -0.1258
  899YOPE   D2A13274   2.748  10.881   7.177  0.3679  0.1724  0.0611
  899YOPE   C3A13275   3.028  10.940   7.589  0.2676 -0.3083  0.0339
  899YOPE   C4A13276   3.309  10.866   7.956  0.0927 -0.1008 -0.0917
  899YOPE   C1B13277   3.376  10.844   7.118 -0.1998  0.1612  0.3135
  899YOPE   C2B13278   3.402  10.564   7.507 -0.1609 -0.0652  0.0069
  899YOPE   D3B13279   3.513  10.402   7.870 -0.2223  0.0603  0.0343
  899YOPE   C4B13280   3.626  10.212   8.231 -0.1268  0.0752 -0.3696
  900YOPE   NH313281  16.477   1.658   6.399  0.1564  0.1914  0.1885
  900YOPE   PO413282  16.777   2.029   6.552  0.0007 -0.0336 -0.0088
  900YOPE   GL113283  16.742   1.755   6.883  0.0980  0.0157 -0.2127
  900YOPE   GL213284  17.071   2.019   6.988  0.0109 -0.1568  0.0114
  900YOPE   C1A13285  16.592   1.695   7.253  0.1433 -0.0287  0.1833
  900YOPE   D2A13286  16.661   1.560   7.641  0.0477  0.2041  0.0107
  900YOPE   C3A13287  16.552   1.375   7.864 -0.1092  0.2647 -0.1838
  900YOPE   C4A13288  16.166   1.360   8.144 -0.0460  0.2999  0.2315
  900YOPE   C1B13289  17.123   1.880   7.449 -0.1532  0.4566 -0.0835
  900YOPE   C2B13290  17.214   1.597   7.852 -0.0206  0.2976  0.0827
  900YOPE   D3B13291  17.070   1.148   7.984  0.0321 -0.0757  0.2412
  900YOPE   C4B13292  17.140   0.721   8.149 -0.0425 -0.0298  0.0383
  901YOPE   NH313293  12.794  17.861   6.081 -0.0264 -0.1695  0.2426
  901YOPE   PO413294  13.243  17.855   6.087 -0.0864  0.0338  0.0503
  901YOPE   GL113295  13.182  17.813   6.499  0.1225 -0.0499 -0.0192
  901YOPE   GL213296  12.903  17.966   6.528 -0.0818 -0.0797 -0.0068
  901YOPE   C1A13297  13.120  17.864   6.974 -0.1357 -0.2880 -0.1091
  901YOPE   D2A13298  13.166  17.841   7.332 -0.1463 -0.0507  0.2803
  901YOPE   C3A13299  13.032  18.135   7.655 -0.2343  0.1969 -0.1527
  901YOPE   C4A13300  12.739  17.928   7.901  0.1435 -0.1834 -0.0148
  901YOPE   C1B13301  12.680  17.958   6.791  0.2900 -0.0366 -0.0319
  901YOPE   C2B13302  12.635  17.899   7.160  0.0276 -0.1040 -0.1295
  901YOPE   D3B13303  12.529  17.680   7.537  0.0173 -0.2430 -0.1451
  901YOPE   C4B13304  12.339  17.622   7.889 -0.2805  0.0779  0.0714
  902YOPE   NH313305  12.740   7.362   5.825  0.0287 -0.0300  0.0593
  902YOPE   PO413306  12.967   7.153   6.029 -0.1157 -0.0640 -0.2245
  902YOPE   GL113307  13.002   7.170   6.432  0.0080 -0.0865 -0.2512
  902YOPE   GL213308  12.935   6.816   6.584  0.1563  0.0597 -0.2648
  902YOPE   C1A13309  13.158   7.350   6.691 -0.0748 -0.1138  0.0334
  902YOPE   D2A13310  13.603   7.351   6.869  0.0473 -0.1011  0.0108
  902YOPE   C3A13311  13.670   7.445   7.372  0.2207  0.0096 -0.0869
  902YOPE   C4A13312  13.890   7.606   7.723  0.0309  0.4244  0.0007
  902YOPE   C1B13313  12.548   6.992   6.756  0.4017 -0.1077 -0.2828
  902YOPE   C2B13314  12.483   6.871   7.139 -0.1738  0.1019  0.4315
  902YOPE   D3B13315  12.580   6.642   7.506  0.2761 -0.0708 -0.0185
  902YOPE   C4B13316  12.419   6.625   7.899 -0.0771  0.1371 -0.2736
  903YOPE   NH313317   7.195   3.964   5.841 -0.0651  0.2108  0.1409
  903YOPE   PO413318   6.850   4.299   5.796 -0.0130 -0.3261  0.1380
  903YOPE   GL113319   6.759   4.433   6.180 -0.0332 -0.1749 -0.0631
  903YOPE   GL213320   6.775   4.804   6.151 -0.3248  0.0720 -0.0087
  903YOPE   C1A13321   6.743   4.383   6.538 -0.0951  0.0154  0.0792
  903YOPE   D2A13322   6.719   4.453   6.994  0.1555 -0.0272 -0.0383
  903YOPE   C3A13323   6.995   4.576   7.277  0.0969  0.4277 -0.2021
  903YOPE   C4A13324   7.473   4.872   7.223  0.1143  0.4060  0.1303
  903YOPE   C1B13325   7.053   4.785   6.498 -0.0727 -0.2734 -0.2617
  903YOPE   C2B13326   6.978   4.973   6.906 -0.0240  0.1555 -0.0403
  903YOPE   D3B13327   6.923   5.104   7.365  0.1192 -0.2243 -0.2593
  903YOPE   C4B13328   6.761   5.115   7.728  0.0234 -0.0929 -0.2286
  904YOPE   NH313329   9.212  18.217   5.874  0.0585 -0.2807  0.1699
  904YOPE   PO413330   8.954  17.830   5.984 -0.1183 -0.3937 -0.3441
  904YOPE   GL113331   9.152  17.880   6.360 -0.0055 -0.1090  0.0464
  904YOPE   GL213332   9.035  17.669   6.502 -0.0973 -0.1834 -0.1740
  904YOPE   C1A13333   9.133  18.019   6.789 -0.0198  0.1567  0.1278
  904YOPE   D2A13334   8.961  18.024   7.142  0.3465  0.0514 -0.0246
  904YOPE   C3A13335   8.941  18.251   7.415  0.0602  0.0753 -0.3134
  904YOPE   C4A13336   9.048  18.422   7.837  0.3648 -0.2552  0.0045
  904YOPE   C1B13337   9.208  17.566   6.938  0.0413 -0.0497 -0.0925
  904YOPE   C2B13338   9.271  17.605   7.348  0.0246 -0.2426  0.0216
  904YOPE   D3B13339   9.348  17.589   7.728 -0.0890  0.3968  0.3682
  904YOPE   C4B13340   9.751  17.564   7.913  0.1062 -0.0936 -0.0660
  905YOPE   NH313341   1.725   7.633   5.835  0.1611  0.4254  0.2347
  905YOPE   PO413342   1.680   7.999   6.075 -0.0861 -0.0280  0.3492
  905YOPE   GL113343   1.593   8.087   6.497 -0.3003 -0.2173  0.1581
  905YOPE   GL213344   1.824   8.190   6.673 -0.0192  0.2832  0.1701
  905YOPE   C1A13345   1.316   8.159   6.903  0.1373  0.2485 -0.2478
  905YOPE   D2A13346   1.413   8.233   7.325 -0.1820 -0.0112  0.1378
  905YOPE   C3A13347   1.352   7.984   7.645 -0.1599 -0.0074  0.1063
  905YOPE   C4A13348   1.094   7.726   7.934  0.0839 -0.0181 -0.0165
  905YOPE   C1B13349   1.931   8.368   7.108 -0.0077  0.0328 -0.0779
  905YOPE   C2B13350   2.382   8.494   7.305 -0.1739  0.0661  0.1482
  905YOPE   D3B13351   2.419   8.551   7.759 -0.0374 -0.0287  0.2848
  905YOPE   C4B13352   2.544   8.569   8.161 -0.0824 -0.0351  0.1732
  906YOPE   NH313353  14.032   0.199   5.616 -0.1988 -0.1801 -0.1961
  906YOPE   PO413354  13.984  -0.028   6.033  0.0352  0.1208 -0.0505
  906YOPE   GL113355  13.940   0.100   6.416 -0.0834 -0.1409 -0.2381
  906YOPE   GL213356  13.930   0.455   6.490  0.3062 -0.0467 -0.3435
  906YOPE   C1A13357  13.931  -0.085   6.823 -0.0850 -0.0732 -0.0004
  906YOPE   D2A13358  14.073  -0.408   7.195 -0.2755  0.1764 -0.0382
  906YOPE   C3A13359  13.987  -0.291   7.519 -0.0110  0.1308 -0.2252
  906YOPE   C4A13360  13.929   0.054   7.821 -0.4002 -0.2357 -0.2858
  906YOPE   C1B13361  14.160   0.464   6.904 -0.2643 -0.1392 -0.1750
  906YOPE   C2B13362  14.347   0.652   7.149  0.1035  0.1586 -0.0274
  906YOPE   D3B13363  14.597   0.360   7.420 -0.0750 -0.0953 -0.0069
  906YOPE   C4B13364  14.881   0.198   7.702 -0.0483 -0.5204 -0.3776
  907YOPE   NH313365   9.284  11.541   5.383  0.2103  0.2044  0.0392
  907YOPE   PO413366   8.992  11.201   5.484  0.2182  0.3474 -0.0384
  907YOPE   GL113367   9.134  11.215   5.863  0.1133  0.0980  0.1846
  907YOPE   GL213368   8.992  10.998   5.999 -0.0191  0.4057 -0.1201
  907YOPE   C1A13369   9.462  11.107   6.116  0.0407 -0.1707 -0.1446
  907YOPE   D2A13370   9.646  10.904   6.489  0.4344 -0.0279  0.3408
  907YOPE   C3A13371   9.639  10.878   6.886 -0.1631  0.0492  0.0156
  907YOPE   C4A13372   9.568  10.727   7.338 -0.0469 -0.0739 -0.1238
  907YOPE   C1B13373   9.030  11.167   6.381 -0.0607 -0.1425  0.0477
  907YOPE   C2B13374   8.951  11.165   6.776  0.2660 -0.4783 -0.2259
  907YOPE   D3B13375   8.847  11.294   7.200  0.0740  0.1017 -0.0298
  907YOPE   C4B13376   8.762  11.532   7.434  0.1237 -0.1308 -0.1625
  908YOPE   NH313377   5.742  13.479   5.796 -0.1353 -0.3105  0.0844
  908YOPE   PO413378   5.395  13.348   5.563 -0.1205  0.0445  0.0082
  908YOPE   GL113379   5.294  13.548   5.986 -0.4083 -0.0536 -0.0255
  908YOPE   GL213380   5.162  13.297   6.259  0.2522 -0.0534  0.1494
  908YOPE   C1A13381   5.453  13.664   6.488 -0.1498 -0.3746  0.0704
  908YOPE   D2A13382   5.427  13.651   6.962 -0.0342 -0.1021  0.1110
  908YOPE   C3A13383   5.240  13.280   7.092 -0.1642 -0.2861 -0.0120
  908YOPE   C4A13384   5.092  12.911   7.354  0.2732 -0.1414  0.0812
  908YOPE   C1B13385   5.274  13.186   6.631  0.0358 -0.2743 -0.1073
  908YOPE   C2B13386   5.101  12.812   6.836 -0.0243 -0.0505  0.0323
  908YOPE   D3B13387   5.189  12.436   7.125  0.2727 -0.2996 -0.3274
  908YOPE   C4B13388   5.557  12.117   7.095 -0.1834  0.5504  0.1476
  909YOPE   NH313389   4.951   8.220   5.897  0.1903  0.1898  0.0189
  909YOPE   PO413390   4.743   8.560   5.820 -0.2866 -0.1969 -0.0392
  909YOPE   GL113391   4.502   8.381   6.203  0.0212  0.0987 -0.3441
  909YOPE   GL213392   4.519   8.072   6.265 -0.3218 -0.2583  0.4448
  909YOPE   C1A13393   4.347   8.331   6.600  0.0470  0.0409  0.0783
  909YOPE   D2A13394   4.414   8.289   6.916  0.3691 -0.3172 -0.2482
  909YOPE   C3A13395   4.325   8.478   7.337 -0.0769 -0.0419  0.0324
  909YOPE   C4A13396   4.112   8.265   7.747 -0.1514 -0.1572  0.1618
  909YOPE   C1B13397   4.813   8.088   6.694 -0.2915  0.1956  0.1709
  909YOPE   C2B13398   4.784   8.062   7.172  0.2394  0.2478 -0.0972
  909YOPE   D3B13399   4.580   8.086   7.526 -0.0603  0.2615 -0.0712
  909YOPE   C4B13400   4.578   8.235   7.976 -0.2045  0.0219  0.4077
  910YOPE   NH313401   1.500   3.681   6.000  0.1834  0.3772 -0.2917
  910YOPE   PO413402   1.730   3.330   6.041 -0.0395 -0.3462 -0.1250
  910YOPE   GL113403   1.586   3.467   6.461 -0.0918 -0.4003 -0.1424
  910YOPE   GL213404   1.512   3.175   6.587 -0.0806  0.2521 -0.0460
  910YOPE   C1A13405   1.292   3.654   6.748 -0.0273  0.3440  0.3237
  910YOPE   D2A13406   1.146   3.696   7.184 -0.1540  0.1734  0.0970
  910YOPE   C3A13407   1.194   3.366   7.416  0.2186  0.2588 -0.1728
  910YOPE   C4A13408   1.160   3.151   7.847 -0.1071  0.4519 -0.0066
  910YOPE   C1B13409   1.519   3.266   7.062 -0.3326  0.0196  0.0364
  910YOPE   C2B13410   1.759   3.199   7.418  0.1244  0.0157 -0.2177
  910YOPE   D3B13411   1.631   3.256   7.812 -0.4122 -0.2983  0.1823
  910YOPE   C4B13412   1.515   3.175   8.281  0.2395  0.0240 -0.0178
  911YOPE   NH313413  15.642   3.850   5.770 -0.0998 -0.0983 -0.1142
  911YOPE   PO413414  15.730   4.070   6.121  0.0743 -0.1783 -0.1511
  911YOPE   GL113415  15.847   4.319   6.424  0.1097 -0.0034  0.1901
  911YOPE   GL213416  16.013   4.585   6.429  0.1762 -0.0958 -0.0298
  911YOPE   C1A13417  15.721   4.381   6.805 -0.0340  0.0684 -0.0740
  911YOPE   D2A13418  15.477   4.281   7.194 -0.0141  0.1665  0.0117
  911YOPE   C3A13419  15.582   4.156   7.603 -0.0916  0.1222 -0.1230
  911YOPE   C4A13420  15.599   4.062   8.005  0.0024 -0.3133 -0.0345
  911YOPE   C1B13421  16.077   4.752   6.880  0.2725  0.1259 -0.1420
  911YOPE   C2B13422  15.832   4.975   7.174 -0.2817 -0.1057  0.0867
  911YOPE   D3B13423  15.712   4.644   7.458  0.2559 -0.0097  0.1031
  911YOPE   C4B13424  15.750   4.575   7.839 -0.3592  0.0511 -0.0987
  912YOPE   NH313425   7.786   7.276   5.644  0.2249  0.0828  0.1312
  912YOPE   PO413426   7.763   6.835   5.568 -0.0978 -0.2062 -0.2333
  912YOPE   GL113427   7.719   6.770   5.914  0.0736 -0.0433  0.1123
  912YOPE   GL213428   7.527   6.504   6.013  0.1573  0.3135 -0.1666
  912YOPE   C1A13429   7.902   6.529   6.308  0.0418 -0.0127  0.3009
  912YOPE   D2A13430   7.838   6.382   6.739 -0.0051 -0.2619 -0.2238
  912YOPE   C3A13431   7.807   5.992   6.885 -0.0905  0.2113 -0.2784
  912YOPE   C4A13432   7.814   5.643   7.160  0.0152 -0.0324  0.0612
  912YOPE   C1B13433   7.338   6.589   6.393  0.1600 -0.1885  0.1303
  912YOPE   C2B13434   7.378   6.449   6.829  0.3135 -0.1725  0.0622
  912YOPE   D3B13435   7.478   6.227   7.186  0.3175 -0.1168  0.1156
  912YOPE   C4B13436   7.400   5.805   7.374  0.1819 -0.4626 -0.0822
  913YOPE   NH313437   1.339   0.163   6.251 -0.0663  0.0058  0.3844
  913YOPE   PO413438   1.848   0.115   6.232 -0.0112 -0.0365 -0.1223
  913YOPE   GL113439   1.712  -0.032   6.658  0.1443 -0.0536 -0.3608
  913YOPE   GL213440   1.619   0.258   6.753 -0.0965  0.1359  0.2310
  913YOPE   C1A13441   1.880  -0.177   7.072 -0.1586  0.1164 -0.2233
  913YOPE   D2A13442   1.982  -0.380   7.456  0.1062  0.0019  0.0990
  913YOPE   C3A13443   2.005  -0.676   7.752 -0.0457 -0.0248  0.0260
  913YOPE   C4A13444   2.134  -0.639   8.195 -0.0000 -0.1997  0.0616
  913YOPE   C1B13445   1.681   0.345   7.145 -0.3667 -0.1070 -0.2547
  913YOPE   C2B13446   1.735   0.312   7.604  0.0883 -0.0842  0.2513
  913YOPE   D3B13447   1.973   0.406   7.983  0.1787  0.3624  0.0806
  913YOPE   C4B13448   2.081  -0.025   8.255  0.1550  0.0388  0.1587
  914YOPE   NH313449  12.090   5.428   5.621 -0.1365 -0.1104 -0.0742
  914YOPE   PO413450  12.576   5.521   5.679  0.2828  0.1292 -0.1983
  914YOPE   GL113451  12.447   5.726   6.037 -0.1464  0.0633  0.0644
  914YOPE   GL213452  12.077   5.697   6.050 -0.2596 -0.0559 -0.0415
  914YOPE   C1A13453  12.311   5.748   6.534  0.3000  0.0317  0.0248
  914YOPE   D2A13454  12.000   5.877   6.837 -0.2209 -0.1381  0.1557
  914YOPE   C3A13455  12.234   5.866   7.243 -0.2260 -0.2322 -0.2161
  914YOPE   C4A13456  11.911   5.969   7.561 -0.2661 -0.0501  0.1782
  914YOPE   C1B13457  11.919   5.904   6.268  0.0342 -0.1129  0.0714
  914YOPE   C2B13458  11.767   6.189   6.560  0.0402 -0.0482 -0.1567
  914YOPE   D3B13459  11.739   6.425   6.938  0.3083 -0.2584 -0.0795
  914YOPE   C4B13460  11.680   6.418   7.398  0.4016 -0.1874  0.2359
  915YOPE   NH313461  17.789   0.926   5.879 -0.0081 -0.3594 -0.2248
  915YOPE   PO413462  18.220   0.855   5.772 -0.1916  0.3341  0.1302
  915YOPE   GL113463  18.220   0.813   6.253  0.2504 -0.0134  0.0065
  915YOPE   GL213464  18.005   1.066   6.289  0.0475  0.0637 -0.4433
  915YOPE   C1A13465  18.293   0.721   6.621  0.3457 -0.0269  0.3779
  915YOPE   D2A13466  18.142   0.636   7.012  0.1334 -0.1432 -0.3139
  915YOPE   C3A13467  18.017   0.299   7.339  0.1776  0.1854 -0.2296
  915YOPE   C4A13468  17.989   0.117   7.751  0.2502  0.1677  0.1776
  915YOPE   C1B13469  17.825   0.704   6.589  0.1030 -0.0880 -0.1780
  915YOPE   C2B13470  17.691   0.496   6.951  0.0583 -0.0198 -0.0711
  915YOPE   D3B13471  17.498   0.274   7.358 -0.0200  0.2101 -0.1294
  915YOPE   C4B13472  17.360   0.101   7.679 -0.0440 -0.0680 -0.0050
  916YOPE   NH313473  15.154   2.536   6.327 -0.0059  0.0701 -0.0329
  916YOPE   PO413474  15.523   2.716   6.473 -0.0160  0.1215  0.1883
  916YOPE   GL113475  15.654   2.764   6.840  0.1185  0.1346 -0.0982
  916YOPE   GL213476  15.588   3.057   6.835 -0.3723 -0.1556 -0.2937
  916YOPE   C1A13477  15.590   2.680   7.184 -0.0216 -0.0079  0.0518
  916YOPE   D2A13478  15.547   2.365   7.574  0.0021  0.0353  0.1248
  916YOPE   C3A13479  15.939   2.089   7.536  0.2205 -0.0778  0.3696
  916YOPE   C4A13480  15.870   1.866   7.870 -0.2305 -0.0741  0.0653
  916YOPE   C1B13481  15.684   3.206   7.173  0.0857  0.2203  0.2375
  916YOPE   C2B13482  15.500   3.366   7.530  0.0283  0.3613 -0.3980
  916YOPE   D3B13483  15.452   3.186   8.003 -0.3371 -0.1167 -0.0308
  916YOPE   C4B13484  15.342   2.882   8.205 -0.0021  0.0659  0.0648
  917YOPE   NH313485   1.329   0.762   6.132 -0.4290 -0.1232 -0.0849
  917YOPE   PO413486   1.130   1.082   6.334 -0.0948  0.4073 -0.0672
  917YOPE   GL113487   0.908   1.155   6.647  0.0664  0.2719 -0.1260
  917YOPE   GL213488   0.684   1.390   6.689  0.1093  0.0052 -0.3870
  917YOPE   C1A13489   0.849   1.283   7.117 -0.2030  0.3680 -0.1153
  917YOPE   D2A13490   0.658   1.130   7.423 -0.0639 -0.0918 -0.2486
  917YOPE   C3A13491   0.708   0.740   7.680  0.0128 -0.0792  0.0975
  917YOPE   C4A13492   0.391   0.563   7.974 -0.1999 -0.1280  0.3608
  917YOPE   C1B13493   0.538   1.670   7.107 -0.3103 -0.0837  0.2247
  917YOPE   C2B13494   0.694   1.703   7.436 -0.1943  0.2230 -0.0034
  917YOPE   D3B13495   0.714   1.485   7.803 -0.2970  0.1933  0.2785
  917YOPE   C4B13496   0.844   1.124   7.976 -0.2008 -0.0630 -0.1787
  918YOPE   NH313497   0.462  15.879   5.777  0.0192 -0.2537  0.2022
  918YOPE   PO413498   0.645  15.460   5.787  0.0837 -0.0184 -0.3434
  918YOPE   GL113499   0.851  15.422   6.098  0.1228 -0.0506 -0.1195
  918YOPE   GL213500   0.719  15.247   6.337 -0.3306 -0.4115  0.2922
  918YOPE   C1A13501   1.173  15.426   6.539  0.0118  0.1116 -0.0988
  918YOPE   D2A13502   1.405  15.681   6.833 -0.1345  0.0759 -0.6469
  918YOPE   C3A13503   1.389  15.590   7.341 -0.0613 -0.2010 -0.1344
  918YOPE   C4A13504   1.217  15.400   7.801 -0.2022 -0.0375  0.1045
  918YOPE   C1B13505   0.876  15.118   6.752  0.0534 -0.0637 -0.2484
  918YOPE   C2B13506   0.692  15.075   7.072 -0.2088 -0.0121  0.1048
  918YOPE   D3B13507   0.719  14.869   7.400  0.0803  0.4405  0.0717
  918YOPE   C4B13508   0.852  14.391   7.517 -0.1879 -0.3228  0.2033
  919YOPE   NH313509  16.671  11.647   5.725  0.1436 -0.3030 -0.0919
  919YOPE   PO413510  16.997  11.959   5.742  0.0594 -0.0120  0.2529
  919YOPE   GL113511  17.003  11.806   6.142  0.0409 -0.1278 -0.0708
  919YOPE   GL213512  16.738  11.804   6.223 -0.0499 -0.0709 -0.0549
  919YOPE   C1A13513  17.120  11.883   6.620  0.1207 -0.1647 -0.0001
  919YOPE   D2A13514  17.190  12.123   6.909  0.2288  0.3026  0.0125
  919YOPE   C3A13515  17.053  12.167   7.299  0.1049  0.3338  0.2254
  919YOPE   C4A13516  16.883  12.138   7.744  0.2529 -0.0182  0.1079
  919YOPE   C1B13517  16.468  11.446   6.267 -0.1104  0.0643 -0.1341
  919YOPE   C2B13518  16.127  11.141   6.419 -0.1385 -0.2684  0.0983
  919YOPE   D3B13519  15.989  11.009   6.781 -0.2160  0.0681  0.1247
  919YOPE   C4B13520  15.818  10.910   7.177  0.0978 -0.0173 -0.2627
  920YOPE   NH313521  11.721   7.022   6.046  0.1027  0.2748  0.2566
  920YOPE   PO413522  11.481   7.323   6.030 -0.1835  0.2194  0.1998
  920YOPE   GL113523  11.344   7.195   6.390 -0.3335  0.0949  0.4024
  920YOPE   GL213524  11.600   7.141   6.521  0.1616 -0.4768 -0.1567
  920YOPE   C1A13525  10.975   7.430   6.567  0.2117  0.0382  0.0088
  920YOPE   D2A13526  10.774   7.703   6.762 -0.4359 -0.1496  0.0402
  920YOPE   C3A13527  10.445   7.775   6.947  0.0809  0.0824 -0.1290
  920YOPE   C4A13528  10.188   8.026   7.139 -0.2020 -0.4399 -0.1209
  920YOPE   C1B13529  11.390   7.160   6.926  0.1741  0.0382  0.0891
  920YOPE   C2B13530  11.317   7.169   7.379 -0.1720 -0.2741 -0.0979
  920YOPE   D3B13531  11.146   7.109   7.802 -0.2489 -0.1634  0.2116
  920YOPE   C4B13532  11.070   7.043   8.246 -0.0253 -0.3720  0.0981
  921YOPE   NH313533  15.965   9.311   5.985 -0.1925 -0.0029 -0.1396
  921YOPE   PO413534  15.997   9.725   6.048  0.3365 -0.1266  0.1648
  921YOPE   GL113535  15.857   9.937   6.364 -0.2219 -0.4631 -0.0728
  921YOPE   GL213536  15.669   9.639   6.471 -0.2451  0.1523  0.1849
  921YOPE   C1A13537  15.938  10.184   6.593 -0.0160  0.0051 -0.1342
  921YOPE   D2A13538  15.976  10.142   7.080  0.3326 -0.1221 -0.1813
  921YOPE   C3A13539  16.172   9.861   7.374  0.3120 -0.4224 -0.0151
  921YOPE   C4A13540  16.096   9.901   7.788  0.1848  0.0786 -0.3161
  921YOPE   C1B13541  15.917   9.683   6.811 -0.1200  0.1974 -0.0002
  921YOPE   C2B13542  16.146   9.485   7.083 -0.1456 -0.0168  0.4347
  921YOPE   D3B13543  15.978   9.435   7.550 -0.0786  0.3350  0.1524
  921YOPE   C4B13544  15.876   9.375   7.981 -0.1231  0.0342 -0.1856
  922YOPE   NH313545  10.962  18.316   5.960  0.0978  0.1971  0.0337
  922YOPE   PO413546  11.301  18.306   5.817  0.0883 -0.0041  0.0371
  922YOPE   GL113547  11.388  18.326   6.272  0.0311  0.1670 -0.1314
  922YOPE   GL213548  11.171  18.662   6.431 -0.1595 -0.0634 -0.2408
  922YOPE   C1A13549  11.334  18.142   6.683  0.0535  0.2531 -0.0400
  922YOPE   D2A13550  11.366  18.256   7.023  0.2606 -0.4684 -0.0742
  922YOPE   C3A13551  11.414  18.188   7.530  0.0099  0.0626  0.0402
  922YOPE   C4A13552  11.452  18.006   7.914 -0.3779  0.0151  0.0121
  922YOPE   C1B13553  11.033  18.646   6.756 -0.0508  0.3719  0.2992
  922YOPE   C2B13554  10.809  18.604   7.165 -0.1872  0.0559 -0.1449
  922YOPE   D3B13555  10.955  18.389   7.473 -0.0043 -0.1257 -0.0491
  922YOPE   C4B13556  10.939  18.242   7.923 -0.1094  0.0704  0.0946
  923YOPE   NH313557   3.359  17.797   6.157 -0.1157  0.0618  0.1436
  923YOPE   PO413558   3.012  17.981   6.269  0.0483 -0.2218 -0.0846
  923YOPE   GL113559   3.000  17.938   6.691 -0.2596 -0.2790  0.2411
  923YOPE   GL213560   2.641  18.095   6.846  0.1849  0.1664 -0.2432
  923YOPE   C1A13561   3.317  17.871   6.982 -0.0962 -0.2978  0.0531
  923YOPE   D2A13562   3.495  17.776   7.425 -0.1593 -0.2484 -0.0603
  923YOPE   C3A13563   3.457  18.093   7.740 -0.0354 -0.0610 -0.0073
  923YOPE   C4A13564   3.349  18.484   7.928  0.1590  0.0366 -0.1134
  923YOPE   C1B13565   2.966  18.240   7.056  0.3055  0.2469 -0.3832
  923YOPE   C2B13566   2.993  18.414   7.411  0.0602  0.0580  0.2561
  923YOPE   D3B13567   2.890  18.770   7.777  0.0035  0.1614 -0.1512
  923YOPE   C4B13568   2.901  19.064   8.106 -0.0648 -0.1306 -0.2845
  924YOPE   NH313569   9.573  17.183   5.992 -0.2188 -0.2819 -0.1357
  924YOPE   PO413570   9.622  16.766   5.947  0.1882 -0.0682 -0.1736
  924YOPE   GL113571   9.601  16.917   6.406  0.3458  0.1193 -0.0375
  924YOPE   GL213572   9.328  17.059   6.443 -0.0445  0.1098 -0.0270
  924YOPE   C1A13573   9.663  16.898   6.889  0.2830 -0.1368 -0.0307
  924YOPE   D2A13574   9.394  17.148   7.166 -0.2235  0.0525  0.3803
  924YOPE   C3A13575   9.594  17.158   7.536 -0.1291 -0.1218  0.1811
  924YOPE   C4A13576   9.898  16.996   7.872  0.1084  0.1561 -0.4586
  924YOPE   C1B13577   9.093  16.798   6.670  0.1316  0.2914  0.1514
  924YOPE   C2B13578   8.977  16.622   7.016 -0.1747  0.0144 -0.0168
  924YOPE   D3B13579   8.766  16.313   7.155  0.1587 -0.1201  0.0272
  924YOPE   C4B13580   8.528  16.107   7.482 -0.1247 -0.1298 -0.1493
  925YOPE   NH313581   1.926   4.257   6.054  0.0167 -0.3724  0.1223
  925YOPE   PO413582   2.257   4.586   5.912  0.0282 -0.1275 -0.1422
  925YOPE   GL113583   2.208   4.586   6.399 -0.1397 -0.1422  0.0718
  925YOPE   GL213584   2.172   4.314   6.456 -0.0096 -0.0693 -0.0076
  925YOPE   C1A13585   2.633   4.641   6.616  0.1732  0.1036  0.1021
  925YOPE   D2A13586   2.840   4.583   7.004  0.0247 -0.1708 -0.0936
  925YOPE   C3A13587   2.682   4.554   7.381  0.0261 -0.0106 -0.1182
  925YOPE   C4A13588   2.695   4.473   7.804 -0.1850  0.1157  0.5577
  925YOPE   C1B13589   2.204   4.578   6.854 -0.2046 -0.0834  0.0436
  925YOPE   C2B13590   2.223   4.502   7.244 -0.1548  0.1085  0.1069
  925YOPE   D3B13591   2.201   4.461   7.679  0.0586  0.1432  0.0907
  925YOPE   C4B13592   2.118   4.530   8.035  0.1091  0.0343  0.2073
  926YOPE   NH313593  13.674  14.215   6.216  0.1168  0.1193 -0.0856
  926YOPE   PO413594  13.914  13.838   6.031 -0.2006  0.1374 -0.1361
  926YOPE   GL113595  13.753  13.747   6.471  0.0122 -0.0767 -0.3358
  926YOPE   GL213596  13.634  14.037   6.650  0.1544 -0.1070 -0.0859
  926YOPE   C1A13597  13.940  13.663   6.925 -0.0415  0.1707 -0.1270
  926YOPE   D2A13598  13.979  13.399   7.276 -0.2118 -0.0725  0.0494
  926YOPE   C3A13599  14.289  13.396   7.600 -0.0253  0.3789  0.0194
  926YOPE   C4A13600  14.629  13.211   7.775  0.1440  0.0200  0.0949
  926YOPE   C1B13601  13.245  14.168   6.969 -0.2218  0.0467  0.1113
  926YOPE   C2B13602  13.134  14.095   7.367  0.0158  0.0629  0.0651
  926YOPE   D3B13603  13.174  14.145   7.736 -0.0347 -0.1042 -0.4170
  926YOPE   C4B13604  13.320  14.485   8.010  0.0712  0.4876 -0.0111
  927YOPE   NH313605   5.935   8.072   5.830  0.4442  0.1730 -0.1980
  927YOPE   PO413606   5.742   8.405   5.638 -0.0179  0.1188  0.1591
  927YOPE   GL113607   5.744   8.613   6.037 -0.0599 -0.1878  0.0533
  927YOPE   GL213608   6.041   8.537   6.228  0.1331 -0.1517 -0.6036
  927YOPE   C1A13609   5.687   8.770   6.483  0.2109  0.3141 -0.1310
  927YOPE   D2A13610   5.494   8.655   6.816 -0.0438  0.2733 -0.4001
  927YOPE   C3A13611   5.262   8.916   7.098  0.0244  0.1374  0.0626
  927YOPE   C4A13612   5.489   9.127   7.422  0.2018 -0.3128 -0.3891
  927YOPE   C1B13613   6.092   8.491   6.685  0.2174  0.0666  0.0019
  927YOPE   C2B13614   6.156   8.324   7.108 -0.3525 -0.3553 -0.0868
  927YOPE   D3B13615   6.186   8.604   7.517  0.1344  0.0966  0.1003
  927YOPE   C4B13616   6.354   8.763   7.855 -0.1722 -0.0368 -0.2070
  928YOPE   NH313617  17.883  13.992   5.929  0.1352  0.1756  0.3783
  928YOPE   PO413618  17.812  13.517   5.956 -0.0649 -0.1862  0.0467
  928YOPE   GL113619  17.927  13.343   6.296  0.2546 -0.0110  0.0596
  928YOPE   GL213620  18.118  13.181   6.488  0.0098  0.2566  0.1925
  928YOPE   C1A13621  17.841  13.507   6.783 -0.1717  0.0044  0.1101
  928YOPE   D2A13622  17.911  13.475   7.179  0.0655  0.1620 -0.3278
  928YOPE   C3A13623  17.614  13.360   7.563 -0.1934 -0.0345 -0.0553
  928YOPE   C4A13624  17.252  13.148   7.684  0.2032 -0.1614  0.1967
  928YOPE   C1B13625  18.163  13.070   6.924  0.1302 -0.2089 -0.0763
  928YOPE   C2B13626  18.190  13.154   7.447 -0.2301 -0.3168  0.1691
  928YOPE   D3B13627  18.094  13.609   7.799  0.0125  0.1201 -0.2337
  928YOPE   C4B13628  17.816  13.850   8.070  0.1178  0.3510  0.1021
  929YOPE   NH313629   9.717   6.413   5.854 -0.1494 -0.0285 -0.0330
  929YOPE   PO413630   9.506   6.062   5.746 -0.2116 -0.1239 -0.2705
  929YOPE   GL113631   9.412   5.777   5.987  0.1769 -0.2941  0.0929
  929YOPE   GL213632   9.548   5.559   6.151  0.0671 -0.1129 -0.2362
  929YOPE   C1A13633   9.246   5.868   6.372 -0.4165  0.0242  0.1405
  929YOPE   D2A13634   9.026   6.093   6.702  0.0650  0.0436 -0.2869
  929YOPE   C3A13635   9.113   6.139   7.208 -0.1242 -0.1624 -0.1036
  929YOPE   C4A13636   9.308   6.482   7.574  0.0217  0.1445 -0.1179
  929YOPE   C1B13637   9.564   5.522   6.604 -0.0637  0.3653  0.2700
  929YOPE   C2B13638   9.428   5.746   6.952  0.1091  0.0646 -0.0959
  929YOPE   D3B13639   9.352   5.603   7.383 -0.0575 -0.2083  0.0375
  929YOPE   C4B13640   9.049   5.779   7.616 -0.1323 -0.0350 -0.1153
  930YOPE   NH313641   3.163   6.753   5.869  0.2286 -0.1811  0.4391
  930YOPE   PO413642   2.925   7.001   6.125  0.4925 -0.2509  0.2022
  930YOPE   GL113643   2.739   6.903   6.528  0.3975  0.0730 -0.1611
  930YOPE   GL213644   2.560   6.593   6.571  0.1770  0.0489 -0.0765
  930YOPE   C1A13645   2.517   7.073   6.822  0.1965 -0.1893 -0.0690
  930YOPE   D2A13646   2.510   7.083   7.292 -0.1602  0.1260  0.0447
  930YOPE   C3A13647   2.663   6.960   7.700  0.3557 -0.0283  0.0153
  930YOPE   C4A13648   2.735   6.479   7.769 -0.4033 -0.1875 -0.0680
  930YOPE   C1B13649   2.781   6.547   6.913 -0.1322  0.2319 -0.0417
  930YOPE   C2B13650   2.936   6.675   7.283  0.1438  0.0817 -0.1618
  930YOPE   D3B13651   3.179   6.745   7.663 -0.2340  0.1126 -0.0392
  930YOPE   C4B13652   3.017   6.758   8.145 -0.0376 -0.1064  0.0575
  931YOPE   NH313653   4.915  13.164   5.798 -0.1794 -0.2419 -0.2285
  931YOPE   PO413654   4.870  13.672   5.749 -0.1746 -0.2616 -0.2910
  931YOPE   GL113655   4.822  13.637   6.129  0.3511 -0.1324  0.0579
  931YOPE   GL213656   4.967  13.785   6.368  0.1013 -0.4520 -0.1836
  931YOPE   C1A13657   4.710  13.350   6.505 -0.0636 -0.1500  0.1286
  931YOPE   D2A13658   4.648  12.962   6.685  0.1180 -0.1585  0.0057
  931YOPE   C3A13659   4.580  13.150   7.076  0.3248 -0.1267 -0.0845
  931YOPE   C4A13660   4.489  13.425   7.434 -0.0926  0.0745  0.3270
  931YOPE   C1B13661   4.990  13.697   6.788  0.0379  0.0383 -0.0742
  931YOPE   C2B13662   4.859  13.580   7.179  0.4308  0.0338 -0.0605
  931YOPE   D3B13663   4.608  13.914   7.397 -0.1630 -0.1513 -0.0887
  931YOPE   C4B13664   4.441  14.167   7.770 -0.0162  0.2243  0.0691
  932POPC   NC313665   4.545  15.673   5.919  0.0693  0.3136 -0.0422
  932POPC   PO413666   5.028  15.895   5.990  0.2936 -0.1630 -0.4134
  932POPC   GL113667   4.864  15.570   6.345  0.2408 -0.1734  0.1315
  932POPC   GL213668   4.439  15.456   6.361 -0.1564 -0.0469  0.0352
  932POPC   C1A13669   4.694  15.581   6.812  0.1106  0.2500  0.1398
  932POPC   D2A13670   4.678  15.580   7.238 -0.0156  0.0983  0.0680
  932POPC   C3A13671   4.949  15.610   7.609 -0.1550 -0.0288  0.0972
  932POPC   C4A13672   5.116  15.399   7.930 -0.3382 -0.1222  0.0825
  932POPC   C1B13673   4.228  15.704   6.646  0.1308  0.2276 -0.1042
  932POPC   C2B13674   4.460  16.045   6.994 -0.0198  0.0126  0.2135
  932POPC   C3B13675   4.465  16.409   7.308  0.0386 -0.3434  0.2100
  932POPC   C4B13676   4.513  16.614   7.702  0.3212 -0.2803  0.0306
  933POPC   NC313677  17.534  15.619   5.519 -0.2108 -0.3558 -0.1313
  933POPC   PO413678  17.717  15.269   5.495 -0.0619  0.0516  0.1500
  933POPC   GL113679  17.980  15.498   5.792  0.0054 -0.1479  0.1335
  933POPC   GL213680  18.144  15.394   5.997 -0.1695  0.2483 -0.1120
  933POPC   C1A13681  17.938  15.820   6.197 -0.1182 -0.0298 -0.1988
  933POPC   D2A13682  17.598  16.071   6.411  0.2393 -0.2755 -0.3926
  933POPC   C3A13683  17.590  16.484   6.445  0.0282 -0.2066  0.0247
  933POPC   C4A13684  17.561  16.750   6.674 -0.1165  0.0778 -0.0029
  933POPC   C1B13685  18.100  15.381   6.444 -0.1704  0.2097 -0.2240
  933POPC   C2B13686  18.200  15.326   6.785 -0.0831 -0.0517 -0.0466
  933POPC   C3B13687  18.144  15.258   7.190  0.0800 -0.0027 -0.0603
  933POPC   C4B13688  18.189  15.487   7.522  0.2296 -0.0605  0.0101
  934POPC   NC313689  16.621  10.729   5.814 -0.0603 -0.0897 -0.5935
  934POPC   PO413690  16.870  11.169   5.790 -0.1510  0.2424 -0.2841
  934POPC   GL113691  16.937  11.334   6.204 -0.0097 -0.0361 -0.0762
  934POPC   GL213692  17.144  11.165   6.362 -0.1430  0.1193 -0.1513
  934POPC   C1A13693  16.720  11.530   6.706 -0.0973 -0.0513  0.0306
  934POPC   D2A13694  16.313  11.527   6.830 -0.0996 -0.2181 -0.2119
  934POPC   C3A13695  15.924  11.467   6.751  0.0066  0.2008  0.0072
  934POPC   C4A13696  15.527  11.576   6.819 -0.1842  0.0299 -0.2766
  934POPC   C1B13697  17.209  10.853   6.732 -0.1826  0.0496 -0.0607
  934POPC   C2B13698  17.269  10.749   7.181  0.0989  0.1550 -0.1300
  934POPC   C3B13699  17.556  10.412   7.364 -0.1899  0.0346  0.0320
  934POPC   C4B13700  17.579  10.023   7.660  0.1774  0.0519 -0.1207
  935POPC   NC313701  14.408  10.910   5.884  0.3282  0.0522 -0.0695
  935POPC   PO413702  14.338  11.326   5.933 -0.0744  0.2550  0.2437
  935POPC   GL113703  14.338  11.353   6.256 -0.1563 -0.1818  0.2978
  935POPC   GL213704  14.341  11.023   6.379  0.0247  0.0948 -0.0220
  935POPC   C1A13705  14.736  11.333   6.627 -0.0623  0.2226  0.1694
  935POPC   D2A13706  14.829  10.954   6.633  0.0530 -0.0390 -0.1000
  935POPC   C3A13707  14.762  10.642   6.937  0.0885  0.1311 -0.0477
  935POPC   C4A13708  14.505  10.587   7.346 -0.2392 -0.0845 -0.1554
  935POPC   C1B13709  14.357  10.993   6.824 -0.0165  0.0292 -0.0237
  935POPC   C2B13710  14.521  11.082   7.208  0.0067  0.1715  0.0444
  935POPC   C3B13711  14.858  11.242   7.276 -0.1103 -0.4119 -0.1481
  935POPC   C4B13712  15.227  11.466   7.361 -0.2984 -0.3150  0.0029
  936POPC   NC313713   0.336   7.721   6.002  0.0956  0.0136 -0.1412
  936POPC   PO413714   0.011   7.409   5.776  0.0459 -0.2352  0.3581
  936POPC   GL113715   0.070   7.311   6.074 -0.1242  0.1677  0.1433
  936POPC   GL213716   0.354   7.215   6.276  0.0300 -0.0614  0.1155
  936POPC   C1A13717  -0.011   6.940   6.243 -0.0599  0.1432 -0.1544
  936POPC   D2A13718  -0.337   6.856   6.263 -0.0666  0.1454  0.1047
  936POPC   C3A13719  -0.586   7.029   6.580 -0.1800  0.2961  0.1475
  936POPC   C4A13720  -0.707   7.429   6.822 -0.0657  0.0153  0.2708
  936POPC   C1B13721   0.434   7.230   6.695  0.2878  0.1880 -0.0240
  936POPC   C2B13722   0.473   7.104   7.115  0.2140 -0.0477 -0.0814
  936POPC   C3B13723   0.862   7.058   7.388  0.1085  0.2364 -0.4076
  936POPC   C4B13724   1.225   6.820   7.193 -0.0908  0.0895  0.1341
  937POPC   NC313725   8.661   1.356   4.944  0.0116  0.0128 -0.0958
  937POPC   PO413726   8.339   1.587   5.345  0.3780  0.0956  0.3235
  937POPC   GL113727   8.411   1.451   5.780  0.2981  0.1759  0.1618
  937POPC   GL213728   8.369   1.090   5.844  0.0129 -0.0219 -0.0193
  937POPC   C1A13729   8.754   1.302   6.103  0.0153 -0.0807 -0.3309
  937POPC   D2A13730   8.614   1.299   6.510 -0.1440  0.2128  0.1285
  937POPC   C3A13731   8.331   1.619   6.658 -0.4142  0.0719  0.2682
  937POPC   C4A13732   8.032   1.932   6.647  0.1667  0.1825 -0.1344
  937POPC   C1B13733   8.158   1.190   6.266  0.2264 -0.1706 -0.3246
  937POPC   C2B13734   8.207   0.922   6.726  0.2755 -0.0816 -0.2013
  937POPC   C3B13735   8.393   1.045   7.151  0.0663  0.4126  0.3024
  937POPC   C4B13736   8.708   0.825   7.329  0.3512  0.4195 -0.1553
  938POPC   NC313737  17.727   1.437   6.184 -0.0147  0.0501  0.0931
  938POPC   PO413738  17.354   1.138   6.094 -0.1561 -0.0192  0.1625
  938POPC   GL113739  17.320   1.198   6.518  0.1720 -0.0391 -0.0772
  938POPC   GL213740  17.586   1.228   6.585  0.0744  0.0697 -0.0420
  938POPC   C1A13741  17.213   0.984   6.898 -0.0698  0.3322  0.0932
  938POPC   D2A13742  17.282   0.785   7.169  0.2004 -0.0545  0.0257
  938POPC   C3A13743  17.189   0.886   7.531  0.3373 -0.1467 -0.1441
  938POPC   C4A13744  17.036   1.233   7.522 -0.0001 -0.2122  0.2955
  938POPC   C1B13745  17.771   1.004   7.000 -0.0331  0.0342  0.1577
  938POPC   C2B13746  17.766   0.719   7.380  0.2375  0.1266  0.2989
  938POPC   C3B13747  17.727   0.552   7.769 -0.0453  0.1560 -0.1246
  938POPC   C4B13748  17.649   0.158   8.063  0.0884 -0.0463 -0.1946
  939POPC   NC313749  13.750   1.804   6.010  0.0448  0.2443 -0.0104
  939POPC   PO413750  13.912   2.227   6.126  0.2002 -0.3774  0.2524
  939POPC   GL113751  13.945   2.335   6.577 -0.0566 -0.0130 -0.0015
  939POPC   GL213752  14.232   2.486   6.674  0.2827  0.0170  0.3331
  939POPC   C1A13753  13.816   2.246   6.989 -0.0992 -0.4226 -0.1447
  939POPC   D2A13754  13.824   2.334   7.392  0.0982  0.1711 -0.2297
  939POPC   C3A13755  13.833   2.204   7.748  0.1393 -0.3780 -0.1369
  939POPC   C4A13756  14.061   2.248   8.075 -0.2142 -0.0323 -0.2623
  939POPC   C1B13757  14.315   2.342   7.211  0.2345  0.0319 -0.1033
  939POPC   C2B13758  14.242   2.468   7.638  0.0723  0.1454  0.1190
  939POPC   C3B13759  14.571   2.332   7.894  0.0964 -0.2460 -0.1938
  939POPC   C4B13760  14.479   2.443   8.363 -0.1758 -0.0318  0.1873
  940POPC   NC313761   1.635  15.721   5.787 -0.1349 -0.2522  0.0707
  940POPC   PO413762   1.459  15.972   6.070  0.1128  0.0919  0.0734
  940POPC   GL113763   1.301  16.092   6.490  0.0917  0.2102  0.2275
  940POPC   GL213764   1.073  16.158   6.331 -0.4534  0.4444 -0.0149
  940POPC   C1A13765   1.152  16.102   6.858 -0.1588  0.0710  0.2686
  940POPC   D2A13766   1.078  16.077   7.322 -0.0129  0.1720  0.1704
  940POPC   C3A13767   1.136  15.937   7.752  0.0693  0.1503  0.0381
  940POPC   C4A13768   1.027  16.016   8.119 -0.0656 -0.1414 -0.0945
  940POPC   C1B13769   0.780  16.346   6.532 -0.0949 -0.2982 -0.1307
  940POPC   C2B13770   0.559  16.331   6.887 -0.3205 -0.3364  0.2274
  940POPC   C3B13771   0.517  16.185   7.223 -0.0428 -0.1105 -0.1752
  940POPC   C4B13772   0.655  16.322   7.641 -0.1412 -0.0669 -0.0785
  941POPC   NC313773   0.599  18.206   5.980  0.0238  0.1155  0.1145
  941POPC   PO413774   0.162  18.349   6.097 -0.0187 -0.3550 -0.2772
  941POPC   GL113775   0.186  18.434   6.489 -0.0143 -0.1238 -0.2330
  941POPC   GL213776  -0.156  18.586   6.540  0.0209 -0.0185  0.0355
  941POPC   C1A13777   0.230  18.364   6.839 -0.0446  0.3750 -0.1177
  941POPC   D2A13778   0.408  18.184   7.194  0.0169  0.1198 -0.2447
  941POPC   C3A13779   0.392  18.306   7.548 -0.0269  0.2131 -0.0479
  941POPC   C4A13780   0.472  18.207   7.956 -0.0508  0.0398  0.0299
  941POPC   C1B13781  -0.244  18.390   6.894 -0.2884 -0.4161 -0.0237
  941POPC   C2B13782  -0.499  18.225   7.080  0.1455 -0.0542  0.1900
  941POPC   C3B13783  -0.629  18.033   7.515 -0.0182 -0.0659 -0.2751
  941POPC   C4B13784  -0.724  17.645   7.674 -0.2367 -0.2587  0.0531
  942POPC   NC313785  15.751  13.776   5.741 -0.0168 -0.0039  0.1342
  942POPC   PO413786  15.465  14.111   5.732  0.0863  0.0243  0.0638
  942POPC   GL113787  15.581  13.977   6.191  0.0414  0.3617  0.0144
  942POPC   GL213788  15.568  13.673   6.194 -0.0654  0.0508  0.0656
  942POPC   C1A13789  15.657  13.933   6.703  0.3882 -0.1707 -0.0821
  942POPC   D2A13790  15.768  13.936   7.124 -0.0869 -0.0388  0.3026
  942POPC   C3A13791  15.936  13.749   7.626 -0.1157  0.0468  0.2235
  942POPC   C4A13792  15.820  13.998   7.961  0.2501 -0.0511 -0.0958
  942POPC   C1B13793  15.907  13.521   6.561 -0.0216 -0.0038  0.0124
  942POPC   C2B13794  15.831  13.367   7.003  0.0117  0.1659 -0.1671
  942POPC   C3B13795  15.776  13.272   7.420  0.1536 -0.0832  0.3595
  942POPC   C4B13796  15.418  13.088   7.540 -0.0293 -0.0465  0.1249
  943POPC   NC313797   6.759   1.010   5.981 -0.0653  0.0665 -0.1587
  943POPC   PO413798   6.773   1.502   5.972 -0.3539  0.0829 -0.5033
  943POPC   GL113799   6.738   1.378   6.360  0.1386 -0.2152 -0.1172
  943POPC   GL213800   7.039   1.344   6.460 -0.0640 -0.0193 -0.1074
  943POPC   C1A13801   6.690   1.546   6.744  0.1009 -0.1757 -0.1097
  943POPC   D2A13802   6.779   1.571   7.171 -0.1074 -0.1744 -0.2161
  943POPC   C3A13803   7.186   1.488   7.319 -0.0594  0.0361  0.0164
  943POPC   C4A13804   7.383   1.036   7.282 -0.2269 -0.1563 -0.2358
  943POPC   C1B13805   7.282   1.409   6.852 -0.3243  0.0525 -0.2905
  943POPC   C2B13806   7.576   1.639   7.044  0.3230  0.0989 -0.0723
  943POPC   C3B13807   7.665   2.012   7.176 -0.2379  0.0781 -0.1514
  943POPC   C4B13808   7.954   2.278   7.470 -0.1918 -0.0361 -0.0418
  944POPC   NC313809  15.821   4.955   5.668  0.2199  0.3076 -0.1554
  944POPC   PO413810  16.134   5.251   5.883 -0.1130 -0.2695 -0.2829
  944POPC   GL113811  16.328   5.143   6.245 -0.1639 -0.1004  0.0671
  944POPC   GL213812  16.590   5.409   6.201 -0.0061  0.0584 -0.0542
  944POPC   C1A13813  16.532   4.954   6.643 -0.0232 -0.0372  0.0918
  944POPC   D2A13814  16.629   4.758   7.054 -0.0154 -0.0144 -0.0677
  944POPC   C3A13815  16.672   4.917   7.497 -0.0141 -0.0455 -0.1168
  944POPC   C4A13816  16.539   4.927   7.895 -0.3232  0.3085  0.0815
  944POPC   C1B13817  16.686   5.449   6.635  0.0646 -0.0263  0.0855
  944POPC   C2B13818  16.830   5.246   7.061  0.0996  0.0712 -0.1722
  944POPC   C3B13819  16.932   5.350   7.483  0.1867 -0.0086  0.1436
  944POPC   C4B13820  17.164   5.029   7.769  0.0890 -0.0275  0.0778
  945POPC   NC313821   8.549  16.523   5.853  0.2501  0.1124 -0.2319
  945POPC   PO413822   9.006  16.421   5.847  0.1335  0.0774  0.0117
  945POPC   GL113823   8.697  16.159   6.198  0.1648 -0.0198 -0.0011
  945POPC   GL213824   8.877  15.947   6.269  0.0275  0.0593  0.3528
  945POPC   C1A13825   8.374  15.867   6.355  0.0046 -0.1820 -0.2195
  945POPC   D2A13826   8.187  15.810   6.719  0.0818 -0.3004 -0.0206
  945POPC   C3A13827   8.159  16.013   7.189 -0.0922 -0.0473 -0.0287
  945POPC   C4A13828   8.108  15.765   7.596  0.3061 -0.0296 -0.3836
  945POPC   C1B13829   8.911  15.642   6.648  0.4788 -0.3453 -0.0666
  945POPC   C2B13830   8.957  15.485   7.112  0.1317 -0.3884  0.0365
  945POPC   C3B13831   9.123  15.246   7.480  0.0185 -0.1048 -0.1133
  945POPC   C4B13832   8.976  15.208   7.935  0.0353  0.1532  0.0067
  946POPC   NC313833  16.485   3.801   6.127 -0.1202  0.1058 -0.0739
  946POPC   PO413834  16.776   4.095   6.078 -0.0633  0.1928  0.1001
  946POPC   GL113835  16.678   4.150   6.456  0.0418 -0.0612 -0.2270
  946POPC   GL213836  16.592   3.879   6.660 -0.1889  0.1078  0.0548
  946POPC   C1A13837  16.392   4.279   6.864 -0.0655 -0.0693 -0.0250
  946POPC   D2A13838  16.237   4.417   7.198  0.1900 -0.2887  0.1148
  946POPC   C3A13839  16.217   4.761   7.395  0.3725  0.0366 -0.1973
  946POPC   C4A13840  16.043   5.010   7.744  0.0013  0.0286 -0.2291
  946POPC   C1B13841  16.345   3.735   6.996 -0.0458 -0.1566 -0.1825
  946POPC   C2B13842  16.460   3.880   7.392  0.0130  0.0175  0.0059
  946POPC   C3B13843  16.773   3.586   7.724 -0.2058 -0.0819 -0.1161
  946POPC   C4B13844  17.032   3.441   8.067 -0.0736  0.4040  0.3421
  947POPC   NC313845   7.075   8.575   5.474  0.1087  0.1413  0.4360
  947POPC   PO413846   7.405   8.900   5.605 -0.0239 -0.1914  0.1786
  947POPC   GL113847   7.498   9.163   5.951 -0.1760 -0.2040 -0.2102
  947POPC   GL213848   7.496   8.902   6.205  0.2767 -0.1085  0.2044
  947POPC   C1A13849   7.441   9.311   6.433 -0.2611 -0.1207 -0.1168
  947POPC   D2A13850   7.383   9.422   6.803  0.0766  0.0275 -0.0320
  947POPC   C3A13851   7.389   9.282   7.152  0.1847 -0.0099  0.0124
  947POPC   C4A13852   7.207   9.261   7.538 -0.0900 -0.0665  0.1589
  947POPC   C1B13853   7.497   8.452   6.360  0.1006 -0.2283 -0.1298
  947POPC   C2B13854   7.433   8.048   6.625 -0.1302  0.0052 -0.1207
  947POPC   C3B13855   7.499   7.913   7.012  0.0985 -0.0079  0.0240
  947POPC   C4B13856   7.437   8.026   7.540 -0.0735 -0.0176  0.3151
  948POPC   NC313857   8.283   5.371   5.025 -0.1016  0.0287  0.0708
  948POPC   PO413858   8.575   5.362   5.360  0.3473 -0.1076 -0.0920
  948POPC   GL113859   8.606   5.275   5.807 -0.1621 -0.0095  0.2185
  948POPC   GL213860   8.776   5.054   5.877  0.1772 -0.1824 -0.0450
  948POPC   C1A13861   8.510   5.442   6.136 -0.1300 -0.0781 -0.1329
  948POPC   D2A13862   8.412   5.268   6.561 -0.0396 -0.2051  0.2254
  948POPC   C3A13863   8.596   5.071   6.898  0.0654 -0.0166 -0.2702
  948POPC   C4A13864   8.515   5.154   7.263  0.0161 -0.1215  0.0706
  948POPC   C1B13865   8.947   4.669   6.154  0.0619  0.0151  0.0663
  948POPC   C2B13866   9.163   4.517   6.503  0.1841  0.1460  0.2572
  948POPC   C3B13867   9.359   4.237   6.836 -0.0219 -0.2482 -0.1844
  948POPC   C4B13868   9.585   3.952   7.159  0.2785 -0.1775 -0.1127
  949POPC   NC313869  10.509  11.154   5.076 -0.2830  0.0353 -0.0061
  949POPC   PO413870  10.862  11.379   5.402  0.0376 -0.1023 -0.5148
  949POPC   GL113871  10.915  11.163   5.758  0.3047 -0.2238 -0.1251
  949POPC   GL213872  10.905  11.338   5.996 -0.0937 -0.1839 -0.0514
  949POPC   C1A13873  10.794  10.934   6.194  0.2091  0.0185 -0.5889
  949POPC   D2A13874  11.005  10.793   6.650  0.3226 -0.0225  0.0031
  949POPC   C3A13875  11.293  10.612   6.932 -0.0381 -0.3322  0.0240
  949POPC   C4A13876  11.500  10.325   7.178 -0.0757  0.0243  0.1018
  949POPC   C1B13877  10.868  11.745   6.314 -0.1942 -0.1215  0.0858
  949POPC   C2B13878  10.681  11.842   6.653 -0.0363  0.3196  0.2776
  949POPC   C3B13879  10.545  11.983   7.071  0.0182 -0.1064  0.0661
  949POPC   C4B13880  10.673  12.357   7.284 -0.0002 -0.3052  0.0031
  950POPC   NC313881  16.021   3.055   6.540 -0.0106  0.0414 -0.1808
  950POPC   PO413882  16.332   2.837   6.316  0.0029  0.1611  0.1920
  950POPC   GL113883  16.501   3.041   6.656  0.1006 -0.0348 -0.1925
  950POPC   GL213884  16.351   3.205   6.902  0.1337 -0.2383  0.0977
  950POPC   C1A13885  16.733   2.908   7.031 -0.1726  0.1372 -0.0804
  950POPC   D2A13886  16.616   2.671   7.400  0.4655 -0.1898 -0.1347
  950POPC   C3A13887  16.922   2.634   7.650 -0.1953 -0.1674 -0.2556
  950POPC   C4A13888  17.091   2.326   7.980  0.0058 -0.0187 -0.2905
  950POPC   C1B13889  16.234   2.988   7.286 -0.3308  0.0394 -0.1127
  950POPC   C2B13890  15.867   2.943   7.544  0.0085  0.1367 -0.2329
  950POPC   C3B13891  15.712   2.672   7.878 -0.0951 -0.0040 -0.2664
  950POPC   C4B13892  15.465   2.318   8.057  0.0826 -0.2075  0.1143
  951POPC   NC313893   2.646   7.944   5.742  0.1996 -0.2712 -0.0025
  951POPC   PO413894   2.391   8.285   5.780 -0.3759  0.1571  0.1018
  951POPC   GL113895   2.553   8.414   6.192 -0.0024 -0.2486  0.2171
  951POPC   GL213896   2.709   8.519   6.456 -0.1646  0.0265 -0.0120
  951POPC   C1A13897   2.391   8.170   6.632 -0.1330  0.3069 -0.1573
  951POPC   D2A13898   2.270   8.015   7.087 -0.0034 -0.0339  0.2438
  951POPC   C3A13899   2.491   7.969   7.397 -0.1999 -0.6248 -0.1777
  951POPC   C4A13900   2.772   8.208   7.525  0.0225  0.2837 -0.0324
  951POPC   C1B13901   2.443   8.855   6.631  0.4292 -0.2211  0.0054
  951POPC   C2B13902   2.225   8.933   6.914  0.1265 -0.1121  0.2385
  951POPC   C3B13903   2.408   8.961   7.366  0.1598  0.1851  0.0898
  951POPC   C4B13904   2.615   9.053   7.792 -0.1040  0.1354 -0.3944
  952POPC   NC313905  13.201   1.006   6.231  0.3399  0.0966  0.0271
  952POPC   PO413906  12.793   1.258   6.146  0.1800 -0.1574 -0.1020
  952POPC   GL113907  12.557   1.298   6.553  0.1314 -0.3439  0.0048
  952POPC   GL213908  12.311   1.477   6.563  0.0324  0.2007 -0.1425
  952POPC   C1A13909  12.765   1.323   6.934  0.4490  0.1035  0.0890
  952POPC   D2A13910  12.699   1.590   7.284  0.2128  0.0927  0.3302
  952POPC   C3A13911  12.886   1.981   7.357  0.4198 -0.0945  0.0641
  952POPC   C4A13912  12.986   2.410   7.434  0.2512  0.0557  0.1533
  952POPC   C1B13913  12.227   1.529   6.974  0.1319  0.3298 -0.3068
  952POPC   C2B13914  12.145   1.530   7.379 -0.1535  0.1967  0.3401
  952POPC   C3B13915  11.881   1.560   7.674  0.0620  0.3244  0.4989
  952POPC   C4B13916  11.761   1.759   8.064 -0.0597  0.0562  0.1948
  953POPC   NC313917  16.895   1.321   5.808 -0.0636 -0.1480 -0.0027
  953POPC   PO413918  16.912   1.473   6.247 -0.0644  0.0133 -0.3809
  953POPC   GL113919  16.798   1.292   6.680 -0.0129 -0.2471 -0.1662
  953POPC   GL213920  16.591   1.010   6.697  0.0800 -0.2019  0.0769
  953POPC   C1A13921  16.775   1.204   7.097 -0.0833  0.0688 -0.2212
  953POPC   D2A13922  16.747   0.878   7.299  0.2946 -0.0496  0.0034
  953POPC   C3A13923  16.690   0.901   7.745  0.0679  0.2956  0.1601
  953POPC   C4A13924  16.614   0.984   8.185 -0.0422 -0.0854 -0.1042
  953POPC   C1B13925  16.323   0.779   7.067 -0.0952 -0.0811  0.1489
  953POPC   C2B13926  16.179   0.537   7.330  0.2135 -0.2100  0.2538
  953POPC   C3B13927  16.240   0.464   7.777  0.1840  0.2884  0.1450
  953POPC   C4B13928  16.562   0.499   8.090 -0.1216 -0.0698  0.1661
  954POPC   NC313929   2.428   6.941   6.109  0.1146 -0.1009 -0.0284
  954POPC   PO413930   2.275   7.232   5.892 -0.0912 -0.1646  0.1086
  954POPC   GL113931   1.958   7.312   6.186  0.1782 -0.1645 -0.0415
  954POPC   GL213932   2.000   7.636   6.367  0.0328  0.0129 -0.1424
  954POPC   C1A13933   2.047   7.190   6.611 -0.1772  0.0230 -0.2862
  954POPC   D2A13934   2.059   7.231   7.035  0.0484  0.3477 -0.1023
  954POPC   C3A13935   2.308   7.552   7.169  0.1772  0.0267 -0.2904
  954POPC   C4A13936   2.627   7.528   7.520 -0.2423  0.0994  0.1378
  954POPC   C1B13937   2.022   7.681   6.785  0.0457 -0.3696  0.0544
  954POPC   C2B13938   1.731   7.817   7.143 -0.3116 -0.1993 -0.0943
  954POPC   C3B13939   1.601   7.576   7.495 -0.0204 -0.0392 -0.1237
  954POPC   C4B13940   1.611   7.552   7.937 -0.0551 -0.0727 -0.0304
  955POPC   NC313941   9.838   3.305   5.642 -0.2505 -0.0469  0.0157
  955POPC   PO413942  10.080   3.637   5.452 -0.4387  0.2575 -0.0670
  955POPC   GL113943  10.147   3.571   5.931  0.2058 -0.2073 -0.0388
  955POPC   GL213944  10.225   3.309   6.095  0.1329 -0.2141 -0.0263
  955POPC   C1A13945   9.953   3.600   6.347  0.0676 -0.0721 -0.0645
  955POPC   D2A13946   9.839   3.407   6.769  0.0546 -0.1175 -0.4543
  955POPC   C3A13947   9.680   3.453   7.118  0.0219 -0.0182  0.1816
  955POPC   C4A13948   9.829   3.552   7.515  0.0447 -0.1712 -0.2190
  955POPC   C1B13949  10.280   3.313   6.647  0.2192 -0.0502  0.1632
  955POPC   C2B13950  10.104   3.005   6.963  0.0818 -0.2758 -0.1204
  955POPC   C3B13951  10.285   2.829   7.418 -0.1210  0.1956  0.0880
  955POPC   C4B13952  10.147   2.771   7.848  0.2319 -0.2462  0.0123
  956POPC   NC313953   3.350   8.777   5.327  0.2349  0.0404 -0.2944
  956POPC   PO413954   3.287   8.601   5.677  0.5478  0.0874  0.0102
  956POPC   GL113955   3.550   8.461   6.087  0.1536  0.1532  0.0392
  956POPC   GL213956   3.527   8.089   6.124 -0.2157  0.2441  0.1553
  956POPC   C1A13957   3.501   8.712   6.563  0.0804  0.1222 -0.1809
  956POPC   D2A13958   3.240   8.578   6.864 -0.0695 -0.0349 -0.2614
  956POPC   C3A13959   3.348   8.692   7.286 -0.0509 -0.3512 -0.0077
  956POPC   C4A13960   3.475   8.945   7.534  0.4043  0.1717  0.3060
  956POPC   C1B13961   3.298   8.181   6.424  0.1049 -0.1014 -0.0249
  956POPC   C2B13962   3.293   8.062   6.844 -0.2169 -0.0188  0.0037
  956POPC   C3B13963   3.131   8.280   7.209  0.2712 -0.0752 -0.3382
  956POPC   C4B13964   3.180   8.413   7.713 -0.2350 -0.1807 -0.0084
  957POPC   NC313965   6.203   2.492   5.811  0.4326 -0.0853  0.1105
  957POPC   PO413966   6.530   2.328   5.871  0.1918 -0.0305  0.3154
  957POPC   GL113967   6.543   1.977   6.320 -0.3113 -0.2563  0.0798
  957POPC   GL213968   6.915   1.844   6.413  0.1231 -0.2101  0.0295
  957POPC   C1A13969   6.590   2.070   6.734 -0.2646 -0.3320  0.0355
  957POPC   D2A13970   6.704   2.098   7.056  0.1092 -0.1427 -0.2775
  957POPC   C3A13971   6.537   1.969   7.408 -0.2742  0.0957 -0.0920
  957POPC   C4A13972   6.701   2.006   7.860  0.3055  0.2220  0.0808
  957POPC   C1B13973   7.079   1.828   6.858 -0.1215 -0.0977  0.0924
  957POPC   C2B13974   7.152   1.990   7.248 -0.2849 -0.0976  0.1225
  957POPC   C3B13975   7.339   2.319   7.512  0.0915 -0.2434 -0.0458
  957POPC   C4B13976   7.581   2.376   7.789  0.0561  0.0442  0.0229
  958POPC   NC313977  18.270  15.347   5.412  0.2849  0.0997 -0.2366
  958POPC   PO413978  18.431  15.681   5.658  0.0775 -0.0555 -0.0208
  958POPC   GL113979  18.546  15.813   6.143 -0.1264  0.1863  0.1314
  958POPC   GL213980  18.690  15.570   6.133  0.0190  0.0068  0.1542
  958POPC   C1A13981  18.309  15.793   6.511 -0.1658 -0.2221 -0.2000
  958POPC   D2A13982  17.964  15.890   6.746 -0.2090  0.2679  0.2059
  958POPC   C3A13983  17.619  16.055   6.958 -0.3157 -0.0873 -0.0738
  958POPC   C4A13984  17.373  16.333   6.860 -0.2124  0.0356 -0.2142
  958POPC   C1B13985  18.669  15.475   6.579 -0.3382  0.0426  0.0110
  958POPC   C2B13986  18.719  15.482   7.036 -0.2522 -0.1356  0.0938
  958POPC   C3B13987  18.799  15.725   7.392  0.2263  0.0931 -0.1530
  958POPC   C4B13988  19.052  15.805   7.652 -0.1057 -0.0563 -0.1585
  959POPC   NC313989   9.671   1.511   5.153  0.0131  0.2032  0.0856
  959POPC   PO413990   9.355   1.673   5.411  0.1866 -0.0182 -0.2320
  959POPC   GL113991   9.276   1.655   5.899  0.0805 -0.2527 -0.0882
  959POPC   GL213992   8.947   1.765   5.916 -0.1384  0.0345  0.0937
  959POPC   C1A13993   9.448   1.824   6.310 -0.2486  0.0769 -0.0431
  959POPC   D2A13994   9.358   1.982   6.664  0.0378 -0.0001 -0.0761
  959POPC   C3A13995   9.328   1.819   7.052  0.1548 -0.1388 -0.1564
  959POPC   C4A13996   9.403   1.732   7.497  0.2537 -0.1273 -0.1789
  959POPC   C1B13997   8.977   1.631   6.343 -0.0995  0.1935  0.1018
  959POPC   C2B13998   8.886   1.679   6.813  0.1739  0.1710  0.2421
  959POPC   C3B13999   8.758   1.672   7.261  0.2346 -0.0357 -0.0641
  959POPC   C4B14000   8.325   1.939   7.499  0.2383 -0.2574  0.0924
  960POPC   NC314001   4.612  14.774   5.712 -0.3666  0.1234 -0.0040
  960POPC   PO414002   4.363  14.490   5.960 -0.3947  0.5712 -0.2641
  960POPC   GL114003   4.128  14.486   6.267  0.0186  0.4234  0.0210
  960POPC   GL214004   4.424  14.638   6.430 -0.0180 -0.1121  0.1651
  960POPC   C1A14005   3.986  14.577   6.626  0.0471 -0.0496  0.2652
  960POPC   D2A14006   3.907  14.578   7.076  0.0209 -0.0544 -0.0437
  960POPC   C3A14007   4.245  14.880   7.300  0.0294  0.2822  0.0268
  960POPC   C4A14008   4.513  15.140   7.334  0.3117  0.2434  0.0757
  960POPC   C1B14009   4.353  14.833   6.806  0.0788  0.0357  0.0688
  960POPC   C2B14010   4.288  15.313   6.948 -0.2077 -0.0443 -0.1915
  960POPC   C3B14011   4.139  15.579   7.198  0.1299  0.0851  0.1745
  960POPC   C4B14012   4.059  15.956   7.310 -0.2494  0.0024  0.0566
  961POPC   NC314013   7.154   2.661   5.194 -0.0031  0.2713 -0.2230
  961POPC   PO414014   7.128   3.021   5.530 -0.2593  0.4030 -0.0615
  961POPC   GL114015   7.202   3.118   5.991  0.0148 -0.1288 -0.1266
  961POPC   GL214016   6.977   3.388   6.155 -0.2969  0.0015 -0.2700
  961POPC   C1A14017   7.193   2.872   6.413  0.1055  0.0763  0.0262
  961POPC   D2A14018   7.497   2.736   6.670 -0.1320  0.1730  0.0423
  961POPC   C3A14019   7.630   2.288   6.655 -0.2662 -0.1070  0.2089
  961POPC   C4A14020   7.545   1.851   6.585  0.5317 -0.1784 -0.1414
  961POPC   C1B14021   7.042   3.540   6.568 -0.3065 -0.2488  0.1482
  961POPC   C2B14022   6.938   3.531   6.980  0.1248 -0.0477  0.1842
  961POPC   C3B14023   6.770   3.446   7.424  0.3562  0.0285 -0.0307
  961POPC   C4B14024   6.719   3.328   7.906 -0.4438 -0.1036  0.3821
  962POPC   NC314025  14.057  16.914   5.990  0.0016  0.3385 -0.4000
  962POPC   PO414026  14.324  16.604   6.274  0.0971  0.2466 -0.1219
  962POPC   GL114027  14.145  16.982   6.488 -0.2169  0.2041  0.0082
  962POPC   GL214028  14.314  17.258   6.408  0.1484 -0.2120  0.0332
  962POPC   C1A14029  13.927  17.007   6.765  0.2106 -0.2770  0.1222
  962POPC   D2A14030  13.749  16.837   7.166 -0.2592  0.1306  0.2233
  962POPC   C3A14031  13.692  16.993   7.525 -0.1235  0.0037  0.1718
  962POPC   C4A14032  13.949  16.891   7.886  0.1231  0.0177 -0.1892
  962POPC   C1B14033  14.061  17.463   6.785  0.0348 -0.0454  0.3719
  962POPC   C2B14034  13.849  17.354   7.179  0.0701 -0.2784  0.2026
  962POPC   C3B14035  13.666  17.652   7.392  0.3786 -0.1495 -0.1411
  962POPC   C4B14036  13.829  17.776   7.863  0.0190  0.0560  0.1320
  963POPC   NC314037  13.625   8.580   5.838 -0.1923 -0.0165 -0.2829
  963POPC   PO414038  13.736   8.219   6.044 -0.0626 -0.0988 -0.3071
  963POPC   GL114039  13.556   7.918   6.138 -0.1960  0.0339  0.2300
  963POPC   GL214040  13.686   7.725   5.964 -0.2654 -0.1836 -0.1989
  963POPC   C1A14041  13.330   7.772   6.496 -0.2762  0.0506  0.3126
  963POPC   D2A14042  13.179   7.798   6.929 -0.6310  0.1924 -0.1273
  963POPC   C3A14043  13.185   7.316   7.165 -0.2615  0.0059  0.2974
  963POPC   C4A14044  13.145   7.292   7.540  0.1123  0.0104  0.0636
  963POPC   C1B14045  13.841   7.548   6.397 -0.0676  0.1089 -0.0257
  963POPC   C2B14046  14.074   7.495   6.817  0.0603  0.1151 -0.0849
  963POPC   C3B14047  14.132   7.671   7.209 -0.1876 -0.3881  0.0636
  963POPC   C4B14048  14.384   7.560   7.530  0.1962  0.0693  0.2182
  964POPC   NC314049  16.073   1.397   6.039 -0.1721 -0.2377 -0.3079
  964POPC   PO414050  16.135   1.201   6.437 -0.2762  0.0189  0.0107
  964POPC   GL114051  16.198   1.350   6.840  0.2696  0.2363  0.0188
  964POPC   GL214052  16.269   1.733   6.832  0.1288 -0.2601 -0.1002
  964POPC   C1A14053  16.306   1.271   7.283  0.0164  0.1273  0.0045
  964POPC   D2A14054  16.214   1.039   7.554 -0.2309 -0.0181  0.0021
  964POPC   C3A14055  15.953   0.907   7.893 -0.1022 -0.1459 -0.0514
  964POPC   C4A14056  15.816   0.965   8.355  0.0062 -0.1019  0.2215
  964POPC   C1B14057  16.122   1.715   7.209 -0.1654 -0.0384  0.0496
  964POPC   C2B14058  16.204   1.676   7.596  0.0241 -0.0396 -0.1743
  964POPC   C3B14059  16.354   1.859   8.054  0.0008  0.0615 -0.2563
  964POPC   C4B14060  16.223   1.827   8.356  0.0995 -0.1104 -0.2526
  965POPC   NC314061  10.595   3.435   5.773 -0.1134 -0.3020 -0.1504
  965POPC   PO414062  10.929   3.736   5.784  0.0751  0.1437  0.1434
  965POPC   GL114063  11.319   3.656   6.074 -0.2454 -0.1018 -0.0352
  965POPC   GL214064  11.621   3.748   6.072 -0.0176 -0.2527  0.0519
  965POPC   C1A14065  11.171   3.522   6.473  0.3568 -0.2765  0.0934
  965POPC   D2A14066  11.254   3.580   6.954  0.1554 -0.0826  0.2621
  965POPC   C3A14067  11.091   3.387   7.212 -0.0012 -0.2407 -0.2601
  965POPC   C4A14068  10.677   3.561   7.489 -0.0186 -0.1416  0.0079
  965POPC   C1B14069  11.924   3.878   6.431  0.1423 -0.1697 -0.0103
  965POPC   C2B14070  11.932   3.712   6.894 -0.0114  0.0012  0.1801
  965POPC   C3B14071  11.654   3.521   7.220  0.3477 -0.1827  0.2483
  965POPC   C4B14072  11.527   3.176   7.509  0.0047  0.0875 -0.0072
  966POPC   NC314073  18.254   5.357   5.480 -0.2467 -0.1793 -0.0780
  966POPC   PO414074  17.899   5.626   5.638  0.1839  0.0699 -0.2938
  966POPC   GL114075  18.101   5.756   6.150  0.0981 -0.0456 -0.3015
  966POPC   GL214076  17.722   5.773   6.390 -0.0413  0.1577 -0.1000
  966POPC   C1A14077  18.206   5.831   6.575  0.1984  0.2737 -0.1721
  966POPC   D2A14078  18.227   5.907   7.028 -0.0146 -0.3461  0.0309
  966POPC   C3A14079  18.203   5.925   7.413  0.2764  0.0304 -0.3305
  966POPC   C4A14080  18.130   6.012   7.897  0.2306 -0.4581  0.2264
  966POPC   C1B14081  17.689   5.733   6.823 -0.2712  0.1992  0.0519
  966POPC   C2B14082  17.693   5.914   7.244 -0.2763  0.0688 -0.0181
  966POPC   C3B14083  17.519   6.073   7.638  0.1699 -0.1065  0.0984
  966POPC   C4B14084  17.267   6.444   7.902  0.0131 -0.2599 -0.1076
  967POPC   NC314085   7.857   8.874   5.826  0.2927  0.0875 -0.0278
  967POPC   PO414086   8.301   8.681   5.751 -0.1128  0.2839 -0.2337
  967POPC   GL114087   8.568   8.737   6.158 -0.3138  0.1599  0.2124
  967POPC   GL214088   8.651   8.467   6.323  0.3105  0.2321 -0.0649
  967POPC   C1A14089   8.916   8.903   6.410 -0.0391 -0.1438  0.0644
  967POPC   D2A14090   9.228   8.763   6.778  0.2132  0.3576  0.0362
  967POPC   C3A14091   9.137   8.688   7.220 -0.4111 -0.2602  0.1874
  967POPC   C4A14092   9.116   8.823   7.620 -0.1009 -0.0500  0.0646
  967POPC   C1B14093   8.435   8.311   6.703  0.0063 -0.4188  0.0029
  967POPC   C2B14094   8.327   8.154   7.085 -0.1363  0.0712  0.0929
  967POPC   C3B14095   8.253   7.837   7.321 -0.0483  0.1094 -0.2067
  967POPC   C4B14096   7.878   7.751   7.608 -0.1154  0.0680 -0.1222
  968POPC   NC314097   8.304  10.405   5.852  0.0004  0.1911 -0.1048
  968POPC   PO414098   8.683  10.440   5.676  0.1320 -0.2250  0.4223
  968POPC   GL114099   8.889  10.481   6.060 -0.1694  0.1659  0.1693
  968POPC   GL214100   8.738  10.285   6.246 -0.1608 -0.2193  0.1993
  968POPC   C1A14101   8.997  10.654   6.478 -0.2328  0.0601  0.0022
  968POPC   D2A14102   9.071  10.725   6.962  0.3021  0.3907 -0.1421
  968POPC   C3A14103   9.035  10.856   7.399 -0.0812  0.1072  0.2350
  968POPC   C4A14104   8.834  11.030   7.701 -0.1290 -0.0848  0.3411
  968POPC   C1B14105   8.912  10.171   6.631 -0.0748  0.1829 -0.1695
  968POPC   C2B14106   8.996  10.248   7.034  0.0458  0.0008  0.2240
  968POPC   C3B14107   9.059  10.322   7.443  0.0603  0.0979  0.0810
  968POPC   C4B14108   8.890  10.090   7.753  0.0014  0.2376 -0.0051
  969POPC   NC314109  17.687  13.057   5.951 -0.0971 -0.1472  0.3173
  969POPC   PO414110  18.099  12.959   6.006  0.3221  0.1676 -0.1519
  969POPC   GL114111  17.965  12.740   6.394  0.2552 -0.1387 -0.4661
  969POPC   GL214112  18.179  12.474   6.426 -0.0225 -0.0175  0.2728
  969POPC   C1A14113  17.680  12.401   6.614 -0.1178 -0.3818  0.3929
  969POPC   D2A14114  17.412  12.535   6.838  0.0347 -0.0368 -0.1901
  969POPC   C3A14115  17.545  12.398   7.247  0.2360  0.0130  0.2310
  969POPC   C4A14116  17.488  12.047   7.495  0.0182 -0.0728  0.2414
  969POPC   C1B14117  18.120  12.532   6.867  0.0901 -0.5116  0.1847
  969POPC   C2B14118  18.130  12.634   7.258  0.0658 -0.1289 -0.0535
  969POPC   C3B14119  18.263  12.755   7.778 -0.0008  0.2338 -0.2421
  969POPC   C4B14120  18.455  12.680   8.138 -0.0696  0.2598  0.3585
  970POPC   NC314121  15.151   9.488   5.658  0.1508  0.0110 -0.2634
  970POPC   PO414122  14.781   9.822   5.649 -0.0364  0.0964 -0.1858
  970POPC   GL114123  14.378   9.787   5.683 -0.0704  0.2228  0.1393
  970POPC   GL214124  14.441   9.418   5.630  0.0178 -0.1796  0.0860
  970POPC   C1A14125  14.127   9.817   5.995 -0.0052  0.2481  0.2395
  970POPC   D2A14126  13.949  10.081   6.374 -0.3152  0.0103  0.2986
  970POPC   C3A14127  14.089  10.106   6.768  0.0893 -0.2981  0.0674
  970POPC   C4A14128  14.154   9.746   6.958  0.1173 -0.2884 -0.2347
  970POPC   C1B14129  14.335   9.258   6.100  0.1573 -0.0783 -0.1330
  970POPC   C2B14130  14.374   8.963   6.482  0.1273 -0.3027  0.0585
  970POPC   C3B14131  14.284   8.888   6.836 -0.1574  0.3795  0.0779
  970POPC   C4B14132  13.969   8.878   7.225  0.1654  0.0766 -0.2025
  971YOPC   NC314133   1.033   2.231   6.219 -0.1354 -0.1706 -0.1556
  971YOPC   PO414134   1.381   2.298   5.991 -0.2594  0.1871  0.0100
  971YOPC   GL114135   1.508   2.417   6.421 -0.2714 -0.1527 -0.2298
  971YOPC   GL214136   1.599   2.642   6.470 -0.1272 -0.1136 -0.0203
  971YOPC   C1A14137   1.573   2.293   6.969  0.0100 -0.1781 -0.1284
  971YOPC   D2A14138   1.690   2.149   7.399  0.4208  0.0210  0.2541
  971YOPC   C3A14139   1.753   1.822   7.695 -0.1501  0.2047 -0.1783
  971YOPC   C4A14140   1.671   1.827   8.114 -0.1174 -0.1217 -0.1738
  971YOPC   C1B14141   1.768   2.824   6.926  0.0194  0.2238  0.3891
  971YOPC   C2B14142   1.863   2.557   7.266  0.1564  0.0098 -0.0449
  971YOPC   D3B14143   1.875   2.559   7.679  0.2095 -0.1032 -0.1822
  971YOPC   C4B14144   2.096   2.638   8.050  0.0649 -0.3814  0.0923
  972YOPC   NC314145   9.605  10.630   4.721  0.1030 -0.1180  0.0331
  972YOPC   PO414146   9.822  11.058   4.923  0.0162  0.0260  0.1398
  972YOPC   GL114147  10.032  11.053   5.335  0.2467  0.2074  0.0020
  972YOPC   GL214148  10.225  10.966   5.473  0.1579  0.0393  0.2378
  972YOPC   C1A14149   9.908  11.218   5.866 -0.4022 -0.0108 -0.3890
  972YOPC   D2A14150   9.868  11.394   6.290  0.0615 -0.2280 -0.2263
  972YOPC   C3A14151   9.991  11.237   6.715  0.0711 -0.2491 -0.2226
  972YOPC   C4A14152   9.919  11.193   7.166 -0.1453 -0.0813  0.1327
  972YOPC   C1B14153  10.413  11.079   5.888  0.1735  0.1177  0.3933
  972YOPC   C2B14154  10.172  10.880   6.255  0.3206  0.3009 -0.1785
  972YOPC   D3B14155  10.404  10.482   6.367 -0.2645 -0.0988 -0.0784
  972YOPC   C4B14156  10.240  10.115   6.082  0.1013  0.0414  0.1333
  973YOPC   NC314157   5.928  13.952   5.514  0.1892  0.1859 -0.1853
  973YOPC   PO414158   6.032  14.279   5.847  0.1698 -0.2427 -0.1964
  973YOPC   GL114159   5.890  14.419   6.278 -0.2122 -0.0454  0.2728
  973YOPC   GL214160   5.635  14.275   6.452  0.2763  0.0416 -0.3075
  973YOPC   C1A14161   5.876  14.583   6.842 -0.1413  0.2378 -0.2365
  973YOPC   D2A14162   6.015  14.980   7.069  0.0573 -0.0888 -0.0700
  973YOPC   C3A14163   5.887  15.115   7.439 -0.1906  0.0147  0.1724
  973YOPC   C4A14164   6.044  15.143   7.853 -0.0507  0.1793  0.0340
  973YOPC   C1B14165   5.717  14.045   6.775  0.3072  0.1066  0.1458
  973YOPC   C2B14166   5.770  13.905   7.318  0.0163  0.2058 -0.0144
  973YOPC   D3B14167   5.551  13.927   7.749 -0.1808 -0.4624 -0.2177
  973YOPC   C4B14168   5.831  14.006   8.101  0.0284  0.3710 -0.2307
  974YOPC   NC314169   3.778   0.617   5.352  0.4194 -0.3242 -0.1156
  974YOPC   PO414170   3.661   0.864   5.726 -0.0311 -0.1457  0.1120
  974YOPC   GL114171   3.739   0.645   6.091 -0.1154 -0.1162  0.0335
  974YOPC   GL214172   3.952   0.842   6.237 -0.2776  0.3204 -0.1539
  974YOPC   C1A14173   3.651   0.546   6.512  0.2834 -0.4063  0.0857
  974YOPC   D2A14174   3.437   0.276   6.755 -0.0872  0.2930  0.0092
  974YOPC   C3A14175   3.394   0.353   7.147  0.1507  0.1072  0.2863
  974YOPC   C4A14176   3.201   0.467   7.438  0.0435 -0.1197  0.1610
  974YOPC   C1B14177   4.077   0.776   6.691  0.2160 -0.1572 -0.1493
  974YOPC   C2B14178   3.960   0.415   7.001  0.0103 -0.0749 -0.1582
  974YOPC   D3B14179   4.211   0.521   7.430 -0.0397  0.1257  0.0854
  974YOPC   C4B14180   4.231   0.431   7.914  0.2750  0.0170 -0.0277
  975YOPC   NC314181  15.221   9.019   5.372 -0.1361 -0.0629  0.0969
  975YOPC   PO414182  14.890   9.117   5.514  0.0437  0.1338 -0.0094
  975YOPC   GL114183  14.803   9.146   5.980  0.0311 -0.1840 -0.2278
  975YOPC   GL214184  14.776   8.872   6.266  0.1317 -0.2212 -0.0786
  975YOPC   C1A14185  14.764   9.339   6.381 -0.3195  0.2115 -0.0666
  975YOPC   D2A14186  14.717   9.449   6.809  0.0744 -0.3504  0.0017
  975YOPC   C3A14187  14.480   9.362   7.089  0.2397  0.0398  0.2996
  975YOPC   C4A14188  14.448   9.419   7.539  0.2493 -0.1562  0.1648
  975YOPC   C1B14189  14.855   8.861   6.709 -0.2381  0.2893 -0.1413
  975YOPC   C2B14190  14.902   9.012   7.013  0.0218  0.1596  0.3177
  975YOPC   D3B14191  14.579   8.903   7.391  0.0090  0.2251  0.1695
  975YOPC   C4B14192  14.207   8.877   7.700 -0.1595 -0.1796 -0.0094
  976YOPC   NC314193  11.900  14.546   5.661  0.1877  0.0419 -0.1474
  976YOPC   PO414194  11.814  14.064   5.863 -0.0686 -0.0491 -0.1673
  976YOPC   GL114195  11.937  13.819   6.242  0.2542 -0.0760 -0.1020
  976YOPC   GL214196  11.652  13.853   6.409  0.2465  0.2617  0.2859
  976YOPC   C1A14197  12.100  13.846   6.635  0.2436 -0.0335  0.2146
  976YOPC   D2A14198  12.247  13.918   6.926  0.1846  0.1711  0.1509
  976YOPC   C3A14199  12.057  13.826   7.294  0.0001 -0.0183  0.2599
  976YOPC   C4A14200  11.575  13.626   7.416  0.0143  0.0136  0.0170
  976YOPC   C1B14201  11.624  13.789   6.792 -0.3526 -0.0047  0.2539
  976YOPC   C2B14202  11.464  13.337   7.032 -0.2631 -0.1491  0.1426
  976YOPC   D3B14203  11.456  13.015   7.450  0.2375 -0.0026 -0.3205
  976YOPC   C4B14204  11.736  12.985   7.720  0.0162  0.2064  0.0384
  977YOPC   NC314205   4.988   1.777   5.931 -0.0094  0.3671  0.1384
  977YOPC   PO414206   4.691   1.408   5.920 -0.2426 -0.0461  0.2032
  977YOPC   GL114207   4.778   1.438   6.295  0.0398  0.4132  0.0189
  977YOPC   GL214208   4.787   1.763   6.368 -0.0940 -0.0309 -0.1629
  977YOPC   C1A14209   4.959   1.232   6.618 -0.1194 -0.1428 -0.1507
  977YOPC   D2A14210   4.900   0.947   7.008  0.1104 -0.3337  0.0555
  977YOPC   C3A14211   4.954   0.526   6.975 -0.0231 -0.0887  0.1480
  977YOPC   C4A14212   4.584   0.182   7.026 -0.3172 -0.1380 -0.4107
  977YOPC   C1B14213   4.593   1.528   6.775 -0.2546  0.1082 -0.1862
  977YOPC   C2B14214   4.562   1.432   7.172 -0.2239  0.0141 -0.0400
  977YOPC   D3B14215   4.763   1.668   7.381  0.3311 -0.0439 -0.0525
  977YOPC   C4B14216   5.154   1.423   7.422 -0.0236 -0.0829 -0.3728
  978YOPC   NC314217   5.425  14.491   6.004 -0.1511 -0.1236 -0.2334
  978YOPC   PO414218   5.217  14.135   5.906  0.0875 -0.1801 -0.1002
  978YOPC   GL114219   5.080  14.338   6.387  0.0542 -0.2159  0.2146
  978YOPC   GL214220   5.051  14.721   6.404 -0.0900  0.0186 -0.1660
  978YOPC   C1A14221   5.231  14.318   6.793  0.2242  0.0307 -0.0409
  978YOPC   D2A14222   5.124  14.013   7.127 -0.1264  0.1565  0.1488
  978YOPC   C3A14223   5.199  13.797   7.462  0.1518 -0.0462 -0.0244
  978YOPC   C4A14224   5.513  13.454   7.472 -0.0514  0.4397  0.0934
  978YOPC   C1B14225   4.872  14.674   6.845 -0.1032 -0.0111 -0.4557
  978YOPC   C2B14226   4.967  14.639   7.249  0.1441 -0.1261  0.0539
  978YOPC   D3B14227   5.414  14.365   7.260 -0.2048 -0.0797  0.0196
  978YOPC   C4B14228   5.815  14.553   7.353  0.3317 -0.4337 -0.0462
  979YOPC   NC314229  16.531  14.408   5.978  0.1678  0.2013 -0.0302
  979YOPC   PO414230  17.031  14.189   6.078  0.0312 -0.4065 -0.0022
  979YOPC   GL114231  16.827  14.004   6.443 -0.0343  0.0866  0.2155
  979YOPC   GL214232  16.572  13.851   6.287 -0.1804 -0.0515 -0.0623
  979YOPC   C1A14233  16.926  13.831   6.845 -0.1397 -0.0943 -0.2304
  979YOPC   D2A14234  16.807  13.801   7.165  0.0995  0.1156 -0.0346
  979YOPC   C3A14235  16.854  13.480   7.428 -0.0517  0.0931  0.0913
  979YOPC   C4A14236  17.068  13.157   7.247  0.3150  0.1234 -0.2816
  979YOPC   C1B14237  16.412  13.648   6.668  0.1447 -0.0421  0.0023
  979YOPC   C2B14238  16.279  13.607   7.135  0.1075 -0.2370 -0.2208
  979YOPC   D3B14239  16.279  13.243   7.436  0.0526  0.2494  0.0408
  979YOPC   C4B14240  16.581  13.035   7.523  0.1983 -0.1022 -0.0408
  980YOPC   NC314241  17.388  12.248   5.790  0.0909 -0.0123  0.1725
  980YOPC   PO414242  17.312  12.669   5.965 -0.0196  0.0614 -0.3463
  980YOPC   GL114243  17.175  12.675   6.343  0.1400  0.1422 -0.1035
  980YOPC   GL214244  16.886  12.812   6.463  0.1669 -0.1022 -0.0103
  980YOPC   C1A14245  16.911  12.350   6.556 -0.0762 -0.0257  0.4604
  980YOPC   D2A14246  16.828  12.431   6.950  0.0127 -0.0236 -0.1015
  980YOPC   C3A14247  16.630  12.881   7.022  0.2583  0.0375 -0.0560
  980YOPC   C4A14248  16.660  13.330   6.998 -0.1136  0.3970 -0.0074
  980YOPC   C1B14249  17.081  12.869   6.892 -0.0683  0.0261  0.3949
  980YOPC   C2B14250  17.065  12.700   7.341  0.0090  0.1538 -0.2291
  980YOPC   D3B14251  17.212  12.520   7.675  0.0075 -0.0338 -0.1611
  980YOPC   C4B14252  17.340  12.129   7.977 -0.2210  0.0229  0.0043
  981YOPC   NC314253   9.095   4.635   4.748  0.3672 -0.1050  0.0068
  981YOPC   PO414254   9.292   4.837   5.192  0.1600  0.0608 -0.2332
  981YOPC   GL114255   9.496   4.958   5.624 -0.0996 -0.1706 -0.0017
  981YOPC   GL214256   9.710   5.112   5.856 -0.0300 -0.1174 -0.3482
  981YOPC   C1A14257   9.287   4.990   6.017 -0.0039  0.0161  0.0231
  981YOPC   D2A14258   9.474   4.875   6.418 -0.0236 -0.0648  0.2957
  981YOPC   C3A14259   9.736   4.552   6.645 -0.0977  0.1770  0.0853
  981YOPC   C4A14260   9.815   4.385   7.059 -0.2334  0.0464 -0.2749
  981YOPC   C1B14261   9.860   4.724   6.129  0.0727  0.0888  0.1299
  981YOPC   C2B14262  10.190   4.662   6.466  0.0296 -0.2312 -0.0475
  981YOPC   D3B14263  10.179   4.688   6.899 -0.3053  0.0319  0.0364
  981YOPC   C4B14264   9.933   4.802   7.314  0.0881  0.0216 -0.0589
  982YOPC   NC314265   2.211  11.800   5.932 -0.3049  0.1460 -0.1692
  982YOPC   PO414266   1.869  11.497   6.169 -0.1191  0.1984  0.0659
  982YOPC   GL114267   1.904  11.405   6.574 -0.2083  0.1952  0.0411
  982YOPC   GL214268   2.118  11.139   6.700 -0.2533 -0.1090  0.1788
  982YOPC   C1A14269   1.729  11.661   6.857 -0.3442  0.0525 -0.1336
  982YOPC   D2A14270   1.467  12.067   7.066  0.0007  0.5273 -0.2424
  982YOPC   C3A14271   1.493  12.296   7.478  0.2375 -0.1332 -0.0535
  982YOPC   C4A14272   1.143  12.528   7.577 -0.0006  0.1126  0.1371
  982YOPC   C1B14273   2.061  11.415   7.106 -0.0096 -0.4012  0.1854
  982YOPC   C2B14274   2.046  11.626   7.571  0.1899  0.2333  0.4188
  982YOPC   D3B14275   2.345  11.898   7.816 -0.0009 -0.1836  0.3480
  982YOPC   C4B14276   2.336  12.167   8.049  0.1562  0.0958  0.0139
  983YOPC   NC314277   8.948   2.205   5.249 -0.3735 -0.0455  0.0744
  983YOPC   PO414278   8.788   2.487   5.545 -0.2705  0.2974  0.3505
  983YOPC   GL114279   8.838   2.267   6.000 -0.1767  0.0824  0.0739
  983YOPC   GL214280   9.085   2.190   6.231  0.2163 -0.0440 -0.0912
  983YOPC   C1A14281   8.747   2.507   6.383  0.1475  0.1027 -0.2929
  983YOPC   D2A14282   8.564   2.565   6.811 -0.0305  0.0886 -0.2077
  983YOPC   C3A14283   8.619   2.396   7.231 -0.1037 -0.3438 -0.4291
  983YOPC   C4A14284   8.915   2.096   7.514 -0.0921  0.0757 -0.0172
  983YOPC   C1B14285   9.609   2.266   6.403  0.2769  0.1770  0.1723
  983YOPC   C2B14286  10.038   2.131   6.216  0.0520  0.0483 -0.0474
  983YOPC   D3B14287  10.254   2.563   6.261 -0.1436 -0.1280 -0.1261
  983YOPC   C4B14288  10.482   2.787   6.643  0.1414  0.2519  0.0650
  984YOPC   NC314289   3.946  14.819   5.743  0.1351  0.4261  0.3759
  984YOPC   PO414290   3.655  14.760   6.026 -0.0634 -0.0122  0.1151
  984YOPC   GL114291   3.395  14.910   6.239  0.1736  0.1883  0.0657
  984YOPC   GL214292   3.313  14.585   6.430  0.2333 -0.3700 -0.0347
  984YOPC   C1A14293   3.191  15.267   6.307  0.3662 -0.0935 -0.1703
  984YOPC   D2A14294   3.258  15.606   6.467  0.1271 -0.0439 -0.1550
  984YOPC   C3A14295   2.954  15.929   6.657 -0.1768 -0.3662  0.2920
  984YOPC   C4A14296   2.670  16.135   6.924 -0.2487  0.0790  0.3174
  984YOPC   C1B14297   3.550  14.820   6.718  0.0554  0.0375 -0.3309
  984YOPC   C2B14298   3.533  14.753   7.281  0.1636 -0.0209 -0.2618
  984YOPC   D3B14299   3.918  14.781   7.590 -0.3575  0.2206 -0.0312
  984YOPC   C4B14300   4.216  14.971   7.914 -0.1985  0.1813 -0.0485
  985YOPC   NC314301  16.528   6.154   5.563 -0.0378 -0.1936  0.2316
  985YOPC   PO414302  16.234   5.976   5.854  0.1043 -0.2149  0.0641
  985YOPC   GL114303  16.396   5.925   6.266 -0.1580  0.2456 -0.0409
  985YOPC   GL214304  16.748   5.876   6.219 -0.0259 -0.1762 -0.1533
  985YOPC   C1A14305  16.385   5.889   6.668 -0.1610 -0.0994 -0.0267
  985YOPC   D2A14306  16.549   5.738   7.004  0.2362 -0.0517  0.0603
  985YOPC   C3A14307  16.623   5.761   7.456  0.3145  0.1504 -0.0170
  985YOPC   C4A14308  16.791   5.681   7.865  0.0248 -0.0982 -0.2297
  985YOPC   C1B14309  16.824   6.100   6.583 -0.2785 -0.0888 -0.0950
  985YOPC   C2B14310  16.815   6.150   7.073  0.1947 -0.0537 -0.0538
  985YOPC   D3B14311  16.522   6.235   7.417  0.1634  0.2765 -0.0999
  985YOPC   C4B14312  16.539   6.149   7.840 -0.1793 -0.1194 -0.0525
  986YOPC   NC314313  17.500   5.107   6.007 -0.1759 -0.1015 -0.1314
  986YOPC   PO414314  17.865   5.317   6.131  0.3216 -0.0460 -0.4882
  986YOPC   GL114315  17.637   5.255   6.522 -0.0408 -0.1360  0.0733
  986YOPC   GL214316  17.711   4.986   6.554 -0.0159  0.2063  0.0838
  986YOPC   C1A14317  17.536   5.256   6.999  0.1993  0.3333  0.2230
  986YOPC   D2A14318  17.383   5.176   7.364  0.1402 -0.0605  0.1284
  986YOPC   C3A14319  17.391   5.521   7.597 -0.1937 -0.3907 -0.0336
  986YOPC   C4A14320  17.288   5.545   7.954 -0.0782  0.3695  0.0258
  986YOPC   C1B14321  17.684   4.757   6.966 -0.0178 -0.2945  0.4309
  986YOPC   C2B14322  17.783   4.886   7.328  0.1647  0.1046 -0.2902
  986YOPC   D3B14323  17.488   4.678   7.564  0.2071  0.1135 -0.0274
  986YOPC   C4B14324  17.203   4.526   7.806  0.1508  0.0078  0.2557
  987YOPC   NC314325   7.689   0.116   5.906  0.3835 -0.0596 -0.0466
  987YOPC   PO414326   7.913   0.331   5.650 -0.0564 -0.2634  0.2003
  987YOPC   GL114327   8.009   0.493   6.087 -0.3940 -0.0330  0.1077
  987YOPC   GL214328   8.263   0.686   6.100  0.0465  0.2934  0.2511
  987YOPC   C1A14329   7.832   0.748   6.399  0.1535  0.5262 -0.0351
  987YOPC   D2A14330   7.589   0.847   6.804 -0.0754  0.1627 -0.2818
  987YOPC   C3A14331   7.121   0.911   6.786 -0.0996 -0.0425 -0.0502
  987YOPC   C4A14332   6.863   1.014   7.084 -0.0479 -0.0026  0.2017
  987YOPC   C1B14333   8.545   0.821   6.322 -0.1636  0.0992  0.1333
  987YOPC   C2B14334   9.039   0.983   6.369  0.5209 -0.1713 -0.1760
  987YOPC   D3B14335   9.227   0.813   6.739 -0.2048  0.1539  0.1533
  987YOPC   C4B14336   9.193   0.806   7.160 -0.1619  0.0777 -0.1539
  988YOPC   NC314337   2.229   6.025   5.882  0.2625 -0.1089  0.3141
  988YOPC   PO414338   2.467   5.758   5.671 -0.1336  0.0426 -0.1932
  988YOPC   GL114339   2.327   5.575   6.065 -0.2869  0.0861 -0.2378
  988YOPC   GL214340   2.508   5.383   6.211 -0.3035  0.0176  0.3361
  988YOPC   C1A14341   2.274   5.680   6.538 -0.2027 -0.2729  0.0620
  988YOPC   D2A14342   2.475   5.651   6.941  0.1251  0.2489  0.0589
  988YOPC   C3A14343   2.468   5.503   7.377 -0.0788  0.1546 -0.0932
  988YOPC   C4A14344   2.524   5.363   7.746  0.1314 -0.0824 -0.0182
  988YOPC   C1B14345   2.836   5.558   6.485  0.2053  0.2573  0.1315
  988YOPC   C2B14346   2.933   5.516   6.880  0.1348 -0.0987  0.0034
  988YOPC   D3B14347   2.891   5.841   7.202  0.0827 -0.3000  0.0247
  988YOPC   C4B14348   2.916   6.186   7.387 -0.1819 -0.2222  0.0278
  989YOPC   NC314349  14.232  17.952   5.858 -0.0642  0.0818  0.2619
  989YOPC   PO414350  14.646  17.886   5.892 -0.3525 -0.1525 -0.0053
  989YOPC   GL114351  14.659  17.977   6.270 -0.2381  0.2006 -0.2281
  989YOPC   GL214352  14.431  18.222   6.286  0.0716  0.1800 -0.0424
  989YOPC   C1A14353  14.853  17.970   6.702 -0.0991  0.0235 -0.0084
  989YOPC   D2A14354  15.117  17.785   6.981  0.1874 -0.0058  0.3640
  989YOPC   C3A14355  15.481  17.929   7.120 -0.0568  0.2002 -0.0634
  989YOPC   C4A14356  15.447  18.170   7.445  0.1731  0.1717 -0.1887
  989YOPC   C1B14357  14.417  18.459   6.685 -0.2533 -0.0784 -0.1873
  989YOPC   C2B14358  14.256  18.425   7.171 -0.2042 -0.0838  0.1336
  989YOPC   D3B14359  14.384  18.368   7.658 -0.0723  0.0556  0.2759
  989YOPC   C4B14360  14.613  18.256   8.012  0.2692 -0.1995 -0.0208
  990YOPC   NC314361   3.466  12.641   5.644 -0.4123 -0.1836  0.2633
  990YOPC   PO414362   3.852  12.810   5.582 -0.0614 -0.2320 -0.3128
  990YOPC   GL114363   4.068  12.629   5.992  0.0838 -0.0936 -0.4273
  990YOPC   GL214364   4.349  12.437   6.046 -0.2821  0.0208 -0.0332
  990YOPC   C1A14365   4.179  12.562   6.486  0.0988 -0.2595 -0.0499
  990YOPC   D2A14366   4.244  12.750   6.940 -0.2567 -0.1633  0.1663
  990YOPC   C3A14367   3.841  13.135   7.183 -0.0610 -0.0995 -0.2884
  990YOPC   C4A14368   3.507  13.254   7.471  0.3007 -0.3868  0.1409
  990YOPC   C1B14369   4.618  12.472   6.342 -0.0063 -0.1502 -0.0196
  990YOPC   C2B14370   4.952  12.813   6.357 -0.1708  0.1560  0.1867
  990YOPC   D3B14371   5.246  12.635   6.332  0.2548  0.2048 -0.0406
  990YOPC   C4B14372   5.440  12.453   6.716  0.1502 -0.0467  0.4738
  991YOPC   NC314373  10.458   8.070   5.547  0.2913 -0.0815  0.0119
  991YOPC   PO414374  10.203   7.807   5.482 -0.2212  0.1996  0.3301
  991YOPC   GL114375  10.029   7.923   5.893 -0.1414 -0.2795  0.0973
  991YOPC   GL214376  10.235   8.108   6.147  0.0298  0.0338 -0.1611
  991YOPC   C1A14377   9.939   7.723   6.290 -0.1194 -0.0219 -0.0463
  991YOPC   D2A14378   9.912   7.804   6.748 -0.1336 -0.0340  0.0124
  991YOPC   C3A14379   9.750   8.143   6.943 -0.1354 -0.1801  0.1877
  991YOPC   C4A14380   9.601   8.497   7.141  0.3060 -0.0788 -0.1119
  991YOPC   C1B14381  10.024   8.228   6.537  0.0879 -0.0720 -0.0245
  991YOPC   C2B14382  10.082   8.474   6.866 -0.3324 -0.0962  0.1968
  991YOPC   D3B14383  10.091   8.653   7.185  0.0523  0.4447  0.0272
  991YOPC   C4B14384   9.682   8.944   7.331 -0.1707  0.0497 -0.0195
  992YOPC   NC314385  16.727   2.527   6.475  0.0161 -0.1893 -0.2621
  992YOPC   PO414386  16.940   2.866   6.455 -0.3403  0.0537  0.1207
  992YOPC   GL114387  17.196   2.607   6.741 -0.0617  0.1582  0.0499
  992YOPC   GL214388  16.990   2.478   6.880  0.1528 -0.1764 -0.0274
  992YOPC   C1A14389  17.608   2.633   7.065 -0.2409  0.1546 -0.0853
  992YOPC   D2A14390  17.906   2.460   7.262 -0.1312 -0.1537  0.0827
  992YOPC   C3A14391  17.999   2.407   7.706 -0.0929  0.2164 -0.4429
  992YOPC   C4A14392  17.950   2.171   8.138 -0.1058 -0.0480  0.2094
  992YOPC   C1B14393  17.154   2.495   7.272 -0.0219  0.0960  0.0793
  992YOPC   C2B14394  17.442   2.492   7.590 -0.1541 -0.7378 -0.3093
  992YOPC   D3B14395  17.709   2.840   7.553 -0.1307  0.0145 -0.2242
  992YOPC   C4B14396  17.847   3.300   7.683  0.1612  0.2038 -0.1644
  993YOPC   NC314397  15.758   7.943   5.768 -0.3166  0.3582 -0.1725
  993YOPC   PO414398  16.301   8.084   5.807 -0.3032  0.1381  0.0508
  993YOPC   GL114399  16.154   8.091   6.135 -0.0843  0.1338 -0.0066
  993YOPC   GL214400  15.987   7.797   6.171 -0.2327  0.2638 -0.0252
  993YOPC   C1A14401  15.997   8.172   6.495 -0.0429  0.0090  0.0315
  993YOPC   D2A14402  16.044   8.008   6.814 -0.0760  0.1716 -0.3515
  993YOPC   C3A14403  15.959   8.141   7.176 -0.0212 -0.2698 -0.0255
  993YOPC   C4A14404  15.639   8.251   7.534  0.1392  0.2627 -0.3158
  993YOPC   C1B14405  16.247   7.613   6.557  0.2339  0.0487  0.0760
  993YOPC   C2B14406  16.193   7.372   6.991 -0.1829  0.0780  0.0316
  993YOPC   D3B14407  16.482   7.206   7.186  0.1273  0.3540  0.0971
  993YOPC   C4B14408  16.861   7.120   7.177  0.0155  0.0951  0.0210
  994YOPC   NC314409  15.891  14.979   6.082  0.1387 -0.1342  0.1315
  994YOPC   PO414410  16.319  14.990   6.002 -0.0396  0.1882 -0.1051
  994YOPC   GL114411  16.243  15.152   6.402 -0.0050 -0.1502  0.2295
  994YOPC   GL214412  15.902  15.298   6.524 -0.0399  0.0610  0.1379
  994YOPC   C1A14413  16.374  15.264   6.829 -0.0526 -0.2583 -0.1361
  994YOPC   D2A14414  16.212  15.138   7.243  0.0440  0.1473 -0.1849
  994YOPC   C3A14415  16.502  15.063   7.534  0.2827 -0.2748 -0.0378
  994YOPC   C4A14416  16.705  14.952   7.851  0.0097 -0.0749  0.1656
  994YOPC   C1B14417  15.911  14.988   6.754  0.2731  0.1111 -0.0597
  994YOPC   C2B14418  15.790  14.884   7.147  0.0293 -0.0075  0.0080
  994YOPC   D3B14419  15.982  14.745   7.484  0.0607  0.0778  0.0508
  994YOPC   C4B14420  16.330  14.421   7.650 -0.0732  0.1550  0.2708
  995YOPC   NC314421  16.899  17.897   5.214  0.0994 -0.0030 -0.1939
  995YOPC   PO414422  17.038  18.101   5.584 -0.0343 -0.0262  0.0936
  995YOPC   GL114423  17.054  18.147   6.035  0.0056  0.5037  0.2988
  995YOPC   GL214424  17.082  17.857   6.277  0.0800 -0.5618 -0.3519
  995YOPC   C1A14425  16.744  18.398   6.339 -0.1293  0.1911 -0.0069
  995YOPC   D2A14426  16.555  18.559   6.820 -0.1250  0.4323  0.0518
  995YOPC   C3A14427  16.859  18.352   7.130 -0.0027 -0.0684  0.1331
  995YOPC   C4A14428  16.935  18.206   7.459 -0.0400  0.2685  0.0249
  995YOPC   C1B14429  17.110  18.188   6.559  0.2081 -0.0971  0.0379
  995YOPC   C2B14430  17.335  18.415   6.937  0.2414 -0.0702 -0.5633
  995YOPC   D3B14431  17.374  18.119   7.261  0.2626 -0.0524  0.0979
  995YOPC   C4B14432  17.311  18.007   7.707 -0.0200 -0.2082 -0.1445
  996YOPC   NC314433  13.699   0.903   5.898 -0.0380 -0.2546 -0.3004
  996YOPC   PO414434  13.527   0.670   6.237  0.0946 -0.2145  0.1148
  996YOPC   GL114435  13.568   0.890   6.633 -0.1471 -0.0829  0.3190
  996YOPC   GL214436  13.765   0.848   6.725  0.1367 -0.0559  0.2866
  996YOPC   C1A14437  13.431   0.843   7.092  0.1287 -0.2637  0.0129
  996YOPC   D2A14438  13.173   0.671   7.501 -0.0016  0.1424 -0.2478
  996YOPC   C3A14439  13.298   0.899   7.906  0.0447  0.1865 -0.0603
  996YOPC   C4A14440  13.372   1.167   8.367  0.2479 -0.2573  0.2411
  996YOPC   C1B14441  13.921   0.822   7.201  0.0762 -0.5379 -0.1116
  996YOPC   C2B14442  14.023   1.115   7.527  0.2715 -0.0166 -0.3355
  996YOPC   D3B14443  13.866   1.169   7.932 -0.3670  0.1488 -0.0414
  996YOPC   C4B14444  13.802   0.916   8.124  0.1982  0.0937 -0.0620
  997YOPC   NC314445  11.344   5.967   5.603 -0.2275  0.0997 -0.0896
  997YOPC   PO414446  11.569   5.565   5.801 -0.0949  0.0251  0.0491
  997YOPC   GL114447  11.646   5.493   6.187  0.2614 -0.6182  0.1385
  997YOPC   GL214448  11.426   5.281   6.387  0.1000  0.1623 -0.0975
  997YOPC   C1A14449  11.907   5.452   6.549  0.2637 -0.1836 -0.1084
  997YOPC   D2A14450  12.164   5.361   6.894 -0.1120  0.1015 -0.2343
  997YOPC   C3A14451  11.989   5.380   7.353 -0.0068 -0.0978 -0.1843
  997YOPC   C4A14452  11.904   5.368   7.817  0.1100 -0.0169 -0.2367
  997YOPC   C1B14453  11.439   5.091   6.725  0.1803  0.2343 -0.0207
  997YOPC   C2B14454  11.658   4.788   7.089 -0.0708 -0.0615  0.4307
  997YOPC   D3B14455  11.875   4.903   7.542  0.2674  0.0386  0.0096
  997YOPC   C4B14456  11.841   4.787   7.909  0.0434  0.3442  0.0512
  998YOPC   NC314457  12.447  16.622   6.012 -0.0678 -0.2012  0.0532
  998YOPC   PO414458  12.153  16.910   5.848 -0.2726  0.2358  0.1933
  998YOPC   GL114459  12.160  16.975   6.335  0.1995  0.2112  0.1488
  998YOPC   GL214460  11.859  17.011   6.438 -0.1383  0.1198  0.0789
  998YOPC   C1A14461  12.282  16.986   6.735 -0.0625 -0.0913 -0.4181
  998YOPC   D2A14462  12.488  16.972   6.993  0.0954 -0.0333  0.2723
  998YOPC   C3A14463  12.261  16.913   7.353 -0.0790 -0.1329  0.0905
  998YOPC   C4A14464  12.360  16.841   7.720  0.1219  0.1011  0.0944
  998YOPC   C1B14465  11.641  16.606   6.437 -0.1448 -0.1899 -0.2717
  998YOPC   C2B14466  11.814  16.219   6.669 -0.2866 -0.2784 -0.0362
  998YOPC   D3B14467  11.802  16.057   7.031 -0.0837  0.0738 -0.0569
  998YOPC   C4B14468  11.822  15.600   7.174  0.1055  0.1895  0.1228
  999YOPC   NC314469  10.125   8.524   5.463 -0.0916  0.0044  0.3797
  999YOPC   PO414470  10.603   8.592   5.574 -0.0855 -0.2869  0.3170
  999YOPC   GL114471  10.493   8.679   5.977  0.0582  0.2741  0.0455
  999YOPC   GL214472  10.348   8.965   5.900  0.0475 -0.3251  0.3007
  999YOPC   C1A14473  10.326   8.629   6.339 -0.2449 -0.0870 -0.0208
  999YOPC   D2A14474  10.005   8.865   6.576 -0.0327 -0.2241 -0.1120
  999YOPC   C3A14475  10.103   9.048   6.944 -0.2038 -0.4140 -0.3579
  999YOPC   C4A14476  10.015   9.386   7.324  0.1064  0.0000  0.0240
  999YOPC   C1B14477  10.484   9.391   5.902 -0.0790  0.1150  0.0516
  999YOPC   C2B14478  10.681   9.629   6.156 -0.1564 -0.0537  0.3028
  999YOPC   D3B14479  10.692   9.522   6.617 -0.0315  0.1203  0.1295
  999YOPC   C4B14480  10.528   9.263   6.851 -0.2739  0.3310  0.0848
 1000YOPC   NC314481  14.403   2.210   6.285 -0.3445 -0.3678 -0.3381
 1000YOPC   PO414482  14.808   2.196   6.551  0.0853  0.1520  0.0255
 1000YOPC   GL114483  14.777   1.983   6.967  0.4628 -0.2708  0.1503
 1000YOPC   GL214484  14.786   2.218   7.137  0.2070 -0.2755  0.1598
 1000YOPC   C1A14485  14.701   1.667   7.243  0.1893  0.2274  0.3817
 1000YOPC   D2A14486  14.913   1.341   7.473  0.1278  0.0263 -0.0716
 1000YOPC   C3A14487  15.335   1.479   7.557  0.1372 -0.0346 -0.1904
 1000YOPC   C4A14488  15.623   1.712   7.461  0.1979 -0.0256  0.0972
 1000YOPC   C1B14489  14.714   2.119   7.491 -0.1681  0.0167 -0.3527
 1000YOPC   C2B14490  14.361   1.893   7.699 -0.1465  0.0228 -0.1031
 1000YOPC   D3B14491  14.413   1.393   7.625 -0.0059 -0.0874 -0.0364
 1000YOPC   C4B14492  14.373   1.123   7.939  0.0161 -0.1911 -0.2296
 1001YOPC   NC314493   2.204   0.759   6.237  0.1641  0.0768 -0.4264
 1001YOPC   PO414494   2.648   0.517   6.200 -0.0522 -0.0952 -0.0379
 1001YOPC   GL114495   2.642   0.483   6.630 -0.2318  0.0916 -0.1063
 1001YOPC   GL214496   2.417   0.695   6.823  0.1628  0.0626  0.0838
 1001YOPC   C1A14497   2.821   0.434   7.112  0.4114  0.0575  0.2036
 1001YOPC   D2A14498   2.636   0.683   7.452 -0.0346 -0.2404  0.0378
 1001YOPC   C3A14499   2.486   0.718   7.862 -0.1974  0.3634  0.2505
 1001YOPC   C4A14500   2.244   0.976   8.187 -0.1132  0.1230 -0.0165
 1001YOPC   C1B14501   2.641   0.905   6.950 -0.1793  0.1606 -0.2511
 1001YOPC   C2B14502   2.644   1.147   7.331  0.2465 -0.3529 -0.2202
 1001YOPC   D3B14503   2.839   1.072   7.727 -0.3451 -0.1602 -0.0510
 1001YOPC   C4B14504   3.298   0.869   7.668 -0.0294 -0.1746 -0.1405
 1002YOPC   NC314505  12.276  17.386   5.930  0.0254  0.0473  0.0578
 1002YOPC   PO414506  12.658  17.054   5.966  0.1542 -0.1769 -0.0424
 1002YOPC   GL114507  12.651  17.102   6.345 -0.1267 -0.0436 -0.5448
 1002YOPC   GL214508  12.602  17.365   6.444  0.0824 -0.0464  0.1427
 1002YOPC   C1A14509  12.932  17.039   6.701 -0.0538 -0.0404 -0.0055
 1002YOPC   D2A14510  13.006  16.921   7.155  0.0244 -0.0589 -0.2423
 1002YOPC   C3A14511  12.740  16.733   7.387 -0.2716  0.4848  0.2031
 1002YOPC   C4A14512  12.347  16.397   7.426 -0.0673  0.2580  0.0074
 1002YOPC   C1B14513  12.790  17.481   6.799 -0.1077  0.1502 -0.3040
 1002YOPC   C2B14514  12.870  17.442   7.156  0.2039  0.2394  0.2488
 1002YOPC   D3B14515  12.656  17.225   7.392  0.4242  0.1801 -0.0213
 1002YOPC   C4B14516  12.675  17.187   7.853  0.1260 -0.0161  0.0963
 1003YOPC   NC314517   1.643  11.044   5.758 -0.0093 -0.0277 -0.0326
 1003YOPC   PO414518   1.241  10.853   5.893 -0.0036 -0.0633 -0.1822
 1003YOPC   GL114519   1.140  10.708   6.355 -0.0744  0.0764  0.2008
 1003YOPC   GL214520   0.964  10.934   6.478  0.1530 -0.2425  0.0848
 1003YOPC   C1A14521   1.177  10.378   6.704 -0.0839  0.1589 -0.3310
 1003YOPC   D2A14522   1.146  10.376   7.065 -0.0944  0.0862 -0.2667
 1003YOPC   C3A14523   1.509  10.220   7.103  0.2717 -0.0118 -0.0708
 1003YOPC   C4A14524   1.814  10.267   7.423  0.0255 -0.0193  0.0601
 1003YOPC   C1B14525   1.069  11.282   6.690  0.0905 -0.0668 -0.0254
 1003YOPC   C2B14526   0.884  11.669   6.979  0.1428 -0.1574 -0.1174
 1003YOPC   D3B14527   0.826  11.583   7.450 -0.0581  0.1165 -0.1532
 1003YOPC   C4B14528   1.174  11.456   7.771  0.1926 -0.1011 -0.0492
 1004YOPC   NC314529   1.325  13.631   5.738 -0.1940  0.0769  0.0127
 1004YOPC   PO414530   1.049  13.310   5.776 -0.0001  0.0345 -0.1239
 1004YOPC   GL114531   0.983  13.319   6.158 -0.2089 -0.2053 -0.1842
 1004YOPC   GL214532   1.069  13.159   6.407  0.1694 -0.0845  0.0245
 1004YOPC   C1A14533   1.017  13.593   6.552  0.3847 -0.0941 -0.0320
 1004YOPC   D2A14534   0.968  13.565   6.959 -0.2130 -0.2899 -0.2246
 1004YOPC   C3A14535   1.248  13.807   7.194  0.1846 -0.0145  0.1791
 1004YOPC   C4A14536   1.148  13.937   7.583 -0.1915 -0.3800 -0.0087
 1004YOPC   C1B14537   1.093  13.083   6.868  0.2004 -0.0255  0.2310
 1004YOPC   C2B14538   1.178  13.173   7.251  0.0465 -0.1135 -0.0334
 1004YOPC   D3B14539   1.512  12.825   7.267 -0.1750 -0.0147 -0.2744
 1004YOPC   C4B14540   1.906  12.815   7.504  0.3665 -0.2630 -0.1331
 1005YOPC   NC314541   6.313   5.426   5.322  0.0081 -0.2597 -0.0218
 1005YOPC   PO414542   6.061   5.760   5.528  0.3616 -0.2876  0.2337
 1005YOPC   GL114543   5.950   6.017   5.924 -0.0587  0.0079  0.1302
 1005YOPC   GL214544   6.283   6.225   6.003  0.1359  0.0637  0.1170
 1005YOPC   C1A14545   5.839   6.452   6.078  0.0128  0.5139 -0.2096
 1005YOPC   D2A14546   5.589   6.787   6.147 -0.2159 -0.1835 -0.1232
 1005YOPC   C3A14547   5.727   6.865   6.486  0.1839  0.3692  0.2092
 1005YOPC   C4A14548   5.926   6.706   6.935  0.0787 -0.0744 -0.0103
 1005YOPC   C1B14549   6.569   6.488   6.198  0.1408  0.1017 -0.1651
 1005YOPC   C2B14550   6.887   6.501   6.402  0.2281  0.0697 -0.1376
 1005YOPC   D3B14551   6.880   6.404   6.843  0.1285 -0.0806  0.0438
 1005YOPC   C4B14552   6.625   6.457   7.228  0.0184  0.0122 -0.3108
 1006YOPC   NC314553  12.025   8.267   6.069 -0.0334  0.0617 -0.0806
 1006YOPC   PO414554  11.791   7.964   6.030 -0.1491 -0.1570  0.1423
 1006YOPC   GL114555  11.806   7.998   6.456  0.0461 -0.3821  0.0728
 1006YOPC   GL214556  11.556   8.126   6.633  0.0466 -0.2589  0.2455
 1006YOPC   C1A14557  11.940   8.122   6.922  0.1387  0.0661  0.0232
 1006YOPC   D2A14558  12.026   8.120   7.321  0.0434 -0.1728  0.0172
 1006YOPC   C3A14559  11.912   8.081   7.604  0.0629  0.3452  0.2383
 1006YOPC   C4A14560  11.571   7.946   7.868  0.2029  0.1059  0.2711
 1006YOPC   C1B14561  11.334   7.824   6.861 -0.3792 -0.0500  0.0183
 1006YOPC   C2B14562  11.115   7.498   7.076 -0.1887  0.3055  0.0550
 1006YOPC   D3B14563  10.690   7.484   7.209  0.2582 -0.0364  0.1950
 1006YOPC   C4B14564  10.285   7.372   7.519  0.2775  0.0271 -0.0256
 1007YOPC   NC314565   7.782   9.324   5.518 -0.1357 -0.1241 -0.1415
 1007YOPC   PO414566   8.048   9.549   5.808  0.2431 -0.2581 -0.0395
 1007YOPC   GL114567   7.892   9.451   6.166 -0.0101  0.1289 -0.1343
 1007YOPC   GL214568   7.985   9.129   6.256  0.2185 -0.0008 -0.1874
 1007YOPC   C1A14569   8.065   9.563   6.565  0.1717 -0.2194 -0.0103
 1007YOPC   D2A14570   8.402   9.388   6.845  0.0843 -0.1612 -0.0295
 1007YOPC   C3A14571   8.775   9.432   6.662  0.2178 -0.0377 -0.0808
 1007YOPC   C4A14572   9.250   9.310   6.412  0.1425  0.2287  0.2103
 1007YOPC   C1B14573   7.853   9.157   6.689  0.0648 -0.1482 -0.0514
 1007YOPC   C2B14574   7.935   9.312   6.997 -0.3691 -0.0893 -0.0379
 1007YOPC   D3B14575   7.817   9.319   7.382  0.1312  0.3080  0.2096
 1007YOPC   C4B14576   7.676   9.022   7.697 -0.1519 -0.0756  0.0011
 1008YOPC   NC314577  14.812   1.608   6.259 -0.0469  0.4752  0.0055
 1008YOPC   PO414578  14.424   1.726   6.347 -0.0598  0.1829 -0.3316
 1008YOPC   GL114579  14.139   1.380   6.589 -0.1319  0.0128  0.2222
 1008YOPC   GL214580  14.309   0.985   6.683 -0.1212  0.0839  0.0255
 1008YOPC   C1A14581  13.951   1.293   6.947  0.0267 -0.5542  0.3740
 1008YOPC   D2A14582  13.659   1.321   7.200  0.0772 -0.0551 -0.2383
 1008YOPC   C3A14583  13.517   1.271   7.613  0.2390 -0.1907  0.1077
 1008YOPC   C4A14584  13.299   1.437   7.899 -0.0636 -0.1827 -0.2070
 1008YOPC   C1B14585  14.432   1.187   7.119 -0.1841 -0.0192  0.0703
 1008YOPC   C2B14586  14.622   0.927   7.513  0.0471  0.2668  0.1450
 1008YOPC   D3B14587  14.636   0.728   7.890  0.0049 -0.0470 -0.0165
 1008YOPC   C4B14588  14.769   0.446   8.180 -0.3097  0.1769 -0.0181
 1009YOPC   NC314589   9.985   1.035   5.566 -0.0359 -0.1239  0.0451
 1009YOPC   PO414590   9.777   0.692   5.604 -0.1274 -0.2557 -0.1091
 1009YOPC   GL114591   9.644   0.495   5.979  0.0490  0.2198  0.2019
 1009YOPC   GL214592   9.508   0.240   6.084  0.2391  0.0712 -0.1391
 1009YOPC   C1A14593   9.564   0.742   6.350  0.0520 -0.1241  0.0481
 1009YOPC   D2A14594   9.745   0.893   6.765 -0.0724 -0.1600  0.0343
 1009YOPC   C3A14595   9.661   0.942   7.208  0.0819 -0.1031 -0.2519
 1009YOPC   C4A14596   9.603   0.990   7.566  0.1716  0.0640 -0.2025
 1009YOPC   C1B14597   9.214   0.290   6.481 -0.1754 -0.0447  0.0234
 1009YOPC   C2B14598   8.816   0.474   6.553  0.0835  0.0085 -0.3484
 1009YOPC   D3B14599   8.714   0.718   6.825  0.3826  0.0401 -0.2756
 1009YOPC   C4B14600   8.831   1.153   6.935  0.0312 -0.3621 -0.0830
 1010YOPC   NC314601   0.014  10.354   6.106  0.3659  0.0124  0.0601
 1010YOPC   PO414602  -0.241  10.245   5.865  0.0570 -0.0443  0.2295
 1010YOPC   GL114603  -0.463  10.053   6.179 -0.0768  0.0529  0.3927
 1010YOPC   GL214604  -0.845   9.951   6.150  0.0722  0.0299 -0.3954
 1010YOPC   C1A14605  -0.648  10.095   6.578  0.1088  0.1146 -0.0539
 1010YOPC   D2A14606  -0.646  10.044   6.948  0.0829 -0.1038 -0.2313
 1010YOPC   C3A14607  -1.008   9.972   7.183 -0.0369  0.1900 -0.1629
 1010YOPC   C4A14608  -1.270   9.863   7.586  0.0146  0.0003  0.0590
 1010YOPC   C1B14609  -1.068   9.816   6.473  0.2984  0.0752 -0.0308
 1010YOPC   C2B14610  -1.123   9.514   6.870 -0.2048  0.1078  0.4645
 1010YOPC   D3B14611  -0.932   9.490   7.335  0.1097 -0.0081 -0.2175
 1010YOPC   C4B14612  -0.953   9.076   7.664  0.1288  0.1735  0.1414
 1011YOPC   NC314613  11.772  12.981   5.208  0.0975 -0.0608  0.1385
 1011YOPC   PO414614  12.128  12.733   5.396  0.2608  0.0102  0.1215
 1011YOPC   GL114615  12.064  12.821   5.754  0.2591 -0.2295 -0.0620
 1011YOPC   GL214616  12.257  12.680   6.038 -0.1145 -0.0596 -0.0218
 1011YOPC   C1A14617  12.022  13.129   6.107  0.2036 -0.0930  0.1235
 1011YOPC   D2A14618  11.947  13.411   6.455 -0.1289 -0.2216  0.2111
 1011YOPC   C3A14619  12.001  13.464   6.934  0.1046 -0.2042  0.0190
 1011YOPC   C4A14620  11.936  13.257   7.300  0.1373  0.1512 -0.0516
 1011YOPC   C1B14621  12.095  12.661   6.398 -0.1136 -0.2211  0.2880
 1011YOPC   C2B14622  12.097  12.468   6.713 -0.0355 -0.1215  0.1803
 1011YOPC   D3B14623  12.365  12.523   6.918  0.1820 -0.1497  0.0776
 1011YOPC   C4B14624  12.743  12.814   7.030  0.0891  0.2317 -0.2277
 1012YOPC   NC314625   0.561  14.145   5.991 -0.1832  0.2025 -0.4141
 1012YOPC   PO414626   1.012  14.259   6.099  0.0839 -0.3073  0.3341
 1012YOPC   GL114627   0.773  14.018   6.470 -0.1378 -0.0884 -0.0000
 1012YOPC   GL214628   0.535  14.209   6.477 -0.0651 -0.1733  0.1640
 1012YOPC   C1A14629   0.489  13.773   6.708  0.1879 -0.2658  0.0867
 1012YOPC   D2A14630   0.433  13.717   7.176  0.2666 -0.0102 -0.0798
 1012YOPC   C3A14631   0.716  13.716   7.575 -0.3654 -0.6115 -0.1071
 1012YOPC   C4A14632   0.812  13.646   8.009 -0.1329 -0.1522  0.0626
 1012YOPC   C1B14633   0.787  14.546   6.529 -0.2037 -0.1825 -0.0461
 1012YOPC   C2B14634   1.024  14.665   6.841  0.0070  0.1998 -0.0903
 1012YOPC   D3B14635   1.367  14.838   6.779  0.1087  0.2248 -0.5010
 1012YOPC   C4B14636   1.941  14.886   6.876 -0.3762 -0.0250  0.1832
 1013YOPC   NC314637   2.551  10.908   5.856 -0.1540  0.0509  0.3582
 1013YOPC   PO414638   2.446  11.352   6.004 -0.0839 -0.1794  0.0210
 1013YOPC   GL114639   2.437  11.527   6.338 -0.1798 -0.2566  0.1045
 1013YOPC   GL214640   2.677  11.346   6.518 -0.4137 -0.0389  0.3760
 1013YOPC   C1A14641   2.340  11.651   6.787 -0.0015  0.2211  0.1844
 1013YOPC   D2A14642   2.363  11.776   7.283  0.1260  0.1339  0.4621
 1013YOPC   C3A14643   2.028  12.067   7.360  0.0367 -0.5658  0.0557
 1013YOPC   C4A14644   1.955  12.395   7.695 -0.0824  0.1296 -0.0885
 1013YOPC   C1B14645   2.563  11.269   6.932  0.1948  0.1033  0.2501
 1013YOPC   C2B14646   2.385  11.318   7.428  0.0879 -0.0116 -0.0861
 1013YOPC   D3B14647   2.522  10.980   7.688  0.0207 -0.0883 -0.2004
 1013YOPC   C4B14648   2.737  10.983   8.080 -0.1766  0.0166 -0.2105
 1014YOPC   NC314649   6.778  10.145   5.783  0.0467 -0.1392  0.0974
 1014YOPC   PO414650   6.572   9.832   5.699 -0.3568 -0.2673  0.2142
 1014YOPC   GL114651   6.898   9.746   6.039 -0.1078  0.2322  0.1727
 1014YOPC   GL214652   7.080   9.517   5.893  0.2299  0.0724  0.1727
 1014YOPC   C1A14653   7.086   9.765   6.496  0.0806 -0.1672 -0.2893
 1014YOPC   D2A14654   7.033   9.832   6.912 -0.3025 -0.3139  0.2684
 1014YOPC   C3A14655   6.754   9.924   7.192 -0.2174 -0.2331 -0.0084
 1014YOPC   C4A14656   6.485  10.057   7.584 -0.1569 -0.2266 -0.3403
 1014YOPC   C1B14657   6.995   9.307   6.275  0.1301  0.2607  0.0256
 1014YOPC   C2B14658   6.470   9.350   6.302 -0.0288 -0.0264  0.0030
 1014YOPC   D3B14659   6.142   9.517   6.566 -0.2514  0.0995 -0.0662
 1014YOPC   C4B14660   5.925   9.787   6.838 -0.1378  0.2847  0.1909
 1015YOPC   NC314661   9.522  13.296   5.734 -0.1509 -0.0702 -0.0151
 1015YOPC   PO414662   9.304  13.657   5.876  0.0254  0.1182  0.1461
 1015YOPC   GL114663   9.505  13.778   6.242  0.0663  0.1913 -0.0748
 1015YOPC   GL214664   9.767  13.936   6.304 -0.1697  0.1992  0.2223
 1015YOPC   C1A14665   9.783  13.576   6.625 -0.1485 -0.1723  0.0533
 1015YOPC   D2A14666   9.841  13.294   6.990  0.0862  0.3495  0.1365
 1015YOPC   C3A14667  10.020  13.515   7.327 -0.2177  0.0224  0.0230
 1015YOPC   C4A14668   9.982  13.769   7.691 -0.1576 -0.1238  0.0810
 1015YOPC   C1B14669   9.985  14.202   6.682 -0.0294  0.0271  0.2436
 1015YOPC   C2B14670  10.059  14.584   6.896 -0.0012  0.3184 -0.0182
 1015YOPC   D3B14671   9.880  14.753   7.236 -0.1961 -0.3485  0.1642
 1015YOPC   C4B14672   9.603  14.666   7.464 -0.3780  0.1450  0.3885
 1016YOPC   NC314673  17.356   8.098   6.086  0.0601  0.1722  0.0218
 1016YOPC   PO414674  17.346   7.706   6.033 -0.0741  0.2509  0.3561
 1016YOPC   GL114675  17.483   7.806   6.490 -0.0159  0.0113  0.1169
 1016YOPC   GL214676  17.327   8.060   6.571 -0.0748 -0.2007  0.0550
 1016YOPC   C1A14677  17.623   7.906   6.911  0.0962 -0.0962  0.3527
 1016YOPC   D2A14678  17.594   7.670   7.311 -0.0425  0.2132  0.0066
 1016YOPC   C3A14679  17.973   7.593   7.578  0.0067 -0.2581 -0.1911
 1016YOPC   C4A14680  18.132   7.525   8.029 -0.0866 -0.0258  0.1145
 1016YOPC   C1B14681  17.388   8.543   6.520 -0.0966  0.2164  0.1158
 1016YOPC   C2B14682  17.375   8.800   6.863 -0.3568  0.1363  0.2830
 1016YOPC   D3B14683  17.324   8.699   7.257 -0.2959 -0.0477 -0.3442
 1016YOPC   C4B14684  17.803   8.676   7.493 -0.1774 -0.1631  0.0008
 1017YOPC   NC314685   7.702   3.262   5.765 -0.1884  0.2383 -0.2302
 1017YOPC   PO414686   7.651   3.748   5.653  0.1531  0.2399 -0.3734
 1017YOPC   GL114687   7.657   3.792   6.071  0.1959 -0.1884  0.2259
 1017YOPC   GL214688   7.414   3.597   6.237  0.0510 -0.0362  0.4393
 1017YOPC   C1A14689   7.938   3.718   6.397 -0.0956 -0.1280  0.0492
 1017YOPC   D2A14690   8.046   3.742   6.899  0.0853  0.1449 -0.1110
 1017YOPC   C3A14691   7.725   3.843   7.244  0.0530 -0.4036  0.1287
 1017YOPC   C4A14692   7.592   3.921   7.551 -0.1051  0.0075 -0.2178
 1017YOPC   C1B14693   7.524   3.750   6.599 -0.0253 -0.1714  0.1647
 1017YOPC   C2B14694   7.294   3.856   6.929  0.1731  0.1308  0.0102
 1017YOPC   D3B14695   7.143   3.743   7.342 -0.0435  0.2818  0.3400
 1017YOPC   C4B14696   7.078   3.745   7.760 -0.1275  0.0618  0.1821
 1018YOPC   NC314697   5.225   0.672   5.224  0.0865  0.1016  0.0236
 1018YOPC   PO414698   5.266   0.789   5.696  0.3659 -0.0954  0.1179
 1018YOPC   GL114699   5.245   0.895   6.178 -0.1240 -0.0422 -0.2013
 1018YOPC   GL214700   5.197   1.230   6.189  0.2088  0.0219 -0.2415
 1018YOPC   C1A14701   5.058   0.701   6.543 -0.2462 -0.0881 -0.0965
 1018YOPC   D2A14702   4.650   0.445   6.563  0.1143  0.0198 -0.3896
 1018YOPC   C3A14703   4.272   0.314   6.589 -0.2600  0.2331  0.0601
 1018YOPC   C4A14704   3.914  -0.012   6.735 -0.0095  0.1556 -0.2837
 1018YOPC   C1B14705   5.408   1.081   6.584 -0.3560  0.3362 -0.2390
 1018YOPC   C2B14706   5.421   1.085   7.044 -0.1975  0.1186 -0.2119
 1018YOPC   D3B14707   5.401   0.699   7.056 -0.3015  0.0061  0.0301
 1018YOPC   C4B14708   5.168   0.674   7.453  0.2110 -0.1159 -0.1407
 1019YOPC   NC314709  16.978   7.695   6.361  0.2419 -0.0197 -0.2268
 1019YOPC   PO414710  16.902   7.914   6.020 -0.0349  0.0898  0.2504
 1019YOPC   GL114711  16.879   8.201   6.291 -0.0867  0.1642  0.3202
 1019YOPC   GL214712  16.568   8.003   6.391  0.2189 -0.2647 -0.1796
 1019YOPC   C1A14713  16.879   8.370   6.650 -0.1416 -0.1066  0.0113
 1019YOPC   D2A14714  16.933   8.515   6.928  0.1889  0.1029  0.1663
 1019YOPC   C3A14715  16.910   8.348   7.335 -0.2380 -0.1451 -0.2563
 1019YOPC   C4A14716  16.737   8.079   7.647 -0.0977  0.1382 -0.0447
 1019YOPC   C1B14717  16.557   8.055   6.799  0.3717 -0.2261 -0.0247
 1019YOPC   C2B14718  16.451   8.047   7.227  0.2425 -0.0821 -0.1039
 1019YOPC   D3B14719  16.218   7.742   7.247 -0.2934 -0.0810  0.1132
 1019YOPC   C4B14720  16.212   7.286   7.567  0.3297  0.1115 -0.5182
 1020YOPC   NC314721   4.942   2.628   5.824  0.0469 -0.0719 -0.1597
 1020YOPC   PO414722   5.054   3.006   5.804  0.0707  0.1356 -0.0788
 1020YOPC   GL114723   4.964   2.983   6.159 -0.0427 -0.1038 -0.1621
 1020YOPC   GL214724   4.933   2.798   6.362  0.1061 -0.1149  0.1055
 1020YOPC   C1A14725   4.935   3.268   6.451 -0.3904 -0.0300 -0.3182
 1020YOPC   D2A14726   5.093   3.605   6.640  0.1987 -0.0575  0.0957
 1020YOPC   C3A14727   5.452   3.556   6.836  0.1542  0.1569 -0.0324
 1020YOPC   C4A14728   5.758   3.780   6.832  0.0500  0.0643  0.2045
 1020YOPC   C1B14729   4.803   2.790   6.888  0.1991 -0.1254  0.2818
 1020YOPC   C2B14730   4.590   2.676   7.163  0.1458 -0.2737  0.2046
 1020YOPC   D3B14731   4.543   2.989   7.417 -0.0520 -0.0525 -0.0628
 1020YOPC   C4B14732   4.469   3.471   7.407 -0.1739  0.0598 -0.1840
 1021YOPC   NC314733   4.661  10.305   5.824 -0.0966  0.4119  0.0082
 1021YOPC   PO414734   4.446   9.885   5.696  0.2564  0.1676  0.2769
 1021YOPC   GL114735   4.395   9.847   6.170  0.0289  0.0546 -0.0316
 1021YOPC   GL214736   4.423   9.517   6.331 -0.2153  0.1370  0.0454
 1021YOPC   C1A14737   4.282   9.892   6.683  0.1833 -0.0506  0.0246
 1021YOPC   D2A14738   3.993   9.897   7.001  0.2736 -0.1193  0.0028
 1021YOPC   C3A14739   4.108  10.045   7.391  0.2233 -0.0608 -0.0845
 1021YOPC   C4A14740   4.393   9.984   7.702  0.2086  0.0866  0.2679
 1021YOPC   C1B14741   4.331   9.329   6.768  0.1608  0.0226  0.0307
 1021YOPC   C2B14742   4.239   9.451   7.144  0.0685 -0.1351 -0.0920
 1021YOPC   D3B14743   3.920   9.284   7.363 -0.2215  0.3767 -0.0753
 1021YOPC   C4B14744   3.835   9.218   7.852 -0.0673  0.0870 -0.0880
 1022YOPC   NC314745   8.499  10.040   5.074  0.1631 -0.3233 -0.0702
 1022YOPC   PO414746   8.417  10.043   5.537 -0.0385  0.3751  0.2414
 1022YOPC   GL114747   8.375   9.974   6.039  0.0112  0.1837  0.0718
 1022YOPC   GL214748   8.073   9.881   6.205  0.1209  0.4208 -0.2110
 1022YOPC   C1A14749   8.475   9.879   6.494 -0.0808 -0.2314 -0.0580
 1022YOPC   D2A14750   8.668   9.855   6.905 -0.1934 -0.2570  0.0624
 1022YOPC   C3A14751   8.800   9.555   7.192  0.0124 -0.0542 -0.1806
 1022YOPC   C4A14752   8.772   9.599   7.632  0.0470  0.1260  0.0125
 1022YOPC   C1B14753   8.037  10.067   6.723  0.1549 -0.0686  0.2392
 1022YOPC   C2B14754   8.288  10.225   7.085  0.1500 -0.4975 -0.0517
 1022YOPC   D3B14755   8.569  10.118   7.356 -0.2975 -0.0689  0.1089
 1022YOPC   C4B14756   8.356   9.890   7.661 -0.1129  0.1211 -0.3074
 1023YOPC   NC314757  14.922  11.989   5.575 -0.4525  0.0032  0.0123
 1023YOPC   PO414758  14.697  12.293   5.854 -0.2850  0.1859 -0.0494
 1023YOPC   GL114759  14.713  12.255   6.280  0.2400 -0.1261 -0.1284
 1023YOPC   GL214760  14.457  12.224   6.428  0.0904  0.0387 -0.0358
 1023YOPC   C1A14761  14.737  12.590   6.620  0.1965  0.0445  0.1420
 1023YOPC   D2A14762  14.578  12.636   7.081  0.0314  0.4463 -0.0184
 1023YOPC   C3A14763  14.364  12.978   7.054  0.1232  0.2768  0.0072
 1023YOPC   C4A14764  14.200  13.271   6.797  0.0556 -0.0918 -0.0607
 1023YOPC   C1B14765  14.439  12.101   6.847  0.1328  0.0574 -0.0554
 1023YOPC   C2B14766  14.480  12.213   7.343 -0.1456 -0.1178 -0.2810
 1023YOPC   D3B14767  14.485  12.479   7.614 -0.4026 -0.1239 -0.4265
 1023YOPC   C4B14768  14.333  12.853   7.588  0.1092 -0.1569  0.1136
 1024YOPC   NC314769   5.619   4.579   5.379 -0.1136  0.0074  0.2898
 1024YOPC   PO414770   5.880   4.357   5.761  0.0863  0.0756 -0.0545
 1024YOPC   GL114771   5.769   4.424   6.191  0.2132 -0.0044  0.0554
 1024YOPC   GL214772   6.014   4.204   6.227  0.1870 -0.1974 -0.1323
 1024YOPC   C1A14773   5.705   4.679   6.499 -0.1830 -0.1137 -0.0695
 1024YOPC   D2A14774   5.613   5.051   6.720 -0.0115  0.1742 -0.3011
 1024YOPC   C3A14775   5.160   5.015   6.993  0.0942  0.1992 -0.0235
 1024YOPC   C4A14776   5.169   5.183   7.451  0.0500 -0.1332  0.0296
 1024YOPC   C1B14777   6.114   4.058   6.617  0.3636 -0.0004 -0.1705
 1024YOPC   C2B14778   6.287   4.132   6.995  0.3245  0.1463  0.2514
 1024YOPC   D3B14779   6.386   3.892   7.333  0.1478  0.1422  0.2555
 1024YOPC   C4B14780   6.498   3.813   7.696  0.1517 -0.0641 -0.1003
 1025YOPC   NC314781   0.405   2.723   6.097 -0.2931  0.4306 -0.1533
 1025YOPC   PO414782   0.861   2.676   6.128  0.1309  0.0201 -0.0383
 1025YOPC   GL114783   0.763   2.975   6.382 -0.2221  0.1187 -0.3420
 1025YOPC   GL214784   0.497   2.827   6.598 -0.0464 -0.2282 -0.1148
 1025YOPC   C1A14785   0.942   3.157   6.712 -0.1309 -0.4249  0.1420
 1025YOPC   D2A14786   0.760   3.363   6.985 -0.0309  0.2080 -0.2175
 1025YOPC   C3A14787   0.792   3.095   7.382  0.1727  0.1584  0.2295
 1025YOPC   C4A14788   0.643   3.083   7.743  0.1091  0.3122 -0.0306
 1025YOPC   C1B14789   0.332   3.113   6.820 -0.1007 -0.0427  0.1333
 1025YOPC   C2B14790   0.101   3.418   6.879 -0.1845 -0.0488  0.2611
 1025YOPC   D3B14791   0.015   3.749   6.726 -0.2619  0.0426  0.0114
 1025YOPC   C4B14792  -0.297   4.015   6.571  0.0665 -0.0426  0.0115
 1026YOPC   NC314793   5.448   6.914   5.689  0.1791 -0.0737 -0.1811
 1026YOPC   PO414794   5.808   7.177   5.905  0.0074  0.0017 -0.2726
 1026YOPC   GL114795   6.080   7.311   6.304  0.1416  0.0988  0.0766
 1026YOPC   GL214796   6.319   7.007   6.173 -0.1847 -0.0390 -0.1439
 1026YOPC   C1A14797   6.203   7.242   6.696  0.2007 -0.2457 -0.1369
 1026YOPC   D2A14798   6.309   7.456   7.073 -0.0936 -0.0488  0.0723
 1026YOPC   C3A14799   6.559   7.822   7.198 -0.0500 -0.1282 -0.0341
 1026YOPC   C4A14800   6.417   8.159   7.568 -0.2431  0.0325 -0.0938
 1026YOPC   C1B14801   6.213   6.607   6.489  0.4133  0.0099 -0.0956
 1026YOPC   C2B14802   6.344   6.371   6.823  0.1668 -0.0869  0.0038
 1026YOPC   D3B14803   6.181   6.353   7.243  0.0420 -0.1044 -0.0407
 1026YOPC   C4B14804   6.241   6.468   7.626  0.0470  0.2202 -0.0508
 1027YOPC   NC314805   7.635  10.293   5.158 -0.0599  0.0730 -0.1270
 1027YOPC   PO414806   7.326  10.342   5.473  0.3911  0.0935 -0.3011
 1027YOPC   GL114807   7.500  10.304   5.851 -0.0281 -0.1091  0.2419
 1027YOPC   GL214808   7.238  10.143   6.101 -0.3924  0.0158  0.0353
 1027YOPC   C1A14809   7.783  10.295   6.318 -0.1408  0.1100  0.0276
 1027YOPC   D2A14810   8.259  10.371   6.349 -0.1514  0.0897  0.1187
 1027YOPC   C3A14811   8.588  10.499   6.762  0.0621 -0.1833  0.2902
 1027YOPC   C4A14812   8.610  10.603   7.251 -0.0314 -0.0065  0.0731
 1027YOPC   C1B14813   7.509   9.768   6.305 -0.1436  0.0947 -0.2952
 1027YOPC   C2B14814   7.567   9.970   6.731 -0.3318 -0.2537  0.0923
 1027YOPC   D3B14815   7.438   9.731   7.165 -0.0279 -0.1024  0.1925
 1027YOPC   C4B14816   7.107   9.787   7.470  0.1648 -0.0475  0.0449
 1028YOPC   NC314817  12.010   0.073   6.083 -0.2593 -0.2224  0.0216
 1028YOPC   PO414818  12.251   0.508   6.031 -0.2329 -0.1460 -0.1745
 1028YOPC   GL114819  12.358   0.346   6.369 -0.0844 -0.0776  0.0756
 1028YOPC   GL214820  12.164   0.393   6.652  0.3787  0.0130 -0.0601
 1028YOPC   C1A14821  12.423  -0.010   6.669  0.0758  0.0154  0.1397
 1028YOPC   D2A14822  12.221  -0.340   6.917  0.0623 -0.0168  0.0629
 1028YOPC   C3A14823  12.149  -0.479   7.326  0.0735 -0.0388 -0.2361
 1028YOPC   C4A14824  11.911  -0.623   7.716  0.1168  0.1453  0.0212
 1028YOPC   C1B14825  12.207   0.255   7.100  0.1711  0.0298 -0.1142
 1028YOPC   C2B14826  12.217   0.210   7.490 -0.2341 -0.1434  0.0407
 1028YOPC   D3B14827  11.833   0.467   7.748  0.1071 -0.0380 -0.1083
 1028YOPC   C4B14828  11.739   0.438   8.219  0.0831 -0.0448 -0.2796
 1029YOPC   NC314829  14.968  18.215   5.726 -0.0041 -0.1262  0.2069
 1029YOPC   PO414830  15.365  18.426   5.803  0.0068 -0.0344 -0.1562
 1029YOPC   GL114831  15.207  18.249   6.273  0.0790 -0.0130 -0.0508
 1029YOPC   GL214832  15.229  17.905   6.309 -0.1883 -0.1805 -0.2591
 1029YOPC   C1A14833  15.359  18.171   6.702  0.2309 -0.1397  0.3594
 1029YOPC   D2A14834  15.470  18.416   7.006  0.2583  0.0996  0.1412
 1029YOPC   C3A14835  15.659  18.799   7.155 -0.0725 -0.0173  0.0058
 1029YOPC   C4A14836  15.848  19.184   6.982  0.1524  0.0135  0.1574
 1029YOPC   C1B14837  15.528  17.666   6.659  0.3150 -0.1220 -0.2321
 1029YOPC   C2B14838  15.571  17.442   7.042 -0.4601 -0.0021 -0.1406
 1029YOPC   D3B14839  15.914  17.135   7.243 -0.2669  0.0708  0.1332
 1029YOPC   C4B14840  16.123  16.911   7.619 -0.1163 -0.0367 -0.0337
 1030YOPC   NC314841  12.970  15.728   5.965  0.3225  0.4449  0.0695
 1030YOPC   PO414842  12.863  15.292   5.786  0.0964  0.1568 -0.0428
 1030YOPC   GL114843  12.886  15.345   6.221  0.0772  0.3593  0.1081
 1030YOPC   GL214844  13.160  15.429   6.390  0.0867 -0.2186 -0.0840
 1030YOPC   C1A14845  12.614  15.623   6.566 -0.0936  0.4747  0.2606
 1030YOPC   D2A14846  12.240  15.806   6.836 -0.3102 -0.1112 -0.3943
 1030YOPC   C3A14847  12.196  15.827   7.386 -0.1882  0.2618 -0.3152
 1030YOPC   C4A14848  11.912  16.033   7.539 -0.2020 -0.0896  0.1488
 1030YOPC   C1B14849  13.040  15.537   6.857 -0.1161 -0.0263  0.0401
 1030YOPC   C2B14850  13.017  15.619   7.285 -0.0893 -0.0297 -0.1088
 1030YOPC   D3B14851  12.678  15.653   7.603  0.0925 -0.0841  0.1621
 1030YOPC   C4B14852  12.347  15.479   7.931 -0.3025  0.1726  0.4560
 1031YOPC   NC314853  18.371  14.526   5.489 -0.2091 -0.1765  0.0920
 1031YOPC   PO414854  18.654  14.678   5.895 -0.2490  0.0598  0.2885
 1031YOPC   GL114855  18.768  14.725   6.294  0.0409 -0.3261 -0.1481
 1031YOPC   GL214856  18.636  15.046   6.226 -0.2646 -0.5427 -0.0060
 1031YOPC   C1A14857  18.809  14.841   6.713 -0.0306  0.1433  0.0976
 1031YOPC   D2A14858  18.604  15.025   7.012 -0.2244 -0.1260  0.2402
 1031YOPC   C3A14859  18.782  15.207   7.438 -0.0338 -0.3062  0.0369
 1031YOPC   C4A14860  18.692  15.540   7.887  0.3326 -0.1635 -0.3623
 1031YOPC   C1B14861  18.365  14.905   6.475 -0.1592 -0.1024  0.0202
 1031YOPC   C2B14862  18.271  14.666   6.910  0.0183  0.1108 -0.1762
 1031YOPC   D3B14863  18.381  14.841   7.419 -0.1512  0.0019  0.0370
 1031YOPC   C4B14864  18.536  15.069   7.813 -0.0433 -0.1643  0.3016
 1032YOPC   NC314865   1.165  16.390   5.880 -0.0558  0.3399  0.1269
 1032YOPC   PO414866   0.738  16.273   5.905 -0.0648 -0.0366  0.2319
 1032YOPC   GL114867   0.402  16.248   6.199 -0.0986  0.1782 -0.3096
 1032YOPC   GL214868   0.291  16.514   6.186  0.3815  0.0876  0.1230
 1032YOPC   C1A14869   0.243  16.136   6.555 -0.1252  0.0567 -0.1052
 1032YOPC   D2A14870   0.202  15.957   6.904  0.1100  0.0453  0.2292
 1032YOPC   C3A14871  -0.071  15.737   7.123  0.4474 -0.0482  0.0981
 1032YOPC   C4A14872  -0.510  15.702   7.236  0.1380  0.0650 -0.0718
 1032YOPC   C1B14873   0.165  16.644   6.636 -0.2859 -0.2840  0.2104
 1032YOPC   C2B14874   0.113  16.516   7.068  0.2178 -0.0082 -0.1240
 1032YOPC   D3B14875  -0.177  16.238   7.208  0.0097  0.1610  0.3872
 1032YOPC   C4B14876  -0.261  15.991   7.630 -0.2181  0.4147  0.1967
 1033YOPC   NC314877   6.899   7.214   5.352 -0.2471 -0.1645 -0.0396
 1033YOPC   PO414878   6.728   7.080   5.761  0.3016 -0.3678 -0.3569
 1033YOPC   GL114879   6.894   7.034   6.144 -0.2434 -0.0218  0.1040
 1033YOPC   GL214880   7.049   7.033   6.326 -0.1808 -0.0677  0.1681
 1033YOPC   C1A14881   6.601   6.876   6.635  0.1945 -0.2102  0.0855
 1033YOPC   D2A14882   6.498   6.913   7.063  0.0178 -0.5338  0.1488
 1033YOPC   C3A14883   6.177   6.930   7.281  0.0345 -0.4091  0.0767
 1033YOPC   C4A14884   5.814   6.641   7.438  0.0098  0.0148  0.3659
 1033YOPC   C1B14885   7.104   6.893   6.743 -0.0385 -0.0660 -0.4345
 1033YOPC   C2B14886   7.063   6.725   7.134  0.3922  0.1020 -0.2197
 1033YOPC   D3B14887   6.800   6.784   7.548  0.1681  0.1040 -0.4513
 1033YOPC   C4B14888   6.539   7.043   7.642 -0.0608 -0.4141  0.0312
 1034YOPC   NC314889   3.630  13.403   5.650  0.0386  0.0269  0.2258
 1034YOPC   PO414890   3.235  13.298   5.807 -0.1802  0.0015 -0.4030
 1034YOPC   GL114891   3.423  13.087   6.076 -0.3148  0.1189  0.0983
 1034YOPC   GL214892   3.202  12.802   6.086 -0.1882 -0.0493  0.1257
 1034YOPC   C1A14893   3.509  13.146   6.518 -0.0213 -0.0182 -0.0648
 1034YOPC   D2A14894   3.415  13.188   6.975 -0.5309 -0.1762  0.2911
 1034YOPC   C3A14895   3.031  13.246   7.146 -0.3201 -0.2004  0.0665
 1034YOPC   C4A14896   2.715  12.983   7.396 -0.1447 -0.0385  0.2769
 1034YOPC   C1B14897   2.923  12.945   6.349  0.0569  0.1698 -0.1341
 1034YOPC   C2B14898   2.978  13.406   6.562 -0.2306 -0.0496 -0.3138
 1034YOPC   D3B14899   2.711  13.589   6.863  0.0162  0.0058 -0.3888
 1034YOPC   C4B14900   2.614  13.556   7.274 -0.0261  0.1355 -0.3133
 1035YOPC   NC314901   5.433  16.170   5.938 -0.3309  0.0387  0.0232
 1035YOPC   PO414902   5.853  16.072   5.734  0.2166  0.3179  0.0276
 1035YOPC   GL114903   5.822  16.035   6.264 -0.1199 -0.2651 -0.0862
 1035YOPC   GL214904   5.568  15.911   6.389  0.1239 -0.1277  0.0536
 1035YOPC   C1A14905   5.777  16.267   6.653 -0.2257 -0.0737 -0.0827
 1035YOPC   D2A14906   5.986  16.399   6.937 -0.0733 -0.1752 -0.1919
 1035YOPC   C3A14907   6.262  16.173   7.129  0.2296 -0.0367 -0.4493
 1035YOPC   C4A14908   6.462  16.206   7.544 -0.1245 -0.2589  0.0335
 1035YOPC   C1B14909   5.456  15.882   6.880 -0.1001  0.0325  0.2412
 1035YOPC   C2B14910   5.254  15.962   7.293 -0.0028 -0.1590  0.0700
 1035YOPC   D3B14911   5.526  15.886   7.658 -0.0189 -0.1874  0.1381
 1035YOPC   C4B14912   5.791  16.070   7.953  0.1104  0.0379 -0.0707
 1036YOPC   NC314913  15.113  11.068   5.746 -0.1708  0.1372  0.3473
 1036YOPC   PO414914  14.884  10.736   5.755  0.0031  0.0230 -0.1409
 1036YOPC   GL114915  14.926  10.489   6.111  0.2532 -0.2508 -0.2268
 1036YOPC   GL214916  14.677  10.592   6.366  0.2009 -0.0576 -0.1597
 1036YOPC   C1A14917  15.081  10.089   6.260 -0.0391  0.0929 -0.0382
 1036YOPC   D2A14918  14.970   9.752   6.530 -0.0884 -0.0215  0.0505
 1036YOPC   C3A14919  15.044   9.820   6.942  0.1788  0.0357 -0.1908
 1036YOPC   C4A14920  15.202   9.972   7.313 -0.0463  0.2189 -0.1544
 1036YOPC   C1B14921  14.812  10.238   6.690 -0.1629  0.0953  0.5838
 1036YOPC   C2B14922  14.573   9.986   6.875 -0.2271  0.0395 -0.1405
 1036YOPC   D3B14923  14.647   9.827   7.234 -0.0007  0.1063 -0.0265
 1036YOPC   C4B14924  14.945   9.483   7.318  0.0085 -0.0431 -0.1135
 1037YOPC   NC314925  14.825   4.328   5.997 -0.0142  0.2432 -0.1180
 1037YOPC   PO414926  14.748   4.637   5.782 -0.4503 -0.1652  0.3013
 1037YOPC   GL114927  14.555   4.714   6.356 -0.1510  0.1940  0.0017
 1037YOPC   GL214928  14.276   4.686   6.525 -0.0391  0.1703 -0.0541
 1037YOPC   C1A14929  14.755   4.758   6.734  0.0262 -0.2076  0.0577
 1037YOPC   D2A14930  14.721   4.820   7.134  0.0071  0.0624  0.0705
 1037YOPC   C3A14931  15.045   4.644   7.434 -0.0493 -0.2016  0.0663
 1037YOPC   C4A14932  15.224   4.742   7.755  0.1477  0.2689  0.1997
 1037YOPC   C1B14933  14.203   4.760   6.907  0.1497 -0.3055  0.1775
 1037YOPC   C2B14934  14.231   4.912   7.327  0.3403  0.0116 -0.1534
 1037YOPC   D3B14935  14.027   4.558   7.640 -0.2210 -0.0633  0.1188
 1037YOPC   C4B14936  14.091   4.253   7.973 -0.2696 -0.1622 -0.0170
 1038YOPC   NC314937  12.592   5.068   5.384  0.2526  0.0071  0.1692
 1038YOPC   PO414938  12.157   4.900   5.486  0.2683 -0.0375 -0.0345
 1038YOPC   GL114939  12.196   5.002   5.936 -0.4512  0.0543  0.0924
 1038YOPC   GL214940  12.234   5.232   6.109 -0.4004  0.0318 -0.0204
 1038YOPC   C1A14941  12.186   4.827   6.355  0.3473  0.2562 -0.4482
 1038YOPC   D2A14942  12.011   4.920   6.712  0.0991  0.2158  0.1432
 1038YOPC   C3A14943  12.149   4.915   7.052  0.1318  0.1006  0.1198
 1038YOPC   C4A14944  12.449   5.158   7.324 -0.1950  0.1895  0.0951
 1038YOPC   C1B14945  12.500   5.314   6.383 -0.2408  0.3388 -0.1003
 1038YOPC   C2B14946  12.558   5.063   6.787 -0.0788  0.1683 -0.2083
 1038YOPC   D3B14947  12.919   5.264   7.063  0.2911  0.2871 -0.1242
 1038YOPC   C4B14948  12.872   5.340   7.520 -0.2389  0.0748 -0.0824
 1039YOPC   NC314949   1.441  14.571   5.856 -0.3325 -0.3944  0.1990
 1039YOPC   PO414950   1.566  15.043   5.746 -0.1101  0.1510  0.1061
 1039YOPC   GL114951   1.779  15.201   6.086 -0.1024  0.1522  0.0890
 1039YOPC   GL214952   2.114  15.135   6.102 -0.0527 -0.1390 -0.2008
 1039YOPC   C1A14953   1.605  15.187   6.499  0.0420  0.1837  0.1571
 1039YOPC   D2A14954   1.565  15.238   6.971  0.0057  0.0405  0.1663
 1039YOPC   C3A14955   1.209  15.095   7.258 -0.3391  0.2525  0.0829
 1039YOPC   C4A14956   1.198  14.930   7.696 -0.0127  0.2826 -0.2179
 1039YOPC   C1B14957   2.124  14.772   6.345  0.0552 -0.1921  0.2051
 1039YOPC   C2B14958   2.502  14.643   6.593 -0.1538 -0.1995  0.2457
 1039YOPC   D3B14959   2.471  14.530   7.068  0.4573  0.1010  0.0611
 1039YOPC   C4B14960   2.368  14.114   7.259 -0.1506  0.0368  0.5045
 1040YOPC   NC314961  14.904  17.503   6.283 -0.0932 -0.1079  0.0769
 1040YOPC   PO414962  15.260  17.234   6.177 -0.1994  0.0981  0.1202
 1040YOPC   GL114963  14.965  17.128   6.631  0.0703  0.1813 -0.1949
 1040YOPC   GL214964  14.718  17.487   6.764 -0.3250 -0.1118 -0.4943
 1040YOPC   C1A14965  15.104  17.270   7.063 -0.0720 -0.1998 -0.0395
 1040YOPC   D2A14966  15.187  17.450   7.326  0.0325 -0.1212 -0.1595
 1040YOPC   C3A14967  15.483  17.262   7.546  0.2475  0.2335 -0.1136
 1040YOPC   C4A14968  15.842  17.287   7.777  0.0072 -0.1120 -0.0265
 1040YOPC   C1B14969  14.696  17.610   7.236 -0.0639 -0.0391 -0.0676
 1040YOPC   C2B14970  14.340  17.509   7.303 -0.1303  0.2121  0.0595
 1040YOPC   D3B14971  14.150  17.401   7.704  0.1691  0.0401 -0.2220
 1040YOPC   C4B14972  14.144  17.317   8.170  0.0576  0.0187  0.2411
 1041YOPC   NC314973   1.398   4.673   5.959  0.3378 -0.1755 -0.1113
 1041YOPC   PO414974   1.422   4.191   6.034  0.3227  0.0787  0.2139
 1041YOPC   GL114975   1.566   3.999   6.407 -0.0021  0.0890  0.0966
 1041YOPC   GL214976   1.869   3.898   6.477 -0.0783  0.1519 -0.1890
 1041YOPC   C1A14977   1.381   4.093   6.899 -0.2512  0.3166 -0.0527
 1041YOPC   D2A14978   1.398   4.190   7.344  0.0142  0.0667 -0.2866
 1041YOPC   C3A14979   1.183   3.990   7.615  0.0836 -0.1126  0.0514
 1041YOPC   C4A14980   0.995   3.669   7.736 -0.3278  0.2047 -0.1125
 1041YOPC   C1B14981   1.746   3.766   6.922 -0.2753 -0.2229  0.1794
 1041YOPC   C2B14982   1.607   3.669   7.313  0.0127  0.1099  0.5571
 1041YOPC   D3B14983   1.638   3.869   7.731 -0.1874 -0.4147  0.2301
 1041YOPC   C4B14984   1.854   3.614   8.115 -0.3347  0.0663  0.0773
 1042YOPC   NC314985   6.789  15.954   5.864  0.1973 -0.0418  0.1417
 1042YOPC   PO414986   6.749  16.353   5.701  0.0980  0.1323  0.1984
 1042YOPC   GL114987   6.588  16.357   6.143  0.0202 -0.1395  0.1036
 1042YOPC   GL214988   6.513  15.926   6.312 -0.1890  0.1507  0.0191
 1042YOPC   C1A14989   6.653  16.263   6.626  0.3936 -0.1091  0.1709
 1042YOPC   D2A14990   6.748  16.056   7.056  0.0828 -0.0131 -0.2220
 1042YOPC   C3A14991   6.955  16.140   7.500 -0.2393  0.3124 -0.0627
 1042YOPC   C4A14992   6.981  16.443   7.828  0.1374 -0.0406  0.0079
 1042YOPC   C1B14993   6.225  16.001   6.657  0.1679  0.0991 -0.0524
 1042YOPC   C2B14994   5.918  15.834   6.786  0.0800  0.0433 -0.1047
 1042YOPC   D3B14995   5.744  16.077   7.245  0.0266 -0.3726 -0.1357
 1042YOPC   C4B14996   5.870  16.342   7.457 -0.4520  0.3692  0.3844
 1043YOPC   NC314997  17.000   9.238   6.112 -0.1098  0.3540 -0.3075
 1043YOPC   PO414998  16.653   8.854   6.023  0.0495 -0.2381 -0.1891
 1043YOPC   GL114999  16.775   8.872   6.461  0.0694  0.0542 -0.2184
 1043YOPC   GL215000  16.812   9.337   6.561 -0.0526  0.1603 -0.2989
 1043YOPC   C1A15001  16.907   9.015   6.918 -0.0471 -0.0739 -0.0733
 1043YOPC   D2A15002  17.126   9.128   7.166 -0.2540 -0.3478 -0.1260
 1043YOPC   C3A15003  16.950   9.361   7.515  0.0224  0.0988 -0.1556
 1043YOPC   C4A15004  16.832   9.267   7.891  0.1816  0.4603  0.0122
 1043YOPC   C1B15005  16.718   9.460   6.909  0.0639 -0.2979 -0.3154
 1043YOPC   C2B15006  16.615   9.712   7.252 -0.1045 -0.2945 -0.0817
 1043YOPC   D3B15007  16.504   9.574   7.610  0.0545  0.2403  0.5587
 1043YOPC   C4B15008  16.380   9.510   8.081 -0.1681 -0.0438  0.1642
 1044YOPC   NC315009  16.262   8.550   5.871  0.3266  0.0194  0.0379
 1044YOPC   PO415010  15.847   8.434   5.823 -0.1177  0.2009  0.2141
 1044YOPC   GL115011  15.613   8.201   6.151 -0.2379  0.1350  0.2846
 1044YOPC   GL215012  15.285   8.224   6.072  0.1941 -0.1438 -0.2030
 1044YOPC   C1A15013  15.411   8.185   6.591  0.0768  0.4282  0.0175
 1044YOPC   D2A15014  15.486   8.086   7.011 -0.3563 -0.1194  0.0810
 1044YOPC   C3A15015  15.214   8.140   7.341  0.1182 -0.0997  0.0086
 1044YOPC   C4A15016  15.225   8.168   7.807  0.2052 -0.1816  0.3153
 1044YOPC   C1B15017  15.056   7.883   6.350  0.2275  0.0757  0.2246
 1044YOPC   C2B15018  14.972   7.490   6.614 -0.0603 -0.0578  0.2675
 1044YOPC   D3B15019  15.280   7.222   6.659 -0.1826 -0.2460 -0.0853
 1044YOPC   C4B15020  15.521   6.847   6.792  0.0183  0.2294  0.1057
 1045YOPC   NC315021   3.216  11.649   5.509  0.3944 -0.1804  0.1340
 1045YOPC   PO415022   3.298  11.617   5.949  0.1297 -0.0033 -0.0500
 1045YOPC   GL115023   3.404  11.598   6.436  0.1179 -0.0662  0.1842
 1045YOPC   GL215024   3.335  11.867   6.601  0.0467 -0.0700 -0.0902
 1045YOPC   C1A15025   3.278  11.342   6.769  0.1000  0.0202 -0.1047
 1045YOPC   D2A15026   3.290  11.357   7.145 -0.0849 -0.2558 -0.1422
 1045YOPC   C3A15027   2.900  11.479   7.368  0.2069 -0.2514 -0.2863
 1045YOPC   C4A15028   2.738  11.638   7.743  0.0602 -0.2270 -0.3557
 1045YOPC   C1B15029   3.417  11.995   6.962 -0.2776  0.3357  0.2382
 1045YOPC   C2B15030   3.646  12.161   7.293 -0.1133  0.3457  0.1824
 1045YOPC   D3B15031   3.819  11.996   7.625 -0.1734 -0.0885 -0.0160
 1045YOPC   C4B15032   3.708  11.950   8.109  0.1743  0.0934  0.1004
 1046YOPC   NC315033   3.673   4.508   6.069  0.0034 -0.0174  0.0111
 1046YOPC   PO415034   3.451   4.846   5.916  0.6008 -0.2308  0.0145
 1046YOPC   GL115035   3.336   4.743   6.358 -0.3611 -0.1101  0.1219
 1046YOPC   GL215036   3.075   4.656   6.361 -0.0072 -0.1766  0.2622
 1046YOPC   C1A15037   3.277   4.604   6.822 -0.0115 -0.0175 -0.4331
 1046YOPC   D2A15038   3.509   4.705   7.199  0.0193 -0.2332  0.1184
 1046YOPC   C3A15039   3.656   4.509   7.592 -0.2025  0.2062  0.1472
 1046YOPC   C4A15040   3.443   4.186   7.775  0.2102  0.1659  0.0995
 1046YOPC   C1B15041   2.945   5.000   6.595 -0.0570  0.1030 -0.0791
 1046YOPC   C2B15042   3.102   5.042   7.096 -0.0590 -0.1280  0.0578
 1046YOPC   D3B15043   2.932   5.379   7.379 -0.0555  0.0264  0.2533
 1046YOPC   C4B15044   2.970   5.734   7.736 -0.1099 -0.3141 -0.0031
 1047YOPC   NC315045  13.195  11.871   5.773 -0.0562 -0.0375  0.1636
 1047YOPC   PO415046  13.103  11.412   5.920  0.1837  0.0237  0.1129
 1047YOPC   GL115047  13.025  11.244   6.257 -0.2409 -0.2072 -0.0218
 1047YOPC   GL215048  13.319  11.234   6.356 -0.0416  0.1084  0.0557
 1047YOPC   C1A15049  12.887  10.903   6.596  0.2155 -0.2200 -0.2381
 1047YOPC   D2A15050  12.865  10.795   7.087 -0.1744 -0.0749  0.1304
 1047YOPC   C3A15051  13.022  11.033   7.480 -0.2193 -0.0360 -0.0449
 1047YOPC   C4A15052  13.150  11.093   7.854 -0.2753 -0.0907 -0.2130
 1047YOPC   C1B15053  13.412  11.047   6.659  0.1161  0.0656 -0.1079
 1047YOPC   C2B15054  13.527  10.654   6.893  0.0793 -0.0588 -0.0155
 1047YOPC   D3B15055  13.810  10.623   7.363  0.0469 -0.1454  0.0428
 1047YOPC   C4B15056  14.087  10.538   7.588 -0.5409 -0.1153  0.0474
 1048YOPC   NC315057  17.475   2.863   6.383 -0.0226  0.0201  0.0861
 1048YOPC   PO415058  17.909   2.657   6.315 -0.1684  0.0410  0.1463
 1048YOPC   GL115059  18.010   2.827   6.766 -0.4625  0.1080 -0.1408
 1048YOPC   GL215060  18.192   2.500   6.795  0.2535 -0.0200 -0.1189
 1048YOPC   C1A15061  18.350   2.899   7.071 -0.0048  0.0363 -0.2989
 1048YOPC   D2A15062  18.647   3.101   7.367 -0.3275  0.1963 -0.0948
 1048YOPC   C3A15063  18.446   3.323   7.732 -0.0816 -0.3187 -0.3124
 1048YOPC   C4A15064  18.361   3.571   8.165 -0.1620 -0.2155  0.1838
 1048YOPC   C1B15065  18.629   2.518   6.885  0.1207  0.0141  0.0827
 1048YOPC   C2B15066  19.121   2.660   7.022  0.0319 -0.1189  0.0350
 1048YOPC   D3B15067  19.280   2.613   7.507  0.2288 -0.0959 -0.1656
 1048YOPC   C4B15068  19.411   2.514   7.948 -0.0931 -0.1347 -0.1668
 1049YOPC   NC315069  11.300  14.604   6.034  0.2157 -0.2877  0.1120
 1049YOPC   PO415070  11.085  14.776   5.741  0.1429 -0.0302  0.3288
 1049YOPC   GL115071  10.850  14.604   6.217 -0.0140 -0.2800 -0.2534
 1049YOPC   GL215072  10.567  14.449   6.195 -0.2080  0.1924 -0.1274
 1049YOPC   C1A15073  10.918  14.385   6.580 -0.2854  0.3106  0.0199
 1049YOPC   D2A15074  11.046  14.330   6.973  0.0486 -0.0783  0.2329
 1049YOPC   C3A15075  10.749  14.322   7.325 -0.0834  0.0923 -0.0206
 1049YOPC   C4A15076  10.502  14.119   7.616  0.0301 -0.1126  0.0454
 1049YOPC   C1B15077  10.470  14.214   6.591 -0.0076  0.0711 -0.2548
 1049YOPC   C2B15078  10.500  14.180   6.979 -0.1435 -0.1672 -0.3219
 1049YOPC   D3B15079  10.788  13.808   7.021  0.0590  0.2486  0.0445
 1049YOPC   C4B15080  11.217  13.897   7.170  0.3230 -0.0747  0.1575
 1050YOPC   NC315081  11.024  12.456   5.293  0.1204 -0.3371  0.0612
 1050YOPC   PO415082  10.935  12.708   5.485 -0.1025  0.0282  0.1706
 1050YOPC   GL115083  10.877  12.619   5.891 -0.1929 -0.3211 -0.0595
 1050YOPC   GL215084  10.909  12.336   5.986  0.3518  0.0100 -0.0355
 1050YOPC   C1A15085  10.658  12.834   6.268 -0.4309  0.1958  0.2423
 1050YOPC   D2A15086  10.845  13.175   6.399 -0.0872 -0.0095  0.1549
 1050YOPC   C3A15087  10.965  13.275   6.859  0.0348 -0.0233 -0.1285
 1050YOPC   C4A15088  11.034  13.266   7.318 -0.2355  0.1734 -0.1574
 1050YOPC   C1B15089  10.862  12.338   6.428 -0.0821 -0.0540  0.3570
 1050YOPC   C2B15090  10.988  12.430   6.849  0.0338 -0.1567 -0.3666
 1050YOPC   D3B15091  11.053  12.001   6.948  0.4708  0.0187  0.2074
 1050YOPC   C4B15092  10.934  11.692   7.269 -0.2299  0.2157  0.0075
 1051YOPC   NC315093   6.403   9.134   5.366 -0.1063 -0.3133 -0.3550
 1051YOPC   PO415094   6.550   8.783   5.497  0.2040  0.1507 -0.1545
 1051YOPC   GL115095   6.629   8.738   5.848 -0.1959 -0.0839 -0.2011
 1051YOPC   GL215096   6.461   8.919   6.006  0.0712  0.1241  0.1245
 1051YOPC   C1A15097   7.042   8.726   6.097 -0.2632 -0.0466  0.1038
 1051YOPC   D2A15098   7.076   8.850   6.550  0.1287  0.0570 -0.0998
 1051YOPC   C3A15099   7.443   8.908   6.733  0.0355 -0.3091  0.4052
 1051YOPC   C4A15100   7.608   8.814   7.182  0.1506 -0.0987 -0.2021
 1051YOPC   C1B15101   6.607   8.566   6.321  0.4049 -0.2810 -0.1528
 1051YOPC   C2B15102   7.010   8.340   6.534 -0.3102  0.1644 -0.1219
 1051YOPC   D3B15103   7.204   8.450   7.033  0.2531  0.2267 -0.0069
 1051YOPC   C4B15104   7.272   8.489   7.406 -0.0847  0.0109  0.2682
 1052YOPC   NC315105   8.052  12.417   5.310  0.1702 -0.0809  0.0653
 1052YOPC   PO415106   8.349  12.669   5.577 -0.3048  0.0876  0.3148
 1052YOPC   GL115107   8.448  12.627   5.969  0.0855  0.0386  0.1475
 1052YOPC   GL215108   8.183  12.865   6.238 -0.4861 -0.1086 -0.0443
 1052YOPC   C1A15109   8.285  12.362   6.255  0.1928 -0.1480 -0.1002
 1052YOPC   D2A15110   8.436  11.996   6.504  0.0704  0.1455 -0.0665
 1052YOPC   C3A15111   8.301  12.172   6.812 -0.2212 -0.1934 -0.2761
 1052YOPC   C4A15112   8.533  12.180   7.206 -0.0730 -0.0611  0.4171
 1052YOPC   C1B15113   8.456  13.096   6.630  0.1186 -0.2307 -0.0811
 1052YOPC   C2B15114   8.811  13.340   6.745  0.3252  0.0480 -0.0009
 1052YOPC   D3B15115   8.972  13.709   7.036  0.0319  0.3283  0.3318
 1052YOPC   C4B15116   9.033  13.887   7.397 -0.1619  0.1058  0.0916
 1053YOPC   NC315117   6.517   5.969   5.445  0.1260 -0.1829 -0.2101
 1053YOPC   PO415118   6.895   6.057   5.477  0.1799  0.0745 -0.2818
 1053YOPC   GL115119   7.273   6.018   5.792  0.0649 -0.1873  0.2037
 1053YOPC   GL215120   7.583   5.869   5.719 -0.0660  0.1912 -0.1881
 1053YOPC   C1A15121   7.307   6.086   6.181  0.0439  0.2280 -0.2006
 1053YOPC   D2A15122   7.434   6.095   6.544  0.0642 -0.0517  0.1983
 1053YOPC   C3A15123   7.312   5.858   6.899  0.0148  0.1863  0.2232
 1053YOPC   C4A15124   6.984   6.096   7.236 -0.1865  0.1426  0.1449
 1053YOPC   C1B15125   7.463   5.533   5.902  0.3252  0.1724 -0.2644
 1053YOPC   C2B15126   7.698   5.206   6.092  0.2849 -0.0819  0.2840
 1053YOPC   D3B15127   7.449   5.080   6.407 -0.1365  0.0784 -0.0009
 1053YOPC   C4B15128   7.488   4.923   6.743 -0.0467  0.3518  0.3765
 1054YOPC   NC315129  14.075  13.009   5.977  0.1357  0.0966  0.0983
 1054YOPC   PO415130  13.876  13.304   5.948 -0.1321  0.0367  0.2749
 1054YOPC   GL115131  13.786  13.138   6.448 -0.0460 -0.0371  0.3440
 1054YOPC   GL215132  13.523  13.341   6.368  0.2755  0.1367 -0.0817
 1054YOPC   C1A15133  13.859  12.963   6.993  0.4232  0.1939 -0.0604
 1054YOPC   D2A15134  13.759  12.822   7.455 -0.1076  0.2877  0.0651
 1054YOPC   C3A15135  13.831  13.002   7.698  0.2641 -0.0246 -0.0317
 1054YOPC   C4A15136  13.942  13.227   8.031  0.0622  0.0606  0.1129
 1054YOPC   C1B15137  13.514  13.313   6.786  0.0473  0.4552 -0.3146
 1054YOPC   C2B15138  13.406  13.731   7.052  0.0616  0.1492 -0.0684
 1054YOPC   D3B15139  13.509  13.775   7.478 -0.0782 -0.1127 -0.1236
 1054YOPC   C4B15140  13.486  13.746   7.926  0.1282  0.1786  0.0631
 1055YOPC   NC315141   2.956  13.832   5.750  0.3557 -0.1720 -0.2332
 1055YOPC   PO415142   3.118  14.164   6.072  0.4174  0.1344 -0.1295
 1055YOPC   GL115143   3.056  14.113   6.500  0.1419  0.1502 -0.6395
 1055YOPC   GL215144   3.126  13.864   6.719 -0.2020  0.1325  0.1316
 1055YOPC   C1A15145   2.740  14.081   6.905  0.1160 -0.0578  0.2434
 1055YOPC   D2A15146   2.838  14.257   7.348  0.4569 -0.0044  0.1562
 1055YOPC   C3A15147   2.762  14.003   7.568  0.0668  0.3169 -0.0288
 1055YOPC   C4A15148   2.522  13.736   7.735 -0.2474 -0.0234  0.0210
 1055YOPC   C1B15149   3.101  13.789   7.142  0.0358 -0.2413  0.0285
 1055YOPC   C2B15150   3.064  13.602   7.626 -0.2699  0.4382  0.2138
 1055YOPC   D3B15151   2.822  13.342   7.741 -0.0792 -0.0702  0.2883
 1055YOPC   C4B15152   2.607  13.095   7.926  0.1033 -0.0390  0.1120
 1056YOPC   NC315153   7.099  13.007   5.499  0.0104 -0.1707 -0.2066
 1056YOPC   PO415154   7.208  13.091   5.910 -0.1834  0.1932 -0.0985
 1056YOPC   GL115155   7.242  12.699   6.212  0.2370  0.0468  0.0596
 1056YOPC   GL215156   6.991  12.563   6.390  0.0042 -0.5449  0.0411
 1056YOPC   C1A15157   7.499  12.611   6.528 -0.2356 -0.1711 -0.0731
 1056YOPC   D2A15158   7.852  12.452   6.549  0.1250 -0.5126 -0.2046
 1056YOPC   C3A15159   7.797  12.369   6.955  0.2104  0.1499  0.0201
 1056YOPC   C4A15160   7.676  12.421   7.324 -0.0856  0.2507  0.4505
 1056YOPC   C1B15161   7.016  12.496   6.790  0.1771 -0.2160 -0.1866
 1056YOPC   C2B15162   7.058  12.601   7.229  0.2998 -0.0971  0.0806
 1056YOPC   D3B15163   6.709  12.472   7.474  0.2136 -0.2112 -0.0179
 1056YOPC   C4B15164   6.521  12.645   7.845 -0.1302 -0.1133  0.1245
 1057YOPC   NC315165   6.626   7.468   6.092 -0.0965  0.0607 -0.0909
 1057YOPC   PO415166   7.062   7.574   6.041  0.0487 -0.0569 -0.2398
 1057YOPC   GL115167   7.153   7.747   6.270 -0.0149 -0.1907  0.1831
 1057YOPC   GL215168   7.301   8.040   6.072 -0.2709 -0.0258  0.0836
 1057YOPC   C1A15169   7.013   7.864   6.740  0.0380  0.2359 -0.0686
 1057YOPC   D2A15170   6.983   8.065   7.158 -0.0880 -0.2313  0.4235
 1057YOPC   C3A15171   6.945   7.860   7.479  0.0135  0.0724 -0.0249
 1057YOPC   C4A15172   7.323   7.570   7.395  0.0063  0.1138  0.3371
 1057YOPC   C1B15173   7.734   7.954   6.165 -0.1068 -0.2567 -0.2560
 1057YOPC   C2B15174   7.942   8.070   6.591  0.1323 -0.1647 -0.1590
 1057YOPC   D3B15175   7.964   7.786   6.902 -0.0853  0.2100 -0.0712
 1057YOPC   C4B15176   7.795   7.486   7.153 -0.3981  0.0721 -0.0934
 1058YOPC   NC315177   6.550  14.578   5.651 -0.0660 -0.0493  0.2200
 1058YOPC   PO415178   6.552  14.222   5.691 -0.1317  0.3228  0.0976
 1058YOPC   GL115179   6.947  14.173   5.971 -0.1656  0.3929 -0.1958
 1058YOPC   GL215180   7.128  14.457   6.058  0.0748  0.1474  0.4687
 1058YOPC   C1A15181   7.200  14.055   6.359 -0.4031 -0.1107 -0.0684
 1058YOPC   D2A15182   7.063  13.824   6.722  0.0807 -0.0270 -0.0991
 1058YOPC   C3A15183   7.280  13.641   7.058  0.0052 -0.2222  0.0680
 1058YOPC   C4A15184   7.570  13.347   7.353 -0.0987 -0.0318 -0.0093
 1058YOPC   C1B15185   6.994  14.532   6.507 -0.1299 -0.1910 -0.0707
 1058YOPC   C2B15186   7.085  14.313   6.884 -0.2411 -0.3374  0.2405
 1058YOPC   D3B15187   7.449  14.541   7.164  0.1224 -0.2100 -0.0030
 1058YOPC   C4B15188   7.403  14.506   7.659 -0.1395  0.0691  0.0634
 1059YOPC   NC315189  12.669   0.294   5.920  0.3215 -0.1314 -0.1199
 1059YOPC   PO415190  13.084   0.496   6.180 -0.1465 -0.1139  0.4016
 1059YOPC   GL115191  13.077   0.667   6.579  0.1781  0.2553 -0.5513
 1059YOPC   GL215192  13.050   0.951   6.727 -0.0933 -0.0045 -0.1001
 1059YOPC   C1A15193  13.123   0.467   7.083  0.1013  0.0179  0.0473
 1059YOPC   D2A15194  13.252   0.208   7.346 -0.3120  0.0406  0.0902
 1059YOPC   C3A15195  13.522   0.302   7.673  0.0283 -0.1449  0.0922
 1059YOPC   C4A15196  13.710   0.753   7.684  0.4374  0.0131 -0.1841
 1059YOPC   C1B15197  12.992   0.990   7.192  0.1079  0.2833  0.1518
 1059YOPC   C2B15198  12.968   1.230   7.561  0.2386  0.1863 -0.0457
 1059YOPC   D3B15199  12.876   1.155   7.947  0.1441  0.0617  0.0316
 1059YOPC   C4B15200  12.890   0.997   8.433  0.0261  0.3669  0.0238
 1060YOPC   NC315201   0.297   1.657   6.388  0.2286  0.2107 -0.0294
 1060YOPC   PO415202   0.647   1.826   6.152 -0.1617 -0.2281 -0.1181
 1060YOPC   GL115203   0.691   1.906   6.541  0.2807 -0.2665 -0.1569
 1060YOPC   GL215204   1.089   2.091   6.652  0.0291  0.1095 -0.0142
 1060YOPC   C1A15205   0.665   2.093   6.849  0.4838  0.3327  0.4003
 1060YOPC   D2A15206   0.692   2.238   7.252  0.0687 -0.0327  0.2856
 1060YOPC   C3A15207   0.450   2.609   7.392 -0.0490  0.0811  0.0048
 1060YOPC   C4A15208   0.002   2.533   7.329  0.0983 -0.2923 -0.1265
 1060YOPC   C1B15209   1.110   2.194   7.057 -0.2454  0.2596 -0.0992
 1060YOPC   C2B15210   1.215   2.272   7.461  0.3271  0.0587 -0.2897
 1060YOPC   D3B15211   0.888   2.110   7.659  0.1760  0.0583  0.0504
 1060YOPC   C4B15212   0.784   1.971   7.966  0.0769 -0.2054  0.3204
 1061YOPC   NC315213  10.804   0.877   5.941 -0.0883 -0.0965 -0.2128
 1061YOPC   PO415214  11.060   1.233   5.968 -0.0168  0.3947  0.1290
 1061YOPC   GL115215  10.841   1.189   6.354  0.0242  0.0247  0.2149
 1061YOPC   GL215216  10.542   1.079   6.338  0.1494 -0.2596  0.0546
 1061YOPC   C1A15217  10.978   1.457   6.731  0.1685 -0.0041  0.1333
 1061YOPC   D2A15218  11.412   1.304   6.829  0.1248 -0.0915 -0.1205
 1061YOPC   C3A15219  11.368   0.984   7.213 -0.2582 -0.1305  0.0335
 1061YOPC   C4A15220  11.624   0.850   7.479  0.0022 -0.1098 -0.1580
 1061YOPC   C1B15221  10.546   1.182   6.774 -0.1949 -0.0417 -0.0761
 1061YOPC   C2B15222  10.384   1.311   7.135  0.1574 -0.2078 -0.0049
 1061YOPC   D3B15223  10.161   1.274   7.517  0.0356  0.0133  0.0215
 1061YOPC   C4B15224  10.267   1.333   7.973  0.0642  0.1098 -0.7790
 1062YOPC   NC315225  11.654  17.457   6.116  0.0211  0.4838 -0.2865
 1062YOPC   PO415226  11.336  17.755   6.230 -0.0874  0.0205 -0.0167
 1062YOPC   GL115227  11.196  17.531   6.609 -0.1142  0.0659 -0.0672
 1062YOPC   GL215228  11.553  17.338   6.645  0.0040 -0.0973 -0.1668
 1062YOPC   C1A15229  11.338  17.484   7.037  0.2919 -0.0906  0.0108
 1062YOPC   D2A15230  11.674  17.368   7.330  0.0282 -0.1127  0.0558
 1062YOPC   C3A15231  11.612  17.229   7.701 -0.1290 -0.0488 -0.1488
 1062YOPC   C4A15232  11.734  17.000   8.087  0.1714 -0.1776  0.3270
 1062YOPC   C1B15233  11.703  17.091   6.877 -0.5318  0.4236  0.0282
 1062YOPC   C2B15234  11.892  16.743   7.023  0.1983  0.0015  0.0381
 1062YOPC   D3B15235  12.276  16.526   6.956 -0.0405  0.2719  0.3066
 1062YOPC   C4B15236  12.680  16.578   6.784 -0.0116 -0.1466 -0.0494
 1063YOPC   NC315237  17.780   0.041   5.464 -0.0843 -0.1347 -0.0508
 1063YOPC   PO415238  17.520  -0.131   5.746 -0.1515 -0.2106 -0.0078
 1063YOPC   GL115239  17.505  -0.006   6.260 -0.0883  0.0904 -0.0349
 1063YOPC   GL215240  17.744  -0.079   6.543  0.0019 -0.2411  0.0290
 1063YOPC   C1A15241  17.248   0.322   6.538  0.2078  0.0972  0.1558
 1063YOPC   D2A15242  16.979   0.528   6.840  0.3014 -0.3372 -0.0658
 1063YOPC   C3A15243  16.940   0.452   7.346 -0.3473 -0.2209 -0.1506
 1063YOPC   C4A15244  16.942   0.449   7.755  0.0845 -0.2139 -0.4117
 1063YOPC   C1B15245  17.538  -0.410   6.784  0.2251 -0.2069  0.0445
 1063YOPC   C2B15246  17.056  -0.514   6.978  0.1541 -0.2068  0.1007
 1063YOPC   D3B15247  17.081  -0.786   7.351  0.2981 -0.1682  0.0377
 1063YOPC   C4B15248  16.854  -0.968   7.544  0.0884  0.1044 -0.0562
 1064YOPC   NC315249   8.021  15.490   5.708 -0.1141 -0.0688  0.0684
 1064YOPC   PO415250   8.460  15.629   5.715  0.1296 -0.2041  0.4890
 1064YOPC   GL115251   8.388  15.369   6.075  0.1462 -0.0207  0.0504
 1064YOPC   GL215252   8.148  15.207   6.249 -0.2628  0.2238 -0.0021
 1064YOPC   C1A15253   8.441  15.440   6.625 -0.4956 -0.0052  0.1934
 1064YOPC   D2A15254   8.132  15.384   6.979  0.2655  0.0897 -0.3383
 1064YOPC   C3A15255   8.038  15.082   7.306  0.1070  0.4188 -0.1376
 1064YOPC   C4A15256   7.623  14.893   7.441 -0.3170 -0.0820 -0.1843
 1064YOPC   C1B15257   8.169  14.938   6.676  0.2478 -0.1916  0.0949
 1064YOPC   C2B15258   8.370  14.923   6.910  0.0070 -0.1420  0.4255
 1064YOPC   D3B15259   8.595  14.637   7.140  0.0022  0.0592 -0.0232
 1064YOPC   C4B15260   8.980  14.777   7.436 -0.0082 -0.1096  0.2364
 1065YOPC   NC315261   1.450   6.726   6.204 -0.4846  0.1818 -0.0291
 1065YOPC   PO415262   1.938   6.738   6.014  0.0393 -0.0750 -0.0310
 1065YOPC   GL115263   1.987   6.727   6.402  0.3100 -0.2224  0.3356
 1065YOPC   GL215264   1.673   6.719   6.638  0.0395 -0.0291  0.2526
 1065YOPC   C1A15265   2.112   6.587   6.771  0.1173  0.4381  0.1245
 1065YOPC   D2A15266   2.332   6.607   7.163  0.2067 -0.0563 -0.0910
 1065YOPC   C3A15267   2.020   6.857   7.408  0.1087  0.2287  0.0303
 1065YOPC   C4A15268   1.717   7.074   7.391  0.0024  0.0611 -0.2088
 1065YOPC   C1B15269   1.692   6.702   7.059 -0.1421 -0.0063 -0.1493
 1065YOPC   C2B15270   1.500   6.570   7.464 -0.1667  0.1617  0.4055
 1065YOPC   D3B15271   1.707   6.342   7.778  0.2106  0.0316 -0.1174
 1065YOPC   C4B15272   2.084   6.268   7.550  0.2107 -0.2015 -0.2652
 1066YOPC   NC315273  15.071  14.448   5.860 -0.1377  0.3640  0.2899
 1066YOPC   PO415274  14.875  14.810   6.050 -0.4743  0.4059 -0.1850
 1066YOPC   GL115275  14.971  15.067   6.405 -0.2153  0.2196 -0.2034
 1066YOPC   GL215276  14.995  15.380   6.259  0.0873  0.1245 -0.1418
 1066YOPC   C1A15277  15.014  15.265   6.831  0.0717  0.1870  0.0265
 1066YOPC   D2A15278  14.931  15.414   7.275  0.2676 -0.1365 -0.4261
 1066YOPC   C3A15279  14.601  15.394   7.518 -0.3151 -0.1440 -0.2852
 1066YOPC   C4A15280  14.267  15.419   7.812  0.1249 -0.0044  0.1201
 1066YOPC   C1B15281  14.944  15.772   6.557 -0.0488 -0.5517  0.0776
 1066YOPC   C2B15282  14.829  15.831   7.000 -0.0425 -0.2091 -0.2860
 1066YOPC   D3B15283  14.964  16.161   7.221 -0.2193 -0.0693 -0.0894
 1066YOPC   C4B15284  15.203  16.163   7.667  0.0217 -0.0846 -0.2857
 1067YOPC   NC315285   4.153   7.836   5.498  0.3190  0.0128 -0.2230
 1067YOPC   PO415286   4.179   7.518   5.758 -0.3638  0.2558  0.0359
 1067YOPC   GL115287   4.478   7.281   5.845 -0.0605  0.1238 -0.1024
 1067YOPC   GL215288   4.800   7.421   5.945 -0.3242  0.1018 -0.0181
 1067YOPC   C1A15289   4.545   7.154   6.306 -0.2820 -0.1142 -0.3235
 1067YOPC   D2A15290   4.803   7.406   6.598  0.1259 -0.0495 -0.1528
 1067YOPC   C3A15291   4.749   7.224   7.049 -0.0444  0.0212 -0.4424
 1067YOPC   C4A15292   5.007   6.977   7.453  0.0986 -0.1410 -0.1846
 1067YOPC   C1B15293   4.845   7.718   6.225  0.0770  0.3593  0.0942
 1067YOPC   C2B15294   5.207   7.710   6.568  0.1221 -0.0706  0.0470
 1067YOPC   D3B15295   5.112   7.670   6.954  0.2034  0.2263 -0.1400
 1067YOPC   C4B15296   5.296   7.346   7.185 -0.1030  0.0861 -0.1191
 1068YOPC   NC315297   4.033  16.127   5.483 -0.0961  0.2091  0.2710
 1068YOPC   PO415298   4.240  16.073   5.802 -0.1710 -0.0919 -0.1760
 1068YOPC   GL115299   4.223  16.059   6.229  0.0607 -0.1141  0.0466
 1068YOPC   GL215300   4.031  16.189   6.478  0.1285 -0.0127 -0.0597
 1068YOPC   C1A15301   4.626  15.981   6.477  0.0912 -0.2162 -0.0197
 1068YOPC   D2A15302   4.960  15.984   6.827  0.4672  0.0537 -0.2104
 1068YOPC   C3A15303   4.877  16.265   7.120 -0.0217  0.2264  0.0347
 1068YOPC   C4A15304   4.742  16.110   7.546 -0.0165  0.2819 -0.0857
 1068YOPC   C1B15305   4.407  16.426   6.634  0.0458 -0.0096 -0.0632
 1068YOPC   C2B15306   4.723  16.515   6.779  0.2966 -0.1389 -0.0434
 1068YOPC   D3B15307   4.724  16.831   7.199  0.1563 -0.4592  0.1328
 1068YOPC   C4B15308   4.756  17.091   7.445 -0.2788 -0.0273 -0.0151
 1069YOPC   NC315309   4.109   3.763   6.356  0.0228  0.1822  0.0484
 1069YOPC   PO415310   4.290   3.372   6.229  0.2195  0.3792 -0.1585
 1069YOPC   GL115311   4.514   3.105   6.554  0.1144 -0.0988 -0.0858
 1069YOPC   GL215312   4.353   3.001   6.883  0.2959 -0.2092  0.3948
 1069YOPC   C1A15313   4.807   3.265   6.969  0.2328 -0.1755 -0.0712
 1069YOPC   D2A15314   4.946   3.385   7.270 -0.2845  0.0063 -0.0044
 1069YOPC   C3A15315   5.167   3.538   7.489 -0.0196 -0.1080 -0.0751
 1069YOPC   C4A15316   5.503   3.585   7.835  0.0866  0.0834  0.1022
 1069YOPC   C1B15317   4.106   2.967   7.254 -0.2644 -0.0084  0.2768
 1069YOPC   C2B15318   4.078   2.926   7.635  0.1146 -0.0567  0.0392
 1069YOPC   D3B15319   3.933   3.137   7.908  0.0950 -0.0122 -0.0723
 1069YOPC   C4B15320   4.171   3.132   8.262 -0.5360 -0.1841  0.2040
 1070YOPC   NC315321   4.417  11.135   5.866  0.0701 -0.0958 -0.0784
 1070YOPC   PO415322   4.463  10.719   5.721  0.2340  0.1418  0.1357
 1070YOPC   GL115323   4.606  10.745   6.222 -0.0211  0.1035  0.3447
 1070YOPC   GL215324   4.568  11.063   6.368  0.3711 -0.0776 -0.4022
 1070YOPC   C1A15325   4.791  10.566   6.617  0.0528  0.0262 -0.2155
 1070YOPC   D2A15326   4.837  10.272   6.900  0.2641 -0.0948 -0.2416
 1070YOPC   C3A15327   5.164  10.053   6.836  0.0040 -0.0614 -0.2362
 1070YOPC   C4A15328   5.397   9.856   7.161  0.0323  0.0509  0.2792
 1070YOPC   C1B15329   4.349  10.843   6.672  0.1569 -0.0319  0.3890
 1070YOPC   C2B15330   4.333  10.433   6.973  0.3532  0.0215  0.4022
 1070YOPC   D3B15331   4.595  10.299   7.350  0.2086 -0.1819  0.4069
 1070YOPC   C4B15332   4.711  10.393   7.795 -0.0518  0.1034 -0.0348
 1071YOPC   NC315333  12.927   3.536   6.053  0.2355 -0.1206  0.0888
 1071YOPC   PO415334  12.770   3.964   5.965  0.1811 -0.4419  0.2417
 1071YOPC   GL115335  12.799   3.842   6.417 -0.0025 -0.0626  0.1584
 1071YOPC   GL215336  12.464   3.747   6.471  0.0702  0.3574  0.1556
 1071YOPC   C1A15337  12.884   3.891   6.847 -0.0226  0.2387  0.0283
 1071YOPC   D2A15338  12.780   3.824   7.285 -0.0081 -0.1249  0.1839
 1071YOPC   C3A15339  12.923   4.000   7.655 -0.0029  0.4152 -0.2104
 1071YOPC   C4A15340  13.168   4.107   8.128 -0.1816  0.1307  0.3472
 1071YOPC   C1B15341  12.364   3.929   6.887 -0.0942 -0.0585 -0.0052
 1071YOPC   C2B15342  12.483   4.187   7.114  0.2053  0.0953  0.0250
 1071YOPC   D3B15343  12.369   4.603   7.372  0.3158  0.1759 -0.5684
 1071YOPC   C4B15344  12.346   4.571   7.880  0.2423 -0.1560  0.0631
 1072YOPC   NC315345   5.059  11.881   5.837 -0.3330 -0.1817  0.4546
 1072YOPC   PO415346   4.646  12.006   5.854 -0.0523  0.0505 -0.1905
 1072YOPC   GL115347   4.838  12.057   6.311  0.0997  0.0654  0.1099
 1072YOPC   GL215348   5.166  12.121   6.298  0.0508  0.1180 -0.0234
 1072YOPC   C1A15349   4.945  12.330   6.711 -0.1535  0.2304 -0.1092
 1072YOPC   D2A15350   4.752  12.607   7.042 -0.0663  0.0211  0.0280
 1072YOPC   C3A15351   4.840  12.549   7.498 -0.0876  0.0676 -0.1224
 1072YOPC   C4A15352   5.034  12.807   7.889  0.0939 -0.0385 -0.2653
 1072YOPC   C1B15353   5.011  11.858   6.755 -0.2368  0.0376 -0.0430
 1072YOPC   C2B15354   4.958  11.485   7.033 -0.0926  0.1416  0.0897
 1072YOPC   D3B15355   5.107  11.461   7.443 -0.1288 -0.1171 -0.2897
 1072YOPC   C4B15356   4.855  11.315   7.766  0.0855  0.0290 -0.0983
 1073YOPC   NC315357   2.553   0.029   6.386 -0.0597  0.2160 -0.5556
 1073YOPC   PO415358   2.504  -0.459   6.311  0.0081 -0.0850 -0.2456
 1073YOPC   GL115359   2.319  -0.637   6.588 -0.1682  0.0467 -0.1775
 1073YOPC   GL215360   2.543  -0.776   6.810 -0.0180 -0.0918  0.0713
 1073YOPC   C1A15361   2.290  -0.504   7.093 -0.0733  0.2767  0.2758
 1073YOPC   D2A15362   2.553  -0.427   7.522  0.2465 -0.1700  0.1726
 1073YOPC   C3A15363   2.351  -0.293   7.854 -0.1533 -0.2471 -0.0575
 1073YOPC   C4A15364   2.622  -0.134   8.308 -0.3140  0.0458 -0.2579
 1073YOPC   C1B15365   2.811  -0.674   7.149  0.3423  0.3582 -0.2049
 1073YOPC   C2B15366   3.034  -0.641   7.586 -0.1920 -0.1596  0.0124
 1073YOPC   D3B15367   3.067  -0.872   7.966 -0.2225  0.0172  0.0224
 1073YOPC   C4B15368   2.817  -0.983   8.377 -0.0305 -0.0634 -0.1092
 1074YOPC   NC315369  11.372   0.683   5.605 -0.1683 -0.2976  0.0477
 1074YOPC   PO415370  11.389   0.840   6.042 -0.1893 -0.2850 -0.0321
 1074YOPC   GL115371  11.260   0.779   6.430 -0.0325 -0.3327  0.0641
 1074YOPC   GL215372  11.496   0.823   6.667 -0.2024  0.2820 -0.1526
 1074YOPC   C1A15373  11.030   0.966   6.822  0.1334  0.1993  0.1566
 1074YOPC   D2A15374  10.936   1.200   7.192  0.0361  0.2065  0.0447
 1074YOPC   C3A15375  10.929   1.602   7.189  0.3922 -0.0675 -0.1648
 1074YOPC   C4A15376  11.272   1.943   7.221 -0.0021 -0.1381 -0.1300
 1074YOPC   C1B15377  11.831   0.733   7.037  0.0244  0.0382 -0.1787
 1074YOPC   C2B15378  12.094   0.784   7.392  0.2276  0.3527 -0.2492
 1074YOPC   D3B15379  11.998   1.094   7.745 -0.1187  0.0750  0.0062
 1074YOPC   C4B15380  11.849   1.281   8.136  0.0028  0.2112  0.0851
 1075YOPC   NC315381  13.001   4.750   5.531  0.0276 -0.0700  0.1582
 1075YOPC   PO415382  12.702   4.957   5.827  0.3711  0.3517  0.1305
 1075YOPC   GL115383  12.820   4.941   6.299  0.0109  0.3185  0.0781
 1075YOPC   GL215384  13.006   5.199   6.529 -0.1106 -0.0868  0.0699
 1075YOPC   C1A15385  12.838   4.653   6.552 -0.2539  0.1195  0.3929
 1075YOPC   D2A15386  12.745   4.583   7.004  0.2252 -0.1878 -0.0943
 1075YOPC   C3A15387  12.973   4.292   7.267  0.0200  0.2509  0.4238
 1075YOPC   C4A15388  13.330   3.929   7.395  0.0353 -0.1345 -0.0359
 1075YOPC   C1B15389  12.841   5.573   6.651  0.2327 -0.0903  0.2026
 1075YOPC   C2B15390  12.665   5.931   6.912  0.0556 -0.0105  0.1610
 1075YOPC   D3B15391  12.645   5.639   7.223 -0.1371  0.1043  0.2013
 1075YOPC   C4B15392  12.362   5.548   7.646  0.2686  0.2614 -0.3982
 1076YOPC   NC315393   3.583   2.098   6.395 -0.1051  0.2990  0.0576
 1076YOPC   PO415394   3.231   2.315   6.435  0.1981 -0.0328 -0.1053
 1076YOPC   GL115395   3.432   2.241   6.806 -0.1720  0.1635 -0.0124
 1076YOPC   GL215396   3.575   1.995   6.927 -0.1312 -0.2759 -0.1640
 1076YOPC   C1A15397   3.546   2.321   7.265 -0.0354 -0.2538 -0.3256
 1076YOPC   D2A15398   3.619   2.390   7.670  0.1560  0.2452 -0.0094
 1076YOPC   C3A15399   3.839   2.123   7.911 -0.0267 -0.3334  0.0835
 1076YOPC   C4A15400   4.033   1.999   8.260 -0.0950  0.0011  0.1002
 1076YOPC   C1B15401   3.719   1.948   7.401 -0.1506  0.2374 -0.1351
 1076YOPC   C2B15402   3.988   1.709   7.766  0.1848  0.2025 -0.0262
 1076YOPC   D3B15403   4.369   2.038   7.863 -0.0221  0.2259  0.0242
 1076YOPC   C4B15404   4.824   1.883   7.932  0.2689  0.3000  0.2715
 1077YOPC   NC315405  17.474  14.342   5.814 -0.1395  0.1410  0.1850
 1077YOPC   PO415406  17.925  14.434   5.661  0.3649 -0.2361 -0.0591
 1077YOPC   GL115407  18.151  14.434   6.044  0.1315 -0.1727 -0.2090
 1077YOPC   GL215408  18.469  14.305   6.112  0.1762  0.0329 -0.0885
 1077YOPC   C1A15409  18.074  14.506   6.484 -0.1746  0.2109  0.1000
 1077YOPC   D2A15410  17.712  14.560   6.872  0.0517  0.0730 -0.0002
 1077YOPC   C3A15411  17.823  14.677   7.288 -0.1309 -0.0807 -0.0207
 1077YOPC   C4A15412  17.900  15.013   7.577 -0.2569  0.2766  0.2534
 1077YOPC   C1B15413  18.445  14.202   6.641  0.2407 -0.2806  0.0336
 1077YOPC   C2B15414  18.691  14.157   7.009 -0.2515  0.2336  0.1704
 1077YOPC   D3B15415  18.741  14.519   7.181  0.4245 -0.0325  0.1042
 1077YOPC   C4B15416  18.771  14.570   7.643  0.0008 -0.2031 -0.2159
 1078YOPC   NC315417  12.640  13.456   5.626 -0.1524 -0.1384 -0.0804
 1078YOPC   PO415418  13.012  13.615   5.550 -0.2436  0.0554 -0.0588
 1078YOPC   GL115419  12.869  13.829   5.993  0.0801  0.1795 -0.1107
 1078YOPC   GL215420  12.798  14.103   6.158  0.2110  0.2139  0.2782
 1078YOPC   C1A15421  12.601  13.649   6.293 -0.2590 -0.2864 -0.0039
 1078YOPC   D2A15422  12.465  13.507   6.613  0.0857 -0.0824  0.0138
 1078YOPC   C3A15423  12.492  13.388   7.038  0.0620 -0.0462 -0.1033
 1078YOPC   C4A15424  12.419  13.030   7.352 -0.0945  0.1901 -0.0457
 1078YOPC   C1B15425  12.464  14.211   6.384 -0.2241 -0.0565 -0.0250
 1078YOPC   C2B15426  12.329  14.358   6.814 -0.1153 -0.0805  0.1185
 1078YOPC   D3B15427  12.416  14.805   6.890  0.0081  0.2690 -0.2691
 1078YOPC   C4B15428  12.796  15.146   6.691  0.0724 -0.1351  0.0966
 1079YOPC   NC315429   2.564  15.001   5.418 -0.0983  0.1923  0.0927
 1079YOPC   PO415430   2.926  15.031   5.727 -0.2452  0.0701 -0.2374
 1079YOPC   GL115431   2.918  14.875   6.192  0.3142  0.1978  0.1334
 1079YOPC   GL215432   2.848  14.489   6.303  0.0367  0.0782  0.2800
 1079YOPC   C1A15433   3.018  14.960   6.674 -0.3307  0.0751  0.0683
 1079YOPC   D2A15434   3.312  15.139   6.968  0.3686  0.2928 -0.0869
 1079YOPC   C3A15435   3.159  15.251   7.321  0.1545  0.2367 -0.4085
 1079YOPC   C4A15436   2.886  15.508   7.574 -0.1174 -0.1913  0.2355
 1079YOPC   C1B15437   2.946  14.519   6.760 -0.0951 -0.0525  0.1038
 1079YOPC   C2B15438   3.000  14.706   7.126 -0.1151 -0.0517  0.1789
 1079YOPC   D3B15439   3.084  14.623   7.508 -0.1852  0.1701 -0.0506
 1079YOPC   C4B15440   2.854  14.414   7.806  0.0150  0.0542 -0.3015
 1080YOPC   NC315441   5.124  15.166   5.408  0.1019  0.0409 -0.2786
 1080YOPC   PO415442   5.387  15.321   5.695 -0.0309  0.0608  0.2971
 1080YOPC   GL115443   5.449  15.306   6.157  0.0497  0.1390 -0.0671
 1080YOPC   GL215444   5.228  15.208   6.342 -0.5511 -0.2063  0.1293
 1080YOPC   C1A15445   5.652  15.457   6.544  0.0773  0.0649  0.4047
 1080YOPC   D2A15446   5.666  15.376   7.045  0.4331  0.0850 -0.2087
 1080YOPC   C3A15447   5.849  15.617   7.324  0.2235 -0.0158 -0.0716
 1080YOPC   C4A15448   6.059  15.882   7.556  0.0263  0.0616 -0.1770
 1080YOPC   C1B15449   5.188  15.496   6.665  0.2057  0.0447 -0.0223
 1080YOPC   C2B15450   5.187  15.533   7.140 -0.2283 -0.3859 -0.0400
 1080YOPC   D3B15451   5.426  15.359   7.501  0.4901 -0.0204  0.0333
 1080YOPC   C4B15452   5.634  15.427   7.769 -0.2701  0.0909  0.0861
 1081YOPC   NC315453  11.982  13.782   5.495 -0.2359  0.0817 -0.1444
 1081YOPC   PO415454  12.110  13.360   5.301 -0.1089 -0.1364 -0.2527
 1081YOPC   GL115455  11.787  13.255   5.658 -0.5104 -0.1202 -0.3994
 1081YOPC   GL215456  11.743  13.549   5.887 -0.1878  0.2068 -0.2316
 1081YOPC   C1A15457  11.491  13.025   5.787 -0.2235 -0.0045  0.3420
 1081YOPC   D2A15458  11.095  13.120   5.986  0.1557  0.3400 -0.1505
 1081YOPC   C3A15459  11.008  13.585   6.156 -0.3635  0.2397 -0.1071
 1081YOPC   C4A15460  10.731  13.692   6.518  0.0202 -0.0861  0.2268
 1081YOPC   C1B15461  11.502  13.444   6.134  0.0235 -0.1499 -0.1380
 1081YOPC   C2B15462  11.314  13.463   6.585 -0.1283 -0.2244  0.2843
 1081YOPC   D3B15463  11.142  13.918   6.652  0.0689 -0.1066  0.3131
 1081YOPC   C4B15464  11.410  14.290   6.547 -0.4767 -0.0268 -0.1752
 1082YOPC   NC315465   0.400  16.976   6.009  0.0405 -0.0383  0.0711
 1082YOPC   PO415466   0.089  17.444   6.052 -0.0287  0.1935  0.0445
 1082YOPC   GL115467  -0.030  17.630   6.541  0.0241  0.1072 -0.0418
 1082YOPC   GL215468  -0.184  17.960   6.500 -0.0684  0.1111 -0.1135
 1082YOPC   C1A15469  -0.152  17.473   7.063 -0.0879  0.0747  0.2954
 1082YOPC   D2A15470  -0.200  17.707   7.420  0.0503  0.1505  0.0059
 1082YOPC   C3A15471   0.123  17.849   7.601  0.2572  0.1338 -0.2401
 1082YOPC   C4A15472   0.374  17.643   7.795  0.0375  0.0394  0.0797
 1082YOPC   C1B15473  -0.391  17.828   6.802  0.4299  0.0552 -0.1640
 1082YOPC   C2B15474  -0.654  17.632   7.163  0.2249  0.4108 -0.0351
 1082YOPC   D3B15475  -0.454  17.270   7.354  0.1758  0.0953 -0.1623
 1082YOPC   C4B15476  -0.707  17.016   7.468  0.2466  0.0589  0.0141
 1083YOPC   NC315477  15.445   6.301   5.682  0.2778  0.0517 -0.4700
 1083YOPC   PO415478  15.070   6.486   5.765  0.0636  0.4267 -0.0996
 1083YOPC   GL115479  15.102   6.376   6.202  0.1430 -0.0419  0.1357
 1083YOPC   GL215480  14.805   6.086   6.336 -0.4968 -0.4368  0.0778
 1083YOPC   C1A15481  14.837   6.550   6.462 -0.4127  0.1063 -0.1124
 1083YOPC   D2A15482  15.004   6.759   6.797  0.1100 -0.3824 -0.2738
 1083YOPC   C3A15483  15.133   6.781   7.219  0.0466  0.0494  0.1224
 1083YOPC   C4A15484  15.156   7.113   7.551 -0.1551 -0.0974  0.0942
 1083YOPC   C1B15485  14.643   6.174   6.720  0.2107 -0.3286  0.1412
 1083YOPC   C2B15486  14.740   6.471   7.143  0.1365  0.3020 -0.1003
 1083YOPC   D3B15487  14.871   6.117   7.350 -0.0282 -0.2159  0.0040
 1083YOPC   C4B15488  14.964   5.990   7.772 -0.1358  0.0137  0.1611
 1084YOPC   NC315489  10.380   5.652   5.405 -0.3064  0.1869 -0.0926
 1084YOPC   PO415490  10.155   5.240   5.504 -0.3032  0.0721 -0.0120
 1084YOPC   GL115491  10.168   5.183   5.965  0.1323  0.1377  0.2012
 1084YOPC   GL215492  10.427   5.235   6.275 -0.1384  0.0759  0.1817
 1084YOPC   C1A15493   9.915   5.199   6.365 -0.0068 -0.0187  0.0839
 1084YOPC   D2A15494   9.796   5.035   6.796  0.0516  0.2240  0.2613
 1084YOPC   C3A15495   9.649   5.243   7.089  0.2195  0.0925  0.0377
 1084YOPC   C4A15496   9.636   5.162   7.502  0.3799  0.1015  0.4173
 1084YOPC   C1B15497  10.345   5.281   6.659  0.1560 -0.1546 -0.1436
 1084YOPC   C2B15498  10.189   5.243   7.044 -0.1279  0.4219  0.0557
 1084YOPC   D3B15499  10.172   5.224   7.472  0.0495  0.0167  0.1142
 1084YOPC   C4B15500  10.047   5.013   7.806 -0.1983  0.0285  0.0234
 1085YOPC   NC315501  11.730  12.086   5.560  0.1854 -0.0405  0.0655
 1085YOPC   PO415502  11.997  12.253   5.517  0.2124  0.1763 -0.2736
 1085YOPC   GL115503  11.945  12.279   5.958 -0.1237  0.1090  0.0444
 1085YOPC   GL215504  11.709  12.541   6.055 -0.2399  0.6148  0.2961
 1085YOPC   C1A15505  11.906  12.082   6.337 -0.3019 -0.4127 -0.0921
 1085YOPC   D2A15506  11.930  11.823   6.615  0.0492 -0.0154  0.1195
 1085YOPC   C3A15507  12.014  11.948   6.921  0.1227 -0.0943  0.0220
 1085YOPC   C4A15508  12.032  12.197   7.251  0.1276 -0.2765 -0.1173
 1085YOPC   C1B15509  11.358  12.593   6.070 -0.0522 -0.2095 -0.0828
 1085YOPC   C2B15510  11.152  12.786   6.447  0.1770  0.1730  0.2557
 1085YOPC   D3B15511  11.320  12.838   6.831  0.0823  0.1581 -0.1658
 1085YOPC   C4B15512  11.203  12.571   7.296  0.3159  0.0177 -0.1206
 1086YOPC   NC315513  17.121  17.243   6.384 -0.0260 -0.1778 -0.1239
 1086YOPC   PO415514  17.498  17.446   6.303  0.0088  0.0408  0.0204
 1086YOPC   GL115515  17.590  17.227   6.697  0.0829  0.0971 -0.3208
 1086YOPC   GL215516  17.956  17.328   6.730 -0.0710 -0.1737 -0.2005
 1086YOPC   C1A15517  17.402  17.258   7.137 -0.2283  0.2152  0.0468
 1086YOPC   D2A15518  17.337  17.285   7.674  0.1441  0.0247 -0.1549
 1086YOPC   C3A15519  17.096  17.580   7.934  0.0422 -0.2151 -0.1765
 1086YOPC   C4A15520  17.212  17.932   8.201 -0.3157  0.2462 -0.0455
 1086YOPC   C1B15521  17.856  16.959   7.017 -0.0385 -0.2329 -0.1820
 1086YOPC   C2B15522  18.145  16.760   7.307  0.1531  0.1310 -0.5309
 1086YOPC   D3B15523  17.782  16.591   7.676 -0.0483 -0.3672  0.0175
 1086YOPC   C4B15524  17.385  16.556   7.874  0.0354 -0.1921 -0.1822
 1087YOPC   NC315525   7.358  11.982   5.352 -0.1973  0.0988  0.0535
 1087YOPC   PO415526   7.720  12.115   5.633 -0.0767 -0.0827  0.0177
 1087YOPC   GL115527   7.644  11.839   5.908 -0.0788 -0.2687  0.5953
 1087YOPC   GL215528   7.873  11.599   5.862  0.0005 -0.2763 -0.2618
 1087YOPC   C1A15529   7.250  11.711   6.052 -0.1884 -0.1025 -0.1841
 1087YOPC   D2A15530   6.967  11.501   6.411 -0.0371 -0.1402 -0.3073
 1087YOPC   C3A15531   7.240  11.438   6.710  0.2472 -0.1666  0.1465
 1087YOPC   C4A15532   7.406  11.219   7.053 -0.0989  0.2213 -0.1268
 1087YOPC   C1B15533   7.676  11.546   6.304  0.1753 -0.2840 -0.3078
 1087YOPC   C2B15534   7.654  11.147   6.558  0.0931 -0.2192  0.0122
 1087YOPC   D3B15535   7.922  11.108   6.833 -0.3243 -0.4191 -0.2852
 1087YOPC   C4B15536   7.897  11.269   7.231  0.1848  0.2381 -0.0388
 1088YOPC   NC315537   2.423  16.847   6.215 -0.0700  0.1832  0.1481
 1088YOPC   PO415538   2.832  17.016   6.045 -0.0319  0.0263 -0.3191
 1088YOPC   GL115539   2.866  16.859   6.512  0.3766 -0.3617  0.2330
 1088YOPC   GL215540   2.612  17.093   6.712 -0.1183 -0.0277  0.0294
 1088YOPC   C1A15541   2.747  16.629   6.910 -0.1264 -0.2308 -0.1700
 1088YOPC   D2A15542   2.613  16.508   7.256  0.1600 -0.0526 -0.1668
 1088YOPC   C3A15543   2.561  16.855   7.613  0.3095  0.3876  0.1118
 1088YOPC   C4A15544   2.692  17.079   7.981  0.0461  0.3249 -0.0568
 1088YOPC   C1B15545   2.711  17.076   7.156  0.2938 -0.2812 -0.0679
 1088YOPC   C2B15546   2.759  17.343   7.533  0.0233 -0.1887 -0.1037
 1088YOPC   D3B15547   2.504  17.541   7.914  0.0705  0.1214 -0.0872
 1088YOPC   C4B15548   2.748  17.855   8.092  0.0555 -0.0658 -0.2000
 1089YOPC   NC315549   9.159   3.294   5.333  0.0527 -0.0564 -0.3139
 1089YOPC   PO415550   9.398   3.170   5.737  0.1239  0.0955  0.1592
 1089YOPC   GL115551   9.733   3.043   6.044 -0.1671  0.0874 -0.0647
 1089YOPC   GL215552   9.838   2.636   6.044 -0.0242  0.0400 -0.0001
 1089YOPC   C1A15553   9.888   3.001   6.447  0.1023  0.1707 -0.1665
 1089YOPC   D2A15554   9.845   2.725   6.690 -0.2171  0.0820 -0.1338
 1089YOPC   C3A15555   9.579   2.872   7.074 -0.0897 -0.0615 -0.1073
 1089YOPC   C4A15556   9.299   3.117   7.197  0.3627  0.0745  0.1163
 1089YOPC   C1B15557   9.381   2.728   6.299 -0.0591 -0.1383  0.3654
 1089YOPC   C2B15558   9.220   2.566   6.595 -0.1458 -0.0702 -0.2222
 1089YOPC   D3B15559   9.525   2.337   6.963 -0.0339 -0.1459  0.0440
 1089YOPC   C4B15560   9.367   2.620   7.445  0.0731  0.1190 -0.1897
 1090YOPC   NC315561   6.644  12.721   5.388  0.0451 -0.2510  0.0593
 1090YOPC   PO415562   6.476  12.315   5.569  0.3402  0.0093  0.1522
 1090YOPC   GL115563   6.516  12.276   6.027 -0.2967  0.1244 -0.1901
 1090YOPC   GL215564   6.835  12.082   6.215  0.0273 -0.0561  0.1356
 1090YOPC   C1A15565   6.391  12.081   6.420 -0.1031  0.0832 -0.2599
 1090YOPC   D2A15566   6.376  11.610   6.538 -0.2192 -0.0202  0.3244
 1090YOPC   C3A15567   6.360  11.540   7.002  0.3670 -0.2616 -0.3417
 1090YOPC   C4A15568   6.152  11.384   7.393  0.0331 -0.0633 -0.0869
 1090YOPC   C1B15569   6.859  12.036   6.586  0.0863  0.1358 -0.1745
 1090YOPC   C2B15570   6.876  11.732   6.846 -0.0583 -0.3073 -0.0197
 1090YOPC   D3B15571   7.104  11.595   7.203  0.2044 -0.2125 -0.0799
 1090YOPC   C4B15572   7.401  11.418   7.556  0.0516  0.2108  0.0650
 1091YOPC   NC315573  12.904   5.705   5.322  0.1530 -0.1137  0.1224
 1091YOPC   PO415574  12.855   5.912   5.746 -0.3543  0.1076  0.0763
 1091YOPC   GL115575  13.032   6.078   6.108  0.2445  0.0298 -0.1913
 1091YOPC   GL215576  12.830   5.934   6.298 -0.0641  0.0053 -0.1050
 1091YOPC   C1A15577  13.292   6.316   6.445  0.1426  0.1170  0.2971
 1091YOPC   D2A15578  13.305   6.414   6.867 -0.0727  0.0560 -0.0388
 1091YOPC   C3A15579  13.391   6.479   7.306 -0.2777 -0.1136 -0.2475
 1091YOPC   C4A15580  13.058   6.369   7.542 -0.1922 -0.1057  0.0960
 1091YOPC   C1B15581  12.818   6.307   6.577 -0.0412  0.2477 -0.2352
 1091YOPC   C2B15582  12.785   6.412   7.101 -0.0853 -0.1788  0.0673
 1091YOPC   D3B15583  12.665   6.113   7.427  0.0349 -0.0154  0.1695
 1091YOPC   C4B15584  12.745   5.789   7.741 -0.0954 -0.1480  0.0075
 1092YOPC   NC315585  11.110   2.690   5.771 -0.1498 -0.2519  0.2893
 1092YOPC   PO415586  11.540   2.835   5.905 -0.4165 -0.0086  0.2143
 1092YOPC   GL115587  11.460   2.598   6.196  0.2006 -0.1668  0.1958
 1092YOPC   GL215588  11.221   2.791   6.369 -0.1957 -0.1324 -0.0252
 1092YOPC   C1A15589  11.655   2.605   6.552 -0.1602 -0.0804 -0.3876
 1092YOPC   D2A15590  11.952   2.840   6.760 -0.0195  0.1318 -0.2185
 1092YOPC   C3A15591  11.856   2.806   7.289  0.3749 -0.1305 -0.0578
 1092YOPC   C4A15592  11.636   2.716   7.657  0.2122 -0.0085  0.1774
 1092YOPC   C1B15593  11.115   2.615   6.765  0.0270  0.0464  0.4888
 1092YOPC   C2B15594  10.759   2.633   7.065 -0.1351  0.2080  0.1462
 1092YOPC   D3B15595  10.673   2.539   7.521 -0.0635 -0.0381  0.2573
 1092YOPC   C4B15596  10.650   2.886   7.864 -0.0486  0.0444  0.3185
 1093YOPC   NC315597   8.308   3.124   5.756 -0.1755  0.0739 -0.0175
 1093YOPC   PO415598   7.980   2.839   5.898 -0.3163  0.1314 -0.0885
 1093YOPC   GL115599   8.089   2.889   6.335  0.1513  0.2241 -0.1070
 1093YOPC   GL215600   8.443   2.926   6.412  0.2426 -0.0733 -0.0119
 1093YOPC   C1A15601   7.990   2.856   6.840 -0.0461  0.2351  0.2003
 1093YOPC   D2A15602   7.989   2.982   7.252  0.0787  0.0743  0.4316
 1093YOPC   C3A15603   7.768   2.852   7.523  0.1556  0.2410 -0.1146
 1093YOPC   C4A15604   7.811   2.909   7.914 -0.0991 -0.0066 -0.1133
 1093YOPC   C1B15605   8.747   3.085   6.541 -0.1961  0.3094  0.2910
 1093YOPC   C2B15606   8.876   3.145   6.909  0.0653  0.1197 -0.0870
 1093YOPC   D3B15607   9.010   2.682   7.078 -0.1650 -0.2273 -0.3271
 1093YOPC   C4B15608   9.025   2.225   6.943  0.0532  0.0839  0.1385
 1094YOPC   NC315609   8.128  14.265   5.228  0.0177 -0.2695  0.1876
 1094YOPC   PO415610   8.159  14.574   5.555 -0.4363 -0.3245 -0.5169
 1094YOPC   GL115611   8.054  14.535   6.017 -0.2216 -0.2501  0.3268
 1094YOPC   GL215612   8.302  14.670   6.280 -0.0936  0.0405  0.1477
 1094YOPC   C1A15613   7.799  14.788   6.259  0.2431  0.0483 -0.1609
 1094YOPC   D2A15614   7.412  15.013   6.322 -0.2850 -0.1317  0.0605
 1094YOPC   C3A15615   7.312  15.260   6.694  0.0985  0.0892 -0.2335
 1094YOPC   C4A15616   7.358  15.240   7.127  0.2762  0.2643 -0.0035
 1094YOPC   C1B15617   8.399  14.297   6.309 -0.2530  0.0881  0.2005
 1094YOPC   C2B15618   8.129  13.972   6.313  0.1523  0.1036  0.0756
 1094YOPC   D3B15619   8.020  13.868   6.669  0.0245  0.0683 -0.3478
 1094YOPC   C4B15620   7.956  14.114   7.045 -0.1673  0.3071  0.0174
 1095YOPC   NC315621  15.728  17.058   6.206  0.0694  0.0428 -0.2318
 1095YOPC   PO415622  15.832  16.680   6.041 -0.0144 -0.1902 -0.0212
 1095YOPC   GL115623  15.904  16.373   6.398  0.1351 -0.2183 -0.0259
 1095YOPC   GL215624  16.219  16.238   6.540  0.1221  0.1096  0.2030
 1095YOPC   C1A15625  15.861  16.293   6.833  0.2746 -0.2267 -0.0743
 1095YOPC   D2A15626  15.542  16.237   7.172 -0.1783  0.1833 -0.2037
 1095YOPC   C3A15627  15.732  16.069   7.535  0.2397 -0.2579  0.1953
 1095YOPC   C4A15628  16.048  15.802   7.809 -0.1038 -0.3943 -0.3335
 1095YOPC   C1B15629  16.386  16.240   6.912  0.2651  0.0226 -0.2984
 1095YOPC   C2B15630  16.170  16.100   7.309  0.2391 -0.0285  0.3758
 1095YOPC   D3B15631  16.158  16.337   7.669  0.2065 -0.1968  0.2687
 1095YOPC   C4B15632  15.955  16.348   8.120  0.0621  0.0621  0.1227
 1096YOPC   NC315633   2.237   5.121   5.866 -0.0014  0.1942 -0.0007
 1096YOPC   PO415634   1.842   5.407   5.960  0.1100  0.1610  0.1327
 1096YOPC   GL115635   1.535   5.240   6.331  0.0488 -0.1168  0.4521
 1096YOPC   GL215636   1.272   5.052   6.270  0.0240  0.0775 -0.1260
 1096YOPC   C1A15637   1.680   5.358   6.726 -0.1204 -0.1423  0.0013
 1096YOPC   D2A15638   2.059   5.431   6.985 -0.1628  0.4525  0.1300
 1096YOPC   C3A15639   2.067   5.869   6.982  0.0895 -0.0238  0.1576
 1096YOPC   C4A15640   1.936   6.151   6.718  0.0841  0.0675 -0.1673
 1096YOPC   C1B15641   1.238   5.154   6.703  0.0162 -0.2197 -0.0216
 1096YOPC   C2B15642   1.394   5.151   7.167  0.1263 -0.0758  0.1171
 1096YOPC   D3B15643   1.723   5.294   7.469  0.0901  0.2649 -0.0653
 1096YOPC   C4B15644   1.568   5.366   7.828 -0.1824  0.1522 -0.2081
 1097YOPC   NC315645  12.524  14.364   5.222 -0.1909 -0.3160 -0.1655
 1097YOPC   PO415646  12.359  14.501   5.541 -0.1713  0.1307 -0.1320
 1097YOPC   GL115647  12.384  14.634   5.899 -0.2745  0.2382  0.3631
 1097YOPC   GL215648  12.469  14.950   6.054  0.4854 -0.2029  0.1680
 1097YOPC   C1A15649  12.256  14.668   6.403 -0.0142  0.0350 -0.0126
 1097YOPC   D2A15650  11.960  14.689   6.712  0.0937 -0.1375 -0.1351
 1097YOPC   C3A15651  12.021  14.680   7.133 -0.0242  0.2786  0.0501
 1097YOPC   C4A15652  12.245  14.321   7.335  0.2479 -0.4710 -0.0223
 1097YOPC   C1B15653  12.386  15.133   6.361  0.2468  0.0594  0.0221
 1097YOPC   C2B15654  12.195  15.265   6.720  0.3146 -0.0663 -0.1038
 1097YOPC   D3B15655  12.229  15.170   7.196  0.0971 -0.1649  0.0696
 1097YOPC   C4B15656  12.466  14.847   7.399 -0.0370  0.0647  0.1319
 1098YOPC   NC315657   3.085   6.101   6.082 -0.2152  0.0359  0.5226
 1098YOPC   PO415658   2.790   6.485   6.063  0.0716  0.0529 -0.0074
 1098YOPC   GL115659   3.098   6.564   6.359 -0.3007 -0.1592 -0.0251
 1098YOPC   GL215660   3.038   6.264   6.550 -0.0281 -0.0401  0.0447
 1098YOPC   C1A15661   3.217   6.734   6.717 -0.3957  0.2882  0.0392
 1098YOPC   D2A15662   3.234   6.371   7.036 -0.1304 -0.0897  0.2338
 1098YOPC   C3A15663   3.326   5.951   6.904 -0.1155  0.0242  0.0500
 1098YOPC   C4A15664   3.367   5.553   7.129 -0.2751  0.0867 -0.2709
 1098YOPC   C1B15665   2.802   5.986   6.753  0.1030  0.1386  0.3082
 1098YOPC   C2B15666   2.488   6.156   6.863 -0.0089 -0.0073 -0.0724
 1098YOPC   D3B15667   2.433   6.097   7.262 -0.1292 -0.0273  0.0741
 1098YOPC   C4B15668   2.546   6.023   7.653 -0.0652 -0.0047  0.2649
 1099YOPC   NC315669   9.201  14.343   5.543 -0.0137  0.2894  0.0449
 1099YOPC   PO415670   8.961  13.965   5.686 -0.5284  0.2274 -0.1383
 1099YOPC   GL115671   9.060  13.985   6.118 -0.0207  0.2474 -0.1090
 1099YOPC   GL215672   8.644  13.924   6.217 -0.0072 -0.0579 -0.0026
 1099YOPC   C1A15673   8.986  13.907   6.535 -0.2196 -0.0832 -0.0106
 1099YOPC   D2A15674   8.703  14.091   6.741  0.0805 -0.1733 -0.3114
 1099YOPC   C3A15675   8.520  14.113   7.174 -0.0781 -0.2466  0.3620
 1099YOPC   C4A15676   8.145  13.880   7.460 -0.4038  0.1810  0.1853
 1099YOPC   C1B15677   8.530  13.597   6.448  0.0733  0.3858 -0.0903
 1099YOPC   C2B15678   8.383  13.525   6.856  0.0263 -0.2879 -0.0735
 1099YOPC   D3B15679   8.378  13.086   7.136 -0.0229  0.3404  0.2639
 1099YOPC   C4B15680   8.410  13.133   7.607 -0.0048 -0.1806 -0.0229
 1100YOPC   NC315681   5.692  10.231   5.426  0.3221  0.3464  0.0609
 1100YOPC   PO415682   5.287  10.359   5.732  0.0883  0.2899  0.0548
 1100YOPC   GL115683   5.401  10.365   6.239  0.2263  0.3934  0.2597
 1100YOPC   GL215684   5.267  10.435   6.369 -0.0429  0.5143  0.0304
 1100YOPC   C1A15685   5.613  10.190   6.674  0.2476 -0.2336 -0.1115
 1100YOPC   D2A15686   5.806  10.302   6.999 -0.2429  0.0393 -0.0675
 1100YOPC   C3A15687   5.907   9.985   7.318  0.0816  0.0027 -0.0729
 1100YOPC   C4A15688   5.847   9.503   7.260  0.0741 -0.3863 -0.0016
 1100YOPC   C1B15689   5.304  10.533   6.822  0.0103  0.1464  0.1421
 1100YOPC   C2B15690   5.306  10.334   7.214 -0.2687  0.2426 -0.2828
 1100YOPC   D3B15691   5.666  10.361   7.479  0.0289 -0.0396  0.1259
 1100YOPC   C4B15692   5.995  10.284   7.752 -0.0266 -0.2757 -0.2748
 1101YOPC   NC315693   0.867   9.642   6.151  0.0556  0.0250 -0.1061
 1101YOPC   PO415694   0.673  10.037   6.142  0.0982  0.0487  0.0727
 1101YOPC   GL115695   0.498  10.001   6.419 -0.0840  0.4788 -0.0082
 1101YOPC   GL215696   0.730  10.075   6.661 -0.0619  0.1361  0.1815
 1101YOPC   C1A15697   0.313   9.819   6.801 -0.1659  0.0706 -0.1766
 1101YOPC   D2A15698   0.081  10.063   7.209 -0.0019  0.2683 -0.1037
 1101YOPC   C3A15699   0.039  10.007   7.574 -0.2299 -0.0433 -0.1691
 1101YOPC   C4A15700   0.159   9.926   8.086  0.1278 -0.2143 -0.0600
 1101YOPC   C1B15701   0.718  10.027   7.024  0.1284  0.0253  0.0883
 1101YOPC   C2B15702   0.555   9.955   7.409  0.2193  0.0693 -0.0030
 1101YOPC   D3B15703   0.426   9.738   7.731 -0.0603  0.1398  0.0202
 1101YOPC   C4B15704  -0.003   9.440   7.771  0.1148  0.0309 -0.2382
 1102YOPC   NC315705  15.705   0.403   6.000 -0.3000 -0.1002 -0.2758
 1102YOPC   PO415706  15.858   0.011   5.785 -0.3516 -0.1606 -0.2166
 1102YOPC   GL115707  15.698  -0.056   6.182  0.3304 -0.3367  0.0505
 1102YOPC   GL215708  15.730  -0.372   6.348  0.1776  0.1613  0.0429
 1102YOPC   C1A15709  15.829   0.115   6.659  0.4265  0.0975 -0.2089
 1102YOPC   D2A15710  16.050   0.287   6.900 -0.0249  0.1447  0.2459
 1102YOPC   C3A15711  16.367   0.061   7.247 -0.0822 -0.0613 -0.1548
 1102YOPC   C4A15712  16.558   0.044   7.673  0.2452 -0.0210  0.3557
 1102YOPC   C1B15713  15.918  -0.408   6.784  0.0343 -0.1324 -0.1571
 1102YOPC   C2B15714  15.931  -0.171   7.157  0.3766 -0.0168  0.3851
 1102YOPC   D3B15715  16.048  -0.333   7.594  0.2440  0.1098  0.0750
 1102YOPC   C4B15716  16.158  -0.084   7.944 -0.2642 -0.4023 -0.1203
 1103YOPC   NC315717   7.746  10.889   5.088 -0.0148  0.1825  0.2542
 1103YOPC   PO415718   7.826  10.659   5.519 -0.0672  0.0906  0.0643
 1103YOPC   GL115719   7.862  10.688   6.012 -0.0818 -0.2999 -0.0750
 1103YOPC   GL215720   7.727  10.953   6.042 -0.3019 -0.0108  0.2920
 1103YOPC   C1A15721   8.029  10.762   6.454  0.0893 -0.0385  0.1267
 1103YOPC   D2A15722   8.089  10.610   6.789 -0.0822  0.2968  0.1969
 1103YOPC   C3A15723   8.125  10.711   7.061 -0.2425 -0.0260  0.5015
 1103YOPC   C4A15724   7.992  10.807   7.394  0.3058 -0.1580 -0.3571
 1103YOPC   C1B15725   8.037  11.235   6.222 -0.1654 -0.1050 -0.0124
 1103YOPC   C2B15726   8.208  11.524   6.359  0.1005  0.2660  0.3479
 1103YOPC   D3B15727   8.208  11.625   6.768  0.2589 -0.2111  0.2530
 1103YOPC   C4B15728   8.519  11.733   6.989  0.1152 -0.0302  0.0809
 1104YOPC   NC315729   4.001   7.029   5.568 -0.0830  0.1444 -0.2781
 1104YOPC   PO415730   3.884   7.122   5.921 -0.0749 -0.2044 -0.0619
 1104YOPC   GL115731   4.028   7.056   6.247 -0.0848  0.0480 -0.0204
 1104YOPC   GL215732   3.737   7.258   6.426  0.1393  0.1594  0.2164
 1104YOPC   C1A15733   4.161   7.122   6.702 -0.1218 -0.2559  0.2687
 1104YOPC   D2A15734   4.330   6.866   7.080 -0.2212 -0.2645 -0.1110
 1104YOPC   C3A15735   4.505   6.871   7.529  0.2363 -0.2336 -0.1731
 1104YOPC   C4A15736   4.476   6.487   7.628  0.1774  0.0332  0.1766
 1104YOPC   C1B15737   3.637   7.021   6.830 -0.2425  0.0821  0.0615
 1104YOPC   C2B15738   3.437   6.849   7.173  0.2214 -0.3251  0.0988
 1104YOPC   D3B15739   3.629   7.177   7.323  0.0107 -0.0879  0.1506
 1104YOPC   C4B15740   3.757   7.417   7.660  0.0061  0.1822  0.0117
 1105YOPC   NC315741  16.408  16.884   5.958  0.0401  0.1431 -0.3976
 1105YOPC   PO415742  16.711  16.937   6.293 -0.0875  0.0120 -0.0803
 1105YOPC   GL115743  16.601  17.101   6.713 -0.2355  0.0067  0.1354
 1105YOPC   GL215744  16.538  17.438   6.685  0.2410 -0.5271 -0.0920
 1105YOPC   C1A15745  16.466  16.849   6.948 -0.2244  0.0763 -0.0179
 1105YOPC   D2A15746  16.491  16.621   7.313 -0.0249  0.0163  0.0045
 1105YOPC   C3A15747  16.521  16.713   7.824  0.0489 -0.0410  0.3269
 1105YOPC   C4A15748  16.575  17.130   7.910 -0.2462  0.0813 -0.2351
 1105YOPC   C1B15749  16.595  17.353   7.132  0.0179 -0.0102 -0.0806
 1105YOPC   C2B15750  16.507  17.126   7.430  0.1432 -0.1869  0.1833
 1105YOPC   D3B15751  16.248  17.445   7.682 -0.1633  0.4462 -0.0366
 1105YOPC   C4B15752  16.060  17.720   7.950 -0.0075 -0.0210 -0.1599
 1106YOPC   NC315753  14.465  14.725   5.783 -0.1762  0.3092 -0.2234
 1106YOPC   PO415754  14.609  14.333   6.059  0.0092 -0.0380 -0.2358
 1106YOPC   GL115755  14.664  14.322   6.524 -0.2184 -0.0044  0.2021
 1106YOPC   GL215756  14.808  14.600   6.602  0.1298  0.1558  0.4016
 1106YOPC   C1A15757  14.596  14.052   6.925 -0.1543 -0.0498 -0.1357
 1106YOPC   D2A15758  14.285  13.821   7.273  0.3196  0.2924 -0.2920
 1106YOPC   C3A15759  13.987  13.897   7.534  0.2368  0.2824  0.3186
 1106YOPC   C4A15760  14.014  13.726   7.898  0.2123 -0.1021 -0.2024
 1106YOPC   C1B15761  14.646  14.946   6.826  0.1366  0.1213 -0.0159
 1106YOPC   C2B15762  14.545  15.021   7.225  0.2699  0.1338 -0.0264
 1106YOPC   D3B15763  14.470  14.656   7.435  0.0132  0.0904 -0.0378
 1106YOPC   C4B15764  14.428  14.329   7.428  0.0992  0.0779  0.1477
 1107YOPC   NC315765   0.475   1.669   5.693 -0.1334  0.0519  0.1806
 1107YOPC   PO415766   0.259   1.385   5.997  0.1552 -0.0444 -0.0627
 1107YOPC   GL115767   0.091   1.213   6.387 -0.2758  0.1215 -0.0744
 1107YOPC   GL215768   0.379   1.046   6.603  0.3125 -0.2859  0.0481
 1107YOPC   C1A15769  -0.208   1.177   6.789  0.0001  0.1041  0.0275
 1107YOPC   D2A15770  -0.118   1.004   7.294  0.0694 -0.1098 -0.2188
 1107YOPC   C3A15771  -0.136   0.721   7.581  0.0712 -0.2657  0.3244
 1107YOPC   C4A15772   0.068   0.356   7.629  0.2899 -0.2311  0.1430
 1107YOPC   C1B15773   0.274   1.018   7.000  0.0739 -0.0201  0.0289
 1107YOPC   C2B15774   0.315   0.778   7.381  0.0557 -0.0226 -0.1543
 1107YOPC   D3B15775   0.266   1.005   7.795 -0.4517 -0.4247 -0.3549
 1107YOPC   C4B15776   0.260   1.268   8.112 -0.2226 -0.1302 -0.3682
 1108YOPC   NC315777  12.976   9.062   5.732  0.0968  0.0298  0.3051
 1108YOPC   PO415778  12.830   9.571   5.823  0.1217  0.2554  0.0563
 1108YOPC   GL115779  12.512   9.709   6.096  0.2798 -0.3665 -0.0708
 1108YOPC   GL215780  12.670   9.642   6.374 -0.3204 -0.2396 -0.1670
 1108YOPC   C1A15781  12.184   9.834   6.434  0.0060  0.2640 -0.1415
 1108YOPC   D2A15782  12.172   9.969   6.888 -0.0416  0.0659 -0.1489
 1108YOPC   C3A15783  12.072   9.566   7.012  0.1632  0.4728  0.0403
 1108YOPC   C4A15784  12.063   9.319   7.268 -0.0389  0.0368  0.0109
 1108YOPC   C1B15785  12.487   9.583   6.759 -0.0798  0.1348  0.2341
 1108YOPC   C2B15786  12.608   9.569   7.061  0.0829  0.2680 -0.1415
 1108YOPC   D3B15787  12.401   9.815   7.370 -0.1192  0.1266  0.4676
 1108YOPC   C4B15788  12.165  10.117   7.406 -0.2899 -0.1862  0.1231
 1109YOPC   NC315789   6.745   3.229   5.762 -0.0776  0.1980 -0.1906
 1109YOPC   PO415790   6.416   2.975   5.849  0.2280  0.2011 -0.2323
 1109YOPC   GL115791   6.114   3.021   6.183  0.0089  0.0393 -0.1919
 1109YOPC   GL215792   5.865   2.804   6.296  0.1486  0.1112 -0.2457
 1109YOPC   C1A15793   6.257   2.953   6.534  0.3589  0.0149 -0.1827
 1109YOPC   D2A15794   6.276   3.009   6.944  0.2902  0.0699 -0.2069
 1109YOPC   C3A15795   6.652   3.046   7.090  0.1580  0.1855  0.1477
 1109YOPC   C4A15796   7.101   3.074   6.932  0.0729 -0.0649  0.0919
 1109YOPC   C1B15797   5.881   2.798   6.812 -0.0538  0.2404  0.0861
 1109YOPC   C2B15798   5.759   2.694   7.226 -0.2736  0.0567 -0.1028
 1109YOPC   D3B15799   6.035   2.518   7.368 -0.0656  0.1174 -0.1185
 1109YOPC   C4B15800   6.388   2.404   7.264  0.2145  0.2205  0.0951
 1110YOPC   NC315801  15.955  11.143   5.579  0.0051 -0.0549 -0.2191
 1110YOPC   PO415802  15.623  10.898   5.715  0.1531  0.0639 -0.2336
 1110YOPC   GL115803  15.374  10.697   5.967 -0.0859  0.1187  0.4558
 1110YOPC   GL215804  15.255  10.820   6.275 -0.1474  0.0558  0.2596
 1110YOPC   C1A15805  15.487  10.343   6.297 -0.0507  0.0378  0.3432
 1110YOPC   D2A15806  15.410  10.086   6.613  0.0574  0.1072 -0.0117
 1110YOPC   C3A15807  15.536   9.910   6.951  0.0431  0.2394 -0.1707
 1110YOPC   C4A15808  15.689   9.825   7.383 -0.0953  0.0526 -0.0838
 1110YOPC   C1B15809  15.239  10.574   6.652 -0.0627 -0.2887  0.2188
 1110YOPC   C2B15810  15.158  10.339   6.982 -0.1359  0.3636 -0.1108
 1110YOPC   D3B15811  14.883  10.277   7.247  0.1971 -0.0004 -0.2249
 1110YOPC   C4B15812  14.830  10.189   7.679  0.0542 -0.0007  0.0185
 1111YOPC   NC315813   4.951  17.504   5.517 -0.2696  0.2607 -0.1836
 1111YOPC   PO415814   4.652  17.317   5.746 -0.3185 -0.1699 -0.1217
 1111YOPC   GL115815   4.812  17.329   6.194  0.2508 -0.0381 -0.1135
 1111YOPC   GL215816   4.601  17.548   6.408  0.1455  0.0919  0.0362
 1111YOPC   C1A15817   5.137  17.356   6.518 -0.0327 -0.1305  0.1331
 1111YOPC   D2A15818   5.544  17.351   6.772 -0.0470  0.1068  0.1809
 1111YOPC   C3A15819   5.608  17.278   7.271 -0.1453 -0.3397  0.2005
 1111YOPC   C4A15820   5.756  17.414   7.682 -0.0162  0.0585  0.0291
 1111YOPC   C1B15821   4.302  17.628   6.670 -0.1817  0.2026 -0.2057
 1111YOPC   C2B15822   3.930  17.756   6.731  0.0335  0.1302  0.1683
 1111YOPC   D3B15823   3.793  17.994   7.100  0.5683 -0.0335  0.1486
 1111YOPC   C4B15824   3.953  17.927   7.503 -0.1918  0.2071  0.2208
 1112YOPC   NC315825   3.284  16.838   6.058  0.2174 -0.0251 -0.0217
 1112YOPC   PO415826   3.400  17.232   6.209  0.1709 -0.1257 -0.5588
 1112YOPC   GL115827   3.516  17.318   6.649 -0.0805 -0.0448  0.1584
 1112YOPC   GL215828   3.453  17.592   6.632 -0.3473  0.2306  0.1320
 1112YOPC   C1A15829   3.646  17.420   7.063  0.3606 -0.1541 -0.1551
 1112YOPC   D2A15830   3.736  17.414   7.514  0.0738 -0.0055  0.1688
 1112YOPC   C3A15831   4.129  17.451   7.668  0.3996  0.2259 -0.2519
 1112YOPC   C4A15832   4.486  17.498   7.613 -0.0050 -0.0871 -0.1443
 1112YOPC   C1B15833   3.133  17.331   6.896  0.3082  0.1074  0.2129
 1112YOPC   C2B15834   3.213  17.375   7.323  0.3739  0.2463 -0.0685
 1112YOPC   D3B15835   3.084  16.933   7.474 -0.0877 -0.2231  0.0479
 1112YOPC   C4B15836   3.078  16.553   7.443 -0.0947 -0.0882  0.0424
 1113YOPC   NC315837   0.098   6.302   5.698 -0.1679  0.0591  0.2331
 1113YOPC   PO415838   0.442   6.436   5.529  0.0242 -0.1166 -0.3760
 1113YOPC   GL115839   0.530   6.418   5.997 -0.1268  0.2219  0.1698
 1113YOPC   GL215840   0.381   6.639   6.140  0.1024  0.5027  0.1398
 1113YOPC   C1A15841   0.427   6.288   6.486  0.3760  0.0894  0.3840
 1113YOPC   D2A15842   0.268   6.025   6.861  0.0351 -0.0997 -0.0376
 1113YOPC   C3A15843   0.321   6.121   7.112  0.0758 -0.0230  0.0896
 1113YOPC   C4A15844   0.551   6.160   7.461  0.2330  0.0365  0.0142
 1113YOPC   C1B15845   0.357   6.775   6.555 -0.2053 -0.2550 -0.1182
 1113YOPC   C2B15846   0.467   6.604   6.930  0.0945  0.3290 -0.2422
 1113YOPC   D3B15847   0.476   6.598   7.338  0.0813  0.1092  0.1211
 1113YOPC   C4B15848   0.542   6.622   7.760 -0.3431 -0.0408  0.0543
 1114YOPC   NC315849  12.392   2.222   6.149  0.0977  0.0003  0.2486
 1114YOPC   PO415850  12.823   2.408   6.174 -0.1226  0.0525 -0.2084
 1114YOPC   GL115851  13.111   2.496   6.382  0.1485  0.2005  0.0372
 1114YOPC   GL215852  13.138   2.783   6.518 -0.2367  0.0230  0.0336
 1114YOPC   C1A15853  13.431   2.458   6.678  0.0159  0.0017 -0.1023
 1114YOPC   D2A15854  13.513   2.074   6.496 -0.0424  0.1473  0.3022
 1114YOPC   C3A15855  13.186   1.808   6.597  0.1317 -0.1465  0.3653
 1114YOPC   C4A15856  12.782   1.789   6.864 -0.3562 -0.1283 -0.1756
 1114YOPC   C1B15857  12.980   2.785   6.860  0.0696  0.1683 -0.0090
 1114YOPC   C2B15858  12.898   2.857   7.240  0.0882  0.2063  0.2210
 1114YOPC   D3B15859  12.995   2.873   7.709 -0.0641  0.0531  0.0175
 1114YOPC   C4B15860  13.263   2.861   8.177 -0.2134 -0.3695  0.1950
 1115YOPC   NC315861   4.612   4.782   5.879  0.0365 -0.0747 -0.1767
 1115YOPC   PO415862   4.908   4.359   5.982 -0.0368 -0.1783  0.1691
 1115YOPC   GL115863   5.183   4.430   6.298 -0.1622  0.1819 -0.6019
 1115YOPC   GL215864   5.072   4.135   6.439 -0.3629 -0.1617  0.3735
 1115YOPC   C1A15865   5.243   4.583   6.693 -0.4185 -0.5101  0.2763
 1115YOPC   D2A15866   5.584   4.717   7.060 -0.0013 -0.0847  0.2232
 1115YOPC   C3A15867   5.624   5.106   7.287 -0.2513 -0.0828  0.2537
 1115YOPC   C4A15868   5.759   5.168   7.675  0.0738 -0.3736 -0.0437
 1115YOPC   C1B15869   5.311   4.054   6.822  0.1491 -0.0289  0.2277
 1115YOPC   C2B15870   5.353   4.299   7.199  0.1217 -0.0150  0.1298
 1115YOPC   D3B15871   5.349   4.181   7.663 -0.2525  0.0834  0.3309
 1115YOPC   C4B15872   5.467   4.135   8.103  0.1164  0.2205  0.1056
 1116YOPC   NC315873   2.129   1.255   6.097  0.1663  0.1331 -0.1886
 1116YOPC   PO415874   1.741   1.089   6.120 -0.1108 -0.2626 -0.2663
 1116YOPC   GL115875   1.601   1.106   6.531 -0.1630  0.2613 -0.1020
 1116YOPC   GL215876   1.415   1.385   6.566 -0.1044 -0.1086  0.0324
 1116YOPC   C1A15877   1.665   0.833   6.828 -0.0664  0.2173 -0.0998
 1116YOPC   D2A15878   2.049   0.669   7.097 -0.1541 -0.0647 -0.2265
 1116YOPC   C3A15879   2.114   0.613   7.522 -0.0421 -0.2264  0.1227
 1116YOPC   C4A15880   1.905   0.864   7.814 -0.0050  0.2045 -0.1804
 1116YOPC   C1B15881   1.425   1.248   6.959 -0.2628 -0.0907 -0.1906
 1116YOPC   C2B15882   1.667   1.369   7.381 -0.3138  0.3731  0.4112
 1116YOPC   D3B15883   1.791   1.339   7.811  0.0638 -0.1117 -0.3041
 1116YOPC   C4B15884   1.749   1.220   8.177 -0.0503  0.3765 -0.0070
 1117YOPC   NC315885   0.733  12.884   5.852 -0.1279  0.0860 -0.0827
 1117YOPC   PO415886   0.481  13.089   6.034  0.2400 -0.1756 -0.1366
 1117YOPC   GL115887   0.512  13.203   6.446 -0.0441  0.1205 -0.2310
 1117YOPC   GL215888   0.197  13.321   6.592  0.1588  0.1110  0.0392
 1117YOPC   C1A15889   0.623  13.215   6.867  0.3791 -0.0231 -0.0955
 1117YOPC   D2A15890   0.699  13.265   7.319  0.3518  0.2349  0.0753
 1117YOPC   C3A15891   0.882  12.931   7.608  0.2198 -0.1190  0.0662
 1117YOPC   C4A15892   0.883  12.761   7.957 -0.1492 -0.4845 -0.1543
 1117YOPC   C1B15893   0.183  13.313   7.105  0.2502  0.1086  0.0411
 1117YOPC   C2B15894   0.244  13.395   7.503  0.0062  0.5332 -0.1262
 1117YOPC   D3B15895   0.506  13.363   7.870  0.2642  0.0668 -0.0694
 1117YOPC   C4B15896   0.531  13.119   8.239  0.0780 -0.1690  0.0198
 1118YOPC   NC315897   7.025   0.599   6.033 -0.2367  0.0439  0.0606
 1118YOPC   PO415898   6.549   0.570   6.021  0.1148  0.0009  0.0620
 1118YOPC   GL115899   6.688   0.588   6.398  0.0056 -0.1665  0.0780
 1118YOPC   GL215900   6.726   0.914   6.541 -0.0887 -0.4910 -0.0614
 1118YOPC   C1A15901   6.814   0.511   6.828 -0.0845  0.1815 -0.1262
 1118YOPC   D2A15902   6.794   0.532   7.221 -0.0247 -0.3390 -0.0163
 1118YOPC   C3A15903   7.014   0.695   7.439  0.4059 -0.0742  0.3326
 1118YOPC   C4A15904   7.115   0.758   7.844 -0.2210 -0.0617  0.0231
 1118YOPC   C1B15905   6.394   0.740   6.894  0.0194  0.2844  0.4724
 1118YOPC   C2B15906   6.370   0.789   7.369 -0.2582 -0.1016  0.2826
 1118YOPC   D3B15907   6.719   1.064   7.566  0.2041 -0.4857 -0.3322
 1118YOPC   C4B15908   6.727   1.049   8.043 -0.1769  0.0083  0.3691
 1119YOPC   NC315909  17.809   3.752   5.901 -0.3822  0.0652 -0.1380
 1119YOPC   PO415910  17.505   3.712   6.139  0.5099  0.0501  0.0535
 1119YOPC   GL115911  17.594   3.724   6.523 -0.1152  0.0603 -0.2713
 1119YOPC   GL215912  17.534   3.386   6.620  0.0787 -0.2915  0.7195
 1119YOPC   C1A15913  17.877   3.613   6.820 -0.2242  0.0489 -0.1782
 1119YOPC   D2A15914  18.063   3.976   7.159  0.2067 -0.0616  0.1495
 1119YOPC   C3A15915  17.948   3.910   7.521  0.0325 -0.0957 -0.2781
 1119YOPC   C4A15916  17.903   3.784   7.981  0.0222  0.0572 -0.0920
 1119YOPC   C1B15917  17.647   3.094   7.060 -0.0510 -0.2472  0.1789
 1119YOPC   C2B15918  17.961   3.126   7.252 -0.0603  0.1559 -0.2555
 1119YOPC   D3B15919  18.208   3.531   7.302 -0.1030  0.2045 -0.0158
 1119YOPC   C4B15920  18.519   3.725   7.268 -0.1828  0.0872 -0.0590
 1120YOPC   NC315921   7.639   0.770   5.491  0.0772 -0.1019 -0.2589
 1120YOPC   PO415922   7.469   0.555   5.893 -0.0216  0.2679  0.6348
 1120YOPC   GL115923   7.482   0.401   6.258 -0.1501  0.1177 -0.2417
 1120YOPC   GL215924   7.823   0.248   6.465  0.3500 -0.3875  0.0345
 1120YOPC   C1A15925   7.306   0.378   6.705 -0.4255 -0.0847 -0.3117
 1120YOPC   D2A15926   7.327   0.465   7.082  0.0724  0.0885 -0.1115
 1120YOPC   C3A15927   7.545   0.129   7.215 -0.0089 -0.1327  0.5290
 1120YOPC   C4A15928   7.599  -0.038   7.586 -0.0713 -0.1886 -0.3438
 1120YOPC   C1B15929   7.879   0.401   6.913  0.1966 -0.6306  0.2595
 1120YOPC   C2B15930   7.805   0.670   7.206  0.0235 -0.2158  0.1435
 1120YOPC   D3B15931   7.823   1.207   7.159  0.3058 -0.0723 -0.0285
 1120YOPC   C4B15932   7.971   1.325   6.693 -0.0125 -0.1233 -0.1491
 1121YOPC   NC315933   5.834  16.572   5.421  0.0248 -0.3248  0.1775
 1121YOPC   PO415934   5.592  16.647   5.694 -0.0711  0.3089  0.2750
 1121YOPC   GL115935   5.746  16.598   6.063 -0.0153  0.0051 -0.1762
 1121YOPC   GL215936   5.584  16.664   6.204 -0.3368 -0.0195 -0.2593
 1121YOPC   C1A15937   6.127  16.355   6.232  0.1865 -0.2427 -0.0751
 1121YOPC   D2A15938   6.277  16.653   6.501  0.3213  0.0734 -0.0173
 1121YOPC   C3A15939   6.443  16.617   6.938 -0.0234 -0.0741 -0.0088
 1121YOPC   C4A15940   6.756  16.555   7.290 -0.2727 -0.2407  0.0831
 1121YOPC   C1B15941   5.223  16.852   6.408  0.1379  0.2853 -0.0880
 1121YOPC   C2B15942   5.180  17.026   6.902  0.1233  0.1256  0.3674
 1121YOPC   D3B15943   5.051  17.373   7.149 -0.2625 -0.1466 -0.2530
 1121YOPC   C4B15944   5.241  17.566   7.516 -0.2330 -0.0625  0.0493
 1122YOPC   NC315945  14.595  13.728   6.068  0.1045 -0.1237 -0.1892
 1122YOPC   PO415946  14.346  13.967   6.322  0.1834 -0.0647  0.1406
 1122YOPC   GL115947  14.117  14.190   6.499 -0.0143 -0.1079 -0.2587
 1122YOPC   GL215948  14.148  14.430   6.596 -0.0595  0.0591  0.2643
 1122YOPC   C1A15949  13.823  14.347   6.947 -0.0191 -0.2467  0.0439
 1122YOPC   D2A15950  13.638  14.186   7.224 -0.0334 -0.2961  0.2292
 1122YOPC   C3A15951  13.268  14.560   7.398  0.0143 -0.0741 -0.0504
 1122YOPC   C4A15952  12.981  14.612   7.658  0.2171 -0.1728 -0.1968
 1122YOPC   C1B15953  14.381  14.460   6.949  0.0674 -0.1513 -0.0318
 1122YOPC   C2B15954  14.810  14.509   7.054  0.1301  0.1578  0.0789
 1122YOPC   D3B15955  14.938  14.502   7.395 -0.0020  0.1829  0.3089
 1122YOPC   C4B15956  15.209  14.374   7.767 -0.0814  0.1324 -0.3070
 1123YOPC   NC315957   5.190   8.127   5.188  0.1681  0.1530  0.0322
 1123YOPC   PO415958   5.433   7.992   5.597  0.3004 -0.1774  0.0076
 1123YOPC   GL115959   5.446   8.234   6.002  0.1685 -0.0239  0.0850
 1123YOPC   GL215960   5.623   8.147   6.248 -0.2998  0.0411 -0.1600
 1123YOPC   C1A15961   5.237   8.260   6.497  0.0972 -0.1252 -0.0998
 1123YOPC   D2A15962   5.222   8.152   7.034  0.2165  0.0635 -0.2547
 1123YOPC   C3A15963   5.488   7.856   7.217  0.4396  0.0812  0.2367
 1123YOPC   C4A15964   5.572   7.603   7.596 -0.2039  0.0803 -0.0119
 1123YOPC   C1B15965   5.663   8.052   6.640 -0.0693 -0.2747 -0.2600
 1123YOPC   C2B15966   5.703   8.236   7.052 -0.0627  0.0326  0.0557
 1123YOPC   D3B15967   5.776   8.659   7.264  0.2721  0.4144 -0.1991
 1123YOPC   C4B15968   5.436   8.646   7.475  0.3040 -0.3796  0.1407
 1124YOPC   NC315969  10.493   3.912   5.518  0.1866  0.1643  0.1517
 1124YOPC   PO415970  10.391   4.353   5.477  0.1493  0.0225 -0.0753
 1124YOPC   GL115971  10.282   4.177   5.875  0.1510  0.0335 -0.3533
 1124YOPC   GL215972  10.570   4.011   5.977  0.1984  0.1523  0.1522
 1124YOPC   C1A15973  10.080   4.226   6.230  0.1284 -0.3840  0.0699
 1124YOPC   D2A15974   9.934   4.112   6.620  0.1186  0.2424 -0.2232
 1124YOPC   C3A15975   9.577   3.851   6.643  0.1147 -0.3651  0.1642
 1124YOPC   C4A15976   9.159   3.708   6.805 -0.2418 -0.3409 -0.1666
 1124YOPC   C1B15977  10.386   3.822   6.410 -0.0609  0.0292 -0.0730
 1124YOPC   C2B15978  10.196   3.743   6.840  0.0065  0.0498 -0.0945
 1124YOPC   D3B15979  10.189   3.495   7.183 -0.3944 -0.0787 -0.0319
 1124YOPC   C4B15980  10.199   3.296   7.578  0.0379  0.2322  0.1235
 1125YOPC   NC315981   1.103  12.923   5.464 -0.3604 -0.1308 -0.2660
 1125YOPC   PO415982   1.249  12.854   5.963 -0.0821  0.0590  0.1380
 1125YOPC   GL115983   1.517  12.911   6.231  0.3907  0.0937 -0.3338
 1125YOPC   GL215984   1.289  12.716   6.476  0.1258 -0.1609  0.3376
 1125YOPC   C1A15985   1.776  12.868   6.646 -0.0026 -0.0181 -0.2000
 1125YOPC   D2A15986   1.894  12.984   7.018  0.1993  0.2076 -0.2230
 1125YOPC   C3A15987   2.279  13.131   7.184 -0.2944  0.2116 -0.1516
 1125YOPC   C4A15988   2.275  13.297   7.566 -0.4136  0.1449 -0.3057
 1125YOPC   C1B15989   1.267  12.601   6.938  0.5267 -0.2238  0.2457
 1125YOPC   C2B15990   0.993  12.189   7.151 -0.4032  0.0079 -0.1386
 1125YOPC   D3B15991   1.106  12.032   7.447 -0.0262  0.2452  0.0340
 1125YOPC   C4B15992   1.042  11.918   7.932 -0.1974 -0.1816 -0.2250
 1126YOPC   NC315993   2.290  16.356   6.009 -0.0057  0.2207  0.1299
 1126YOPC   PO415994   2.042  16.660   5.974 -0.0575 -0.0706  0.1700
 1126YOPC   GL115995   2.041  16.607   6.413  0.0078  0.0476  0.1087
 1126YOPC   GL215996   2.168  16.789   6.646  0.1753 -0.0706  0.1654
 1126YOPC   C1A15997   1.692  16.617   6.688  0.1700 -0.1856 -0.0670
 1126YOPC   D2A15998   1.400  16.571   7.012 -0.0778  0.0889  0.3866
 1126YOPC   C3A15999   1.587  16.598   7.343  0.0869 -0.3228 -0.3767
 1126YOPC   C4A16000   1.831  16.819   7.619  0.0332 -0.1854 -0.4179
 1126YOPC   C1B16001   2.175  16.349   6.842 -0.0907  0.0785 -0.0771
 1126YOPC   C2B16002   2.256  15.987   7.175  0.2338 -0.0118  0.0430
 1126YOPC   D3B16003   2.099  15.694   7.500  0.0947 -0.1423  0.0086
 1126YOPC   C4B16004   1.653  15.668   7.783 -0.1964  0.0420 -0.0101
 1127YOPC   NC316005  12.105   4.407   5.465 -0.2463 -0.0472 -0.0617
 1127YOPC   PO416006  11.769   4.183   5.632 -0.0394  0.3012  0.0191
 1127YOPC   GL116007  11.560   4.257   6.069 -0.0451  0.3343 -0.0969
 1127YOPC   GL216008  11.696   4.526   6.345  0.1748  0.1180  0.0314
 1127YOPC   C1A16009  11.385   4.055   6.474 -0.2003 -0.0512 -0.1044
 1127YOPC   D2A16010  11.487   4.005   6.913  0.3523  0.1695 -0.0187
 1127YOPC   C3A16011  11.562   3.994   7.342  0.3127  0.1480 -0.0037
 1127YOPC   C4A16012  11.581   4.017   7.785  0.2618  0.2270  0.1337
 1127YOPC   C1B16013  11.436   4.513   6.753  0.0628 -0.4447  0.0978
 1127YOPC   C2B16014  11.265   4.383   7.138  0.0635  0.2124  0.1598
 1127YOPC   D3B16015  11.433   4.621   7.515  0.1229 -0.1314  0.3460
 1127YOPC   C4B16016  11.374   4.502   7.975 -0.0366 -0.0808 -0.2822
 1128ERGO   ROH16017  14.916  16.161  10.216 -0.0057  0.1219 -0.0755
 1128ERGO    R116018  15.026  16.097   9.964  0.0093  0.1470 -0.0760
 1128ERGO    R216019  14.905  15.920   9.789  0.0998  0.0401 -0.0359
 1128ERGO    R316020  14.925  16.129   9.616 -0.0472  0.0259 -0.0703
 1128ERGO    R416021  14.903  15.892   9.445  0.2853 -0.0336 -0.0317
 1128ERGO    R516022  15.059  16.044   9.436  0.1254  0.1325  0.0072
 1128ERGO    C116023  14.920  16.070   9.081  0.2554 -0.0897 -0.0616
 1128ERGO    C216024  14.931  15.991   8.755  0.1796 -0.0605 -0.0091
 1129ERGO   ROH16025   2.833  16.831   8.384 -0.1701 -0.0582  0.0150
 1129ERGO    R116026   2.937  16.792   8.644 -0.0806 -0.1176 -0.0280
 1129ERGO    R216027   2.997  17.003   8.813  0.1062 -0.1483 -0.0466
 1129ERGO    R316028   2.833  16.869   8.984  0.1019 -0.0627  0.0153
 1129ERGO    R416029   3.037  16.991   9.156  0.1555 -0.0744 -0.0503
 1129ERGO    R516030   2.980  16.780   9.151  0.1022 -0.0578  0.0132
 1129ERGO    C116031   2.906  16.859   9.517  0.1802  0.0489  0.0056
 1129ERGO    C216032   2.912  16.964   9.769 -0.0223 -0.3267  0.1607
 1130ERGO   ROH16033   9.637   1.232   5.912  0.1009  0.1007 -0.0336
 1130ERGO    R116034   9.587   1.371   6.154  0.0309  0.0525 -0.0195
 1130ERGO    R216035   9.357   1.334   6.302  0.0143 -0.0253 -0.0583
 1130ERGO    R316036   9.533   1.284   6.503 -0.0014 -0.0157 -0.0425
 1130ERGO    R416037   9.285   1.360   6.639 -0.0521 -0.1725 -0.0602
 1130ERGO    R516038   9.482   1.449   6.669 -0.0999 -0.0978  0.0052
 1130ERGO    C116039   9.408   1.329   7.024 -0.1057 -0.2492 -0.0465
 1130ERGO    C216040   9.112   1.319   7.342 -0.0502 -0.0822 -0.2118
 1131ERGO   ROH16041   0.681  15.818   6.315 -0.2347 -0.1308 -0.0812
 1131ERGO    R116042   0.836  15.802   6.552 -0.1431  0.1391 -0.1187
 1131ERGO    R216043   0.732  15.858   6.801 -0.1388  0.1031 -0.1084
 1131ERGO    R316044   0.827  15.610   6.861  0.1784  0.2346 -0.0465
 1131ERGO    R416045   0.775  15.735   7.122 -0.3152  0.1156 -0.0788
 1131ERGO    R516046   0.962  15.644   7.056 -0.0927  0.4137  0.1167
 1131ERGO    C116047   0.889  15.432   7.364 -0.1201  0.2464 -0.0035
 1131ERGO    C216048   0.762  15.273   7.754 -0.0674  0.0212 -0.1264
 1132ERGO   ROH16049   6.854   7.437   6.508 -0.2278 -0.0615 -0.0593
 1132ERGO    R116050   6.752   7.421   6.771 -0.0932 -0.1483 -0.0102
 1132ERGO    R216051   6.825   7.223   6.948  0.0501 -0.1709 -0.0876
 1132ERGO    R316052   6.887   7.433   7.109  0.0746 -0.1874 -0.0764
 1132ERGO    R416053   6.859   7.205   7.292  0.1134 -0.1969 -0.0954
 1132ERGO    R516054   6.756   7.397   7.306  0.1149 -0.2049 -0.0572
 1132ERGO    C116055   6.936   7.392   7.643  0.1733 -0.2276 -0.0892
 1132ERGO    C216056   6.922   7.174   7.977  0.0790  0.0557 -0.0285
 1133ERGO   ROH16057  15.609  11.149   6.212 -0.1888 -0.1783 -0.2074
 1133ERGO    R116058  15.578  11.190   6.491 -0.3044  0.0523 -0.2518
 1133ERGO    R216059  15.332  11.175   6.617 -0.3016 -0.2761 -0.2763
 1133ERGO    R316060  15.461  10.996   6.776  0.0168  0.1199 -0.0697
 1133ERGO    R416061  15.216  11.062   6.922 -0.1957 -0.2725 -0.2343
 1133ERGO    R516062  15.420  11.074   6.998 -0.2427  0.2225 -0.1509
 1133ERGO    C116063  15.268  10.829   7.249  0.1647  0.1013 -0.0160
 1133ERGO    C216064  15.007  10.690   7.369 -0.2417 -0.0070  0.1752
 1134ERGO   ROH16065   7.349   1.854  10.033 -0.0484 -0.1189  0.1291
 1134ERGO    R116066   7.369   1.850   9.750 -0.1540 -0.0463  0.1190
 1134ERGO    R216067   7.612   1.843   9.619 -0.1967  0.1084  0.0217
 1134ERGO    R316068   7.505   1.624   9.498 -0.1318  0.0776  0.0209
 1134ERGO    R416069   7.632   1.775   9.281 -0.0600  0.0362  0.0439
 1134ERGO    R516070   7.425   1.706   9.288 -0.0536  0.0242 -0.0263
 1134ERGO    C116071   7.542   1.530   8.971  0.0805 -0.0347  0.0559
 1134ERGO    C216072   7.466   1.563   8.694 -0.1586  0.0764 -0.1248
 1135ERGO   ROH16073   1.542   8.965   6.965  0.1170  0.0949  0.0662
 1135ERGO    R116074   1.696   8.779   7.112 -0.0036 -0.0294  0.0346
 1135ERGO    R216075   1.900   8.856   7.281 -0.0016 -0.1872  0.0922
 1135ERGO    R316076   1.762   8.708   7.463 -0.1001 -0.1814  0.0252
 1135ERGO    R416077   2.008   8.787   7.602 -0.1470 -0.1871  0.1431
 1135ERGO    R516078   1.931   8.584   7.579 -0.1508 -0.1915  0.1034
 1135ERGO    C116079   1.941   8.607   7.959 -0.3242 -0.1815  0.1098
 1135ERGO    C216080   2.020   8.530   8.286 -0.1269 -0.1792 -0.0457
 1136ERGO   ROH16081   6.811   6.076   5.997  0.0123  0.2229  0.0658
 1136ERGO    R116082   6.744   5.935   6.233 -0.1261  0.0727 -0.0597
 1136ERGO    R216083   6.891   5.957   6.466 -0.0803 -0.3084 -0.0432
 1136ERGO    R316084   6.650   6.021   6.574 -0.0044 -0.1387  0.0275
 1136ERGO    R416085   6.813   5.934   6.802 -0.0507 -0.3939 -0.0423
 1136ERGO    R516086   6.617   5.858   6.746 -0.1281 -0.1869 -0.0456
 1136ERGO    C116087   6.541   5.981   7.099  0.0378 -0.2844  0.0245
 1136ERGO    C216088   6.606   5.994   7.525 -0.0862 -0.0871 -0.0675
 1137ERGO   ROH16089   4.822   6.894   5.708  0.1115 -0.3409  0.0329
 1137ERGO    R116090   4.833   6.866   5.989 -0.0197 -0.0389  0.0727
 1137ERGO    R216091   5.043   6.742   6.118 -0.2547 -0.2377  0.2714
 1137ERGO    R316092   5.053   6.974   6.258  0.0807 -0.0853  0.0112
 1137ERGO    R416093   5.183   6.777   6.432 -0.5208 -0.1877  0.3873
 1137ERGO    R516094   5.017   6.908   6.486 -0.3170  0.2384  0.0581
 1137ERGO    C116095   5.274   7.016   6.747 -0.3610 -0.0156  0.2106
 1137ERGO    C216096   5.452   6.913   7.004 -0.2128  0.2985  0.0259
 1138ERGO   ROH16097   5.930  15.121   6.341 -0.2501 -0.2236  0.0339
 1138ERGO    R116098   6.024  14.929   6.527 -0.0936 -0.4027 -0.2237
 1138ERGO    R216099   6.236  14.761   6.473  0.2827  0.0867 -0.3290
 1138ERGO    R316100   6.335  14.864   6.705 -0.1497 -0.1512 -0.0244
 1138ERGO    R416101   6.509  14.636   6.645  0.2967  0.2264 -0.2472
 1138ERGO    R516102   6.402  14.672   6.831  0.0157 -0.2765 -0.2901
 1138ERGO    C116103   6.760  14.660   6.962 -0.1010  0.0843  0.0863
 1138ERGO    C216104   7.128  14.819   6.913  0.0054 -0.1090  0.1936
 1139ERGO   ROH16105   1.099   2.595   6.580  0.2142  0.0925  0.0799
 1139ERGO    R116106   1.261   2.651   6.805  0.2345  0.0373  0.0792
 1139ERGO    R216107   1.213   2.864   6.975  0.2940  0.0399  0.0926
 1139ERGO    R316108   1.217   2.670   7.166  0.2486  0.0282  0.0817
 1139ERGO    R416109   1.310   2.910   7.304  0.2113  0.0234  0.1194
 1139ERGO    R516110   1.411   2.718   7.296  0.2162  0.0242  0.1331
 1139ERGO    C116111   1.370   2.756   7.674  0.1206  0.0029  0.1249
 1139ERGO    C216112   1.591   2.776   7.982 -0.0481  0.1523 -0.3020
 1140ERGO   ROH16113   9.003   4.868   8.024  0.1146  0.2589 -0.0259
 1140ERGO    R116114   9.207   4.825   7.832 -0.0544  0.0677 -0.1667
 1140ERGO    R216115   9.465   4.754   7.902  0.0040  0.1192 -0.3245
 1140ERGO    R316116   9.421   4.548   7.731 -0.1612 -0.0414 -0.0950
 1140ERGO    R416117   9.710   4.545   7.778 -0.1474 -0.1377 -0.2013
 1140ERGO    R516118   9.610   4.551   7.584 -0.2137 -0.2907 -0.1711
 1140ERGO    C116119   9.812   4.230   7.544 -0.3907 -0.4380  0.0859
 1140ERGO    C216120  10.036   4.002   7.507  0.3183 -0.0458  0.1691
 1141ERGO   ROH16121  12.964  14.971   8.520  0.0002  0.0596 -0.0157
 1141ERGO    R116122  12.867  14.830   8.295  0.0644  0.1092 -0.0778
 1141ERGO    R216123  12.731  14.589   8.317  0.1438  0.0401 -0.1779
 1141ERGO    R316124  12.542  14.720   8.171  0.1106  0.0424 -0.1291
 1141ERGO    R416125  12.519  14.442   8.087  0.0365  0.0613 -0.0908
 1141ERGO    R516126  12.546  14.614   7.957  0.0105  0.0299 -0.1132
 1141ERGO    C116127  12.219  14.479   7.817 -0.0572  0.0757  0.0056
 1141ERGO    C216128  11.848  14.576   7.599  0.2114 -0.1352 -0.1793
 1142ERGO   ROH16129  12.040  17.509   6.362 -0.0484  0.1379  0.0721
 1142ERGO    R116130  12.100  17.405   6.619  0.0158  0.0459  0.0198
 1142ERGO    R216131  12.291  17.517   6.784  0.0053  0.0294  0.0403
 1142ERGO    R316132  12.086  17.523   6.962  0.0287 -0.1050  0.0735
 1142ERGO    R416133  12.314  17.420   7.115  0.1588  0.1589  0.0685
 1142ERGO    R516134  12.118  17.327   7.097  0.2394 -0.0343  0.1328
 1142ERGO    C116135  12.135  17.370   7.475  0.2702  0.1081  0.1161
 1142ERGO    C216136  12.087  17.260   7.696 -0.0366  0.1680 -0.0461
 1143ERGO   ROH16137   1.842  17.800   6.608 -0.0625  0.0505 -0.0039
 1143ERGO    R116138   1.882  17.705   6.872 -0.2104  0.2182  0.0812
 1143ERGO    R216139   1.719  17.778   7.082 -0.5982  0.0181 -0.1364
 1143ERGO    R316140   1.694  17.509   7.114 -0.1669 -0.0227 -0.0778
 1143ERGO    R416141   1.679  17.618   7.386 -0.2234 -0.0051 -0.0946
 1143ERGO    R516142   1.814  17.462   7.316 -0.0078  0.1926 -0.1215
 1143ERGO    C116143   1.632  17.273   7.593  0.3998 -0.0569 -0.0151
 1143ERGO    C216144   1.394  17.229   7.859 -0.5821  0.1277 -0.4451
 1144ERGO   ROH16145   1.493  11.641   8.137 -0.0576 -0.3448  0.1456
 1144ERGO    R116146   1.557  11.804   8.360 -0.0259 -0.2432  0.0629
 1144ERGO    R216147   1.418  12.034   8.420  0.0031 -0.2002 -0.0396
 1144ERGO    R316148   1.389  11.915   8.663  0.0069 -0.0776  0.0219
 1144ERGO    R416149   1.274  12.183   8.697  0.0062 -0.0552 -0.1152
 1144ERGO    R516150   1.428  12.092   8.821  0.0100  0.0064 -0.0692
 1144ERGO    C116151   1.162  12.158   9.086  0.0117  0.1445 -0.1013
 1144ERGO    C216152   1.138  12.117   9.417  0.3306  0.1286 -0.1224
 1145ERGO   ROH16153  10.141  16.865   6.683 -0.1290 -0.2273 -0.0194
 1145ERGO    R116154  10.163  16.688   6.903 -0.1104 -0.1456  0.0441
 1145ERGO    R216155  10.394  16.545   6.956 -0.1320 -0.1698  0.0392
 1145ERGO    R316156  10.371  16.661   7.200 -0.0413 -0.0764  0.0055
 1145ERGO    R416157  10.558  16.440   7.241 -0.2242 -0.2447  0.0657
 1145ERGO    R516158  10.376  16.477   7.354 -0.2055 -0.0515  0.0540
 1145ERGO    C116159  10.632  16.487   7.637 -0.1928 -0.2008  0.0494
 1145ERGO    C216160  10.766  16.232   7.830  0.2362  0.1524  0.1058
 1146ERGO   ROH16161   4.829  13.219   7.688 -0.0804  0.0300  0.0006
 1146ERGO    R116162   4.589  13.125   7.806 -0.0698  0.0530  0.0411
 1146ERGO    R216163   4.453  13.267   8.000 -0.0890  0.1244 -0.0232
 1146ERGO    R316164   4.244  13.239   7.829 -0.0838  0.0213 -0.0132
 1146ERGO    R416165   4.138  13.401   8.049 -0.1318  0.0323 -0.0447
 1146ERGO    R516166   4.053  13.216   7.971 -0.0734 -0.0114 -0.0048
 1146ERGO    C116167   3.758  13.452   7.917 -0.1517 -0.1182 -0.0479
 1146ERGO    C216168   3.563  13.702   7.847 -0.0305  0.1966 -0.1081
 1147ERGO   ROH16169   1.545  13.412   6.114  0.0316  0.1743  0.0723
 1147ERGO    R116170   1.455  13.426   6.382 -0.0336  0.2087  0.0490
 1147ERGO    R216171   1.522  13.236   6.571 -0.0475  0.2518  0.1007
 1147ERGO    R316172   1.608  13.453   6.711 -0.1136  0.2922  0.0786
 1147ERGO    R416173   1.528  13.260   6.916  0.0516  0.2550  0.0992
 1147ERGO    R516174   1.459  13.466   6.898 -0.0573  0.2172  0.1251
 1147ERGO    C116175   1.612  13.477   7.248  0.0472  0.2948  0.0775
 1147ERGO    C216176   1.764  13.276   7.545 -0.1123  0.0929  0.1001
 1148ERGO   ROH16177   1.212   6.274   6.606  0.1275  0.0421 -0.0833
 1148ERGO    R116178   1.401   6.320   6.812  0.1583  0.0168 -0.1061
 1148ERGO    R216179   1.344   6.275   7.078  0.1330  0.1683 -0.0866
 1148ERGO    R316180   1.569   6.121   7.066  0.0405  0.0252 -0.0199
 1148ERGO    R416181   1.481   6.103   7.346  0.1821  0.4356  0.0632
 1148ERGO    R516182   1.679   6.161   7.275  0.1796  0.2367 -0.1277
 1148ERGO    C116183   1.771   5.860   7.490  0.1239  0.4570  0.2130
 1148ERGO    C216184   2.098   5.706   7.740 -0.4116  0.1581  0.0991
 1149ERGO   ROH16185  10.029  11.724   5.866 -0.0868 -0.0466  0.0113
 1149ERGO    R116186  10.271  11.643   5.988 -0.0770  0.0131  0.0329
 1149ERGO    R216187  10.309  11.650   6.262 -0.1439 -0.0847  0.0476
 1149ERGO    R316188  10.373  11.388   6.228 -0.0175 -0.0414 -0.0510
 1149ERGO    R416189  10.395  11.433   6.517 -0.3267 -0.2154 -0.0005
 1149ERGO    R516190  10.548  11.349   6.386 -0.1649 -0.0794  0.1021
 1149ERGO    C116191  10.506  11.061   6.633 -0.3144 -0.2508 -0.1210
 1149ERGO    C216192  10.541  10.793   6.924 -0.0983 -0.1190  0.1245
 1150ERGO   ROH16193  14.305   2.001   6.839 -0.2958 -0.1809 -0.1965
 1150ERGO    R116194  14.113   1.881   7.008 -0.2446 -0.0886 -0.0733
 1150ERGO    R216195  14.182   1.712   7.216 -0.1921 -0.1255 -0.1286
 1150ERGO    R316196  14.033   1.886   7.363 -0.0122 -0.0606 -0.0179
 1150ERGO    R416197  13.987   1.623   7.488 -0.2216 -0.0944 -0.1382
 1150ERGO    R516198  13.834   1.762   7.417 -0.1160  0.0821 -0.0467
 1150ERGO    C116199  13.735   1.734   7.784 -0.0699 -0.0153 -0.0398
 1150ERGO    C216200  13.657   1.812   8.042 -0.0348  0.0473  0.1579
 1151ERGO   ROH16201   5.704   7.640   6.021 -0.1504  0.0141  0.0563
 1151ERGO    R116202   5.631   7.627   6.295 -0.1895 -0.2846  0.0353
 1151ERGO    R216203   5.617   7.388   6.434  0.2644 -0.4012 -0.0992
 1151ERGO    R316204   5.786   7.515   6.605 -0.0257 -0.1429  0.0058
 1151ERGO    R416205   5.648   7.316   6.770  0.2578 -0.4430 -0.1077
 1151ERGO    R516206   5.663   7.530   6.810 -0.1398 -0.4205 -0.0379
 1151ERGO    C116207   5.825   7.393   7.127 -0.0183 -0.2249 -0.0140
 1151ERGO    C216208   6.011   7.397   7.507  0.2336  0.2893 -0.2542
 1152ERGO   ROH16209  11.360  14.799   6.518  0.4733  0.0943  0.1003
 1152ERGO    R116210  11.282  14.706   6.774  0.2303  0.1831  0.0615
 1152ERGO    R216211  11.462  14.603   6.956  0.0114 -0.0857  0.1343
 1152ERGO    R316212  11.355  14.791   7.120  0.2027  0.0570  0.0987
 1152ERGO    R416213  11.463  14.587   7.301 -0.2000 -0.1334  0.1340
 1152ERGO    R516214  11.260  14.665   7.300 -0.0866  0.1741  0.0321
 1152ERGO    C116215  11.363  14.755   7.656 -0.1437 -0.0270  0.1004
 1152ERGO    C216216  11.466  14.553   7.897  0.4405  0.1798  0.1279
 1153ERGO   ROH16217  14.645  13.140   6.566  0.0363  0.2196 -0.1667
 1153ERGO    R116218  14.857  13.130   6.753 -0.0056  0.0771 -0.1240
 1153ERGO    R216219  15.089  13.278   6.724  0.0705 -0.0128 -0.0365
 1153ERGO    R316220  15.027  13.364   6.974  0.0485 -0.0528 -0.0288
 1153ERGO    R416221  15.309  13.435   6.939  0.0477 -0.0638  0.0235
 1153ERGO    R516222  15.224  13.319   7.103  0.0244 -0.0840 -0.0109
 1153ERGO    C116223  15.379  13.607   7.299  0.0137 -0.1312  0.0656
 1153ERGO    C216224  15.413  13.842   7.555 -0.2922 -0.2698 -0.1023
 1154ERGO   ROH16225  14.705   2.596   6.837 -0.0706  0.0144 -0.0864
 1154ERGO    R116226  14.718   2.744   7.077 -0.0296 -0.0018 -0.0785
 1154ERGO    R216227  14.492   2.824   7.215 -0.0064 -0.0031 -0.0398
 1154ERGO    R316228  14.613   2.697   7.423  0.0202 -0.0210 -0.0660
 1154ERGO    R416229  14.458   2.914   7.547 -0.0103 -0.0685 -0.0222
 1154ERGO    R516230  14.671   2.874   7.574 -0.0032 -0.0390 -0.0359
 1154ERGO    C116231  14.553   2.848   7.935  0.0127 -0.1234 -0.0364
 1154ERGO    C216232  14.668   2.898   8.241  0.1856  0.1429 -0.0004
 1155ERGO   ROH16233   3.159   7.208   6.489  0.1632  0.2008  0.0680
 1155ERGO    R116234   3.043   7.282   6.737  0.0622  0.0745  0.0596
 1155ERGO    R216235   3.011   7.103   6.945  0.1726  0.0192  0.0311
 1155ERGO    R316236   3.148   7.291   7.085 -0.0015  0.1128  0.0779
 1155ERGO    R416237   3.005   7.138   7.289  0.0383  0.0086  0.0297
 1155ERGO    R516238   3.000   7.354   7.262 -0.1026  0.0072  0.0321
 1155ERGO    C116239   3.130   7.335   7.620 -0.2034  0.0904  0.0728
 1155ERGO    C216240   3.280   7.213   7.856 -0.2898  0.1043 -0.3117
 1156ERGO   ROH16241   0.181  12.810   6.391  0.1035  0.0696  0.0230
 1156ERGO    R116242   0.119  12.801   6.667  0.0628  0.0194  0.0131
 1156ERGO    R216243   0.238  12.623   6.841 -0.0439 -0.0909 -0.0195
 1156ERGO    R316244   0.299  12.848   6.980  0.0466 -0.1569  0.0486
 1156ERGO    R416245   0.243  12.648   7.186 -0.0412 -0.1855 -0.0127
 1156ERGO    R516246   0.151  12.845   7.168  0.0436 -0.1453  0.0422
 1156ERGO    C116247   0.303  12.875   7.516  0.0454 -0.3025  0.0552
 1156ERGO    C216248   0.441  12.826   7.806 -0.0888  0.2475  0.1337
 1157ERGO   ROH16249   2.434   7.387   6.411  0.0322 -0.1827 -0.0703
 1157ERGO    R116250   2.633   7.532   6.549 -0.0691 -0.0864 -0.0269
 1157ERGO    R216251   2.573   7.721   6.742 -0.1984 -0.2827  0.1187
 1157ERGO    R316252   2.741   7.570   6.895 -0.0039 -0.2241 -0.0295
 1157ERGO    R416253   2.754   7.838   7.013 -0.2897 -0.2908  0.1854
 1157ERGO    R516254   2.922   7.717   6.947 -0.1573 -0.0536  0.0568
 1157ERGO    C116255   3.016   7.765   7.314 -0.1603 -0.2404  0.0852
 1157ERGO    C216256   3.238   7.898   7.636  0.1271  0.5359 -0.0102
 1158ERGO   ROH16257  16.199   9.448   6.455  0.1613 -0.0657 -0.0205
 1158ERGO    R116258  16.378   9.638   6.565  0.0824 -0.0845  0.1413
 1158ERGO    R216259  16.323   9.909   6.571  0.0874 -0.0861  0.1304
 1158ERGO    R316260  16.371   9.880   6.837 -0.1184 -0.1151  0.1668
 1158ERGO    R416261  16.374  10.169   6.792  0.1746 -0.1113  0.1408
 1158ERGO    R516262  16.530  10.052   6.888  0.0081 -0.2519  0.2572
 1158ERGO    C116263  16.448  10.294   7.171  0.0326 -0.1533  0.1810
 1158ERGO    C216264  16.643  10.581   7.313 -0.0059  0.0846  0.0239
 1159ERGO   ROH16265  16.438   2.314   6.840 -0.0170 -0.2924  0.0594
 1159ERGO    R116266  16.447   2.145   7.067  0.0480 -0.1974  0.1301
 1159ERGO    R216267  16.659   2.146   7.245  0.0435 -0.0316  0.1443
 1159ERGO    R316268  16.462   2.187   7.428  0.0137 -0.0403  0.1123
 1159ERGO    R416269  16.711   2.216   7.579 -0.0199  0.0203  0.1424
 1159ERGO    R516270  16.545   2.085   7.628 -0.0012  0.0025  0.1359
 1159ERGO    C116271  16.558   2.297   7.946 -0.0849  0.0422  0.1112
 1159ERGO    C216272  16.633   2.602   8.155 -0.2194 -0.0444  0.0063
 1160ERGO   ROH16273   2.862   2.780   6.803 -0.1346  0.3508  0.0536
 1160ERGO    R116274   2.991   2.747   7.053 -0.1609  0.3439  0.0656
 1160ERGO    R216275   2.853   2.753   7.292 -0.2263  0.0776  0.0363
 1160ERGO    R316276   2.972   2.512   7.330  0.0071  0.1733 -0.0651
 1160ERGO    R416277   2.966   2.635   7.597 -0.2989 -0.0238  0.0251
 1160ERGO    R516278   3.142   2.554   7.495 -0.1431  0.2367  0.0769
 1160ERGO    C116279   3.144   2.339   7.810 -0.1220  0.0070 -0.0766
 1160ERGO    C216280   3.193   2.320   8.065 -0.1174 -0.2829  0.1611
 1161ERGO   ROH16281   4.623  14.174   6.213  0.0508  0.1627 -0.0987
 1161ERGO    R116282   4.552  14.144   6.485  0.0934 -0.0157 -0.1046
 1161ERGO    R216283   4.739  14.143   6.689  0.1041  0.1982 -0.1044
 1161ERGO    R316284   4.583  14.341   6.790 -0.1862 -0.0477 -0.0536
 1161ERGO    R416285   4.693  14.207   7.025  0.0640  0.0933 -0.0905
 1161ERGO    R516286   4.482  14.245   6.984 -0.0059 -0.2239 -0.0464
 1161ERGO    C116287   4.519  14.430   7.316 -0.2318 -0.1985 -0.0347
 1161ERGO    C216288   4.521  14.653   7.647 -0.0908 -0.2955  0.1228
 1162ERGO   ROH16289   3.274   5.727   6.372  0.1031  0.1293 -0.0260
 1162ERGO    R116290   3.319   5.565   6.599  0.1212  0.1687 -0.0028
 1162ERGO    R216291   3.323   5.289   6.587  0.0672  0.1705  0.0523
 1162ERGO    R316292   3.566   5.320   6.704  0.0981  0.1441 -0.0010
 1162ERGO    R416293   3.514   5.032   6.718  0.0934  0.1353 -0.0513
 1162ERGO    R516294   3.566   5.162   6.884  0.1369  0.1023 -0.0324
 1162ERGO    C116295   3.853   4.911   6.904  0.1376  0.0900 -0.1615
 1162ERGO    C216296   4.001   4.749   7.133  0.1289  0.2021 -0.0756
 1163ERGO   ROH16297  16.006   5.673   6.136  0.1776 -0.0250 -0.0804
 1163ERGO    R116298  16.021   5.623   6.414  0.1795 -0.0153 -0.0803
 1163ERGO    R216299  15.915   5.396   6.530  0.0702  0.0548 -0.0589
 1163ERGO    R316300  16.167   5.369   6.629  0.0639 -0.0798 -0.0740
 1163ERGO    R416301  15.991   5.312   6.857  0.0321  0.2210 -0.0052
 1163ERGO    R516302  16.154   5.457   6.851  0.1558  0.0923 -0.1294
 1163ERGO    C116303  16.272   5.238   7.140  0.0040  0.1912  0.0119
 1163ERGO    C216304  16.349   5.313   7.426 -0.0989 -0.2524  0.2825
 1164ERGO   ROH16305  10.117   5.608   6.202 -0.2389 -0.2491 -0.1446
 1164ERGO    R116306  10.159   5.692   6.469  0.0661 -0.4867 -0.1130
 1164ERGO    R216307   9.973   5.841   6.610  0.5252  0.0295 -0.0179
 1164ERGO    R316308   9.998   5.640   6.791 -0.0501 -0.1433 -0.1113
 1164ERGO    R416309   9.871   5.858   6.940  0.4172  0.1048 -0.0551
 1164ERGO    R516310  10.052   5.750   6.996  0.1385 -0.3802 -0.0281
 1164ERGO    C116311   9.835   5.678   7.302 -0.1857 -0.0136 -0.1643
 1164ERGO    C216312   9.821   5.675   7.576 -0.1203  0.3867 -0.2746
 1165ERGO   ROH16313  14.652   7.022   6.414  0.1365  0.0121 -0.0379
 1165ERGO    R116314  14.676   7.117   6.679 -0.0368  0.0305 -0.0283
 1165ERGO    R216315  14.462   7.128   6.854 -0.0873 -0.2452 -0.0732
 1165ERGO    R316316  14.627   6.983   7.014  0.0617 -0.0476 -0.0439
 1165ERGO    R416317  14.487   7.164   7.196 -0.1409 -0.1598 -0.0779
 1165ERGO    R516318  14.703   7.139   7.178 -0.1089  0.0638 -0.0659
 1165ERGO    C116319  14.657   7.050   7.546 -0.0320  0.0754 -0.0531
 1165ERGO    C216320  14.574   6.935   7.885  0.1344  0.1221  0.0411
 1166ERGO   ROH16321  12.259   7.850   6.285 -0.1587  0.1401  0.1081
 1166ERGO    R116322  12.276   7.933   6.555 -0.1910  0.0062  0.1519
 1166ERGO    R216323  12.251   7.756   6.766  0.0438 -0.1437  0.0593
 1166ERGO    R316324  12.491   7.861   6.840 -0.0513  0.0744  0.0650
 1166ERGO    R416325  12.352   7.807   7.093  0.0412 -0.1761  0.0650
 1166ERGO    R516326  12.440   7.997   7.031 -0.1638 -0.0569  0.1300
 1166ERGO    C116327  12.635   7.935   7.353 -0.0498  0.0097  0.0737
 1166ERGO    C216328  12.485   8.036   7.608  0.1505 -0.0765  0.0641
 1167ERGO   ROH16329   5.959  12.514   6.311 -0.0853 -0.0952  0.1625
 1167ERGO    R116330   5.936  12.473   6.590 -0.1108 -0.0898  0.1617
 1167ERGO    R216331   5.905  12.222   6.701 -0.1763 -0.0856  0.1616
 1167ERGO    R316332   6.123  12.294   6.846 -0.1659 -0.1340  0.1695
 1167ERGO    R416333   6.048  12.031   6.951 -0.0278 -0.2538 -0.0482
 1167ERGO    R516334   6.077  12.213   7.067 -0.0690 -0.3512  0.1087
 1167ERGO    C116335   6.336  11.988   7.233  0.0685 -0.3972 -0.1631
 1167ERGO    C216336   6.679  11.848   7.403  0.0767 -0.0892 -0.0925
 1168ERGO   ROH16337   3.942   9.501   6.411  0.1063  0.2538  0.0718
 1168ERGO    R116338   3.804   9.316   6.574  0.1229  0.0366 -0.1552
 1168ERGO    R216339   3.891   9.056   6.611  0.3630  0.1127 -0.1699
 1168ERGO    R316340   3.876   9.122   6.874  0.0025 -0.0083 -0.1548
 1168ERGO    R416341   3.894   8.830   6.872  0.2432  0.0049 -0.2607
 1168ERGO    R516342   3.741   8.950   6.971  0.0271 -0.1607 -0.3839
 1168ERGO    C116343   3.881   8.760   7.271 -0.1652 -0.1715 -0.2995
 1168ERGO    C216344   3.972   8.804   7.626 -0.1692  0.0403 -0.1423
 1169ERGO   ROH16345   3.588  14.123   6.384  0.0124  0.1396 -0.1081
 1169ERGO    R116346   3.617  14.206   6.653 -0.0648  0.1637 -0.1079
 1169ERGO    R216347   3.406  14.301   6.802 -0.1436 -0.0022 -0.1208
 1169ERGO    R316348   3.482  14.107   6.977 -0.0006  0.0617 -0.1101
 1169ERGO    R416349   3.304  14.283   7.132 -0.2611 -0.1330 -0.1629
 1169ERGO    R516350   3.507  14.223   7.186 -0.2089  0.0803 -0.0880
 1169ERGO    C116351   3.316  14.090   7.488 -0.1953 -0.1491 -0.1774
 1169ERGO    C216352   3.213  14.049   7.844 -0.0048 -0.0704 -0.1849
 1170ERGO   ROH16353   8.880  11.672   5.857  0.3359  0.1413 -0.2570
 1170ERGO    R116354   8.999  11.867   6.024  0.2098  0.1129 -0.1329
 1170ERGO    R216355   8.861  12.087   6.118  0.1148  0.0446 -0.1264
 1170ERGO    R316356   8.946  11.996   6.360  0.0200 -0.0105 -0.1121
 1170ERGO    R416357   8.853  12.270   6.411  0.1978  0.0667 -0.1368
 1170ERGO    R516358   9.048  12.187   6.462  0.1404 -0.0708 -0.1070
 1170ERGO    C116359   8.927  12.292   6.809  0.1572  0.0279 -0.1294
 1170ERGO    C216360   8.977  12.330   7.144  0.2720  0.0750  0.1834
 1171ERGO   ROH16361  16.504  16.538   8.288 -0.0820  0.0147 -0.2281
 1171ERGO    R116362  16.427  16.270   8.241 -0.1424  0.0233 -0.1803
 1171ERGO    R216363  16.470  16.143   7.999 -0.1194 -0.0483 -0.1411
 1171ERGO    R316364  16.594  15.958   8.154 -0.2040 -0.0419 -0.0657
 1171ERGO    R416365  16.554  15.824   7.896  0.1682  0.0334 -0.1666
 1171ERGO    R516366  16.492  15.751   8.092 -0.0238 -0.0728 -0.2657
 1171ERGO    C116367  16.720  15.465   7.982  0.2563  0.0869 -0.1107
 1171ERGO    C216368  16.945  15.266   8.131 -0.0201 -0.1000  0.3816
 1172ERGO   ROH16369   1.620  11.205   8.266 -0.4867 -0.2450  0.3152
 1172ERGO    R116370   1.684  11.075   8.509 -0.1224 -0.2295  0.2328
 1172ERGO    R216371   1.926  10.951   8.552  0.1021  0.1286  0.0296
 1172ERGO    R316372   1.934  11.112   8.770  0.0016  0.0687  0.0784
 1172ERGO    R416373   2.124  10.897   8.830  0.1177  0.1432  0.0216
 1172ERGO    R516374   1.957  10.962   8.955  0.0711  0.0184  0.0339
 1172ERGO    C116375   2.246  11.018   9.198  0.0324  0.0954  0.0629
 1172ERGO    C216376   2.277  10.974   9.562  0.0569  0.0153 -0.0925
 1173ERGO   ROH16377   1.910  17.134  10.111 -0.0136  0.1119  0.0059
 1173ERGO    R116378   1.995  17.038   9.858 -0.0643  0.0603  0.0067
 1173ERGO    R216379   1.819  16.988   9.651 -0.0997  0.1005  0.0189
 1173ERGO    R316380   1.984  17.155   9.514 -0.0527  0.0361 -0.0003
 1173ERGO    R416381   1.873  16.977   9.310 -0.3439  0.2518 -0.0257
 1173ERGO    R516382   2.084  17.016   9.346 -0.2871  0.0493 -0.1501
 1173ERGO    C116383   2.059  17.127   8.982 -0.4419  0.2794 -0.0697
 1173ERGO    C216384   1.938  17.162   8.630  0.0647 -0.3280 -0.0028
 1174ERGO   ROH16385  17.233   5.763   6.213 -0.0374  0.1444 -0.1357
 1174ERGO    R116386  17.101   5.681   6.450  0.1518 -0.1862 -0.1381
 1174ERGO    R216387  17.237   5.574   6.666  0.4095  0.0762 -0.1585
 1174ERGO    R316388  17.110   5.773   6.802 -0.0280 -0.2129 -0.1270
 1174ERGO    R416389  17.237   5.611   7.010  0.4655  0.1166 -0.1636
 1174ERGO    R516390  17.027   5.666   7.000  0.3147 -0.4002 -0.0799
 1174ERGO    C116391  17.118   5.818   7.337  0.0875 -0.1313 -0.1371
 1174ERGO    C216392  17.003   6.121   7.566 -0.1784 -0.1970 -0.1967
 1175ERGO   ROH16393   3.351  16.833   6.563 -0.2408 -0.1947 -0.1835
 1175ERGO    R116394   3.514  16.788   6.790 -0.1414 -0.2295 -0.2611
 1175ERGO    R216395   3.523  16.963   7.004  0.1097 -0.1573 -0.3295
 1175ERGO    R316396   3.461  16.740   7.147  0.0302 -0.0613 -0.2111
 1175ERGO    R416397   3.545  16.936   7.348 -0.0939  0.0818 -0.2938
 1175ERGO    R516398   3.624  16.734   7.322 -0.0721  0.0634 -0.1081
 1175ERGO    C116399   3.501  16.711   7.682 -0.2871  0.3112 -0.1618
 1175ERGO    C216400   3.630  16.679   8.034  0.0171 -0.0355  0.0778
 1176ERGO   ROH16401   0.114   4.202   6.442 -0.2175  0.2007  0.0391
 1176ERGO    R116402   0.239   4.246   6.692 -0.1182  0.0296  0.0194
 1176ERGO    R216403   0.113   4.375   6.901 -0.0061 -0.0455  0.1288
 1176ERGO    R316404   0.179   4.149   7.038 -0.0245 -0.1364 -0.0082
 1176ERGO    R416405   0.081   4.335   7.243  0.3440 -0.1060  0.1590
 1176ERGO    R516406   0.272   4.230   7.244  0.2715 -0.2577 -0.0854
 1176ERGO    C116407   0.125   4.100   7.571  0.5306 -0.2266  0.0479
 1176ERGO    C216408  -0.024   3.872   7.778 -0.0417 -0.2109  0.3432
 1177ERGO   ROH16409   4.002   7.396  10.293  0.1302 -0.0739  0.0257
 1177ERGO    R116410   3.963   7.470  10.022  0.1967  0.0020  0.0366
 1177ERGO    R216411   4.158   7.435   9.830  0.1178 -0.2815  0.0036
 1177ERGO    R316412   3.961   7.300   9.700 -0.1109  0.0213  0.0260
 1177ERGO    R416413   4.136   7.400   9.487  0.0655 -0.3109  0.0097
 1177ERGO    R516414   3.920   7.430   9.503  0.1098  0.0549  0.0004
 1177ERGO    C116415   3.937   7.253   9.165 -0.1796 -0.0437  0.0342
 1177ERGO    C216416   4.031   7.310   8.800 -0.1654 -0.1392 -0.1566
 1178ERGO   ROH16417   7.498  17.030   5.942  0.1165  0.1028 -0.1044
 1178ERGO    R116418   7.374  17.135   6.173  0.0134  0.3589 -0.2710
 1178ERGO    R216419   7.150  17.296   6.162 -0.3595 -0.1428 -0.5314
 1178ERGO    R316420   7.048  17.111   6.333  0.1402 -0.0093 -0.0566
 1178ERGO    R416421   6.866  17.340   6.353 -0.3335 -0.3437 -0.4435
 1178ERGO    R516422   6.967  17.239   6.518 -0.0071  0.2213 -0.2795
 1178ERGO    C116423   6.603  17.191   6.624  0.1508 -0.3353  0.0534
 1178ERGO    C216424   6.339  17.099   6.781 -0.0075 -0.2238 -0.1174
 1179ERGO   ROH16425   7.468  12.298   6.043 -0.1837 -0.1567 -0.0428
 1179ERGO    R116426   7.340  12.239   6.289 -0.1647  0.1747  0.0511
 1179ERGO    R216427   7.371  11.996   6.419 -0.5705  0.1463  0.1061
 1179ERGO    R316428   7.444  12.155   6.627 -0.1333  0.0751  0.0172
 1179ERGO    R416429   7.373  11.899   6.750 -0.4248  0.2017  0.1226
 1179ERGO    R516430   7.294  12.094   6.803 -0.0741  0.3398  0.1643
 1179ERGO    C116431   7.443  11.990   7.139  0.0705  0.1670  0.0487
 1179ERGO    C216432   7.546  11.976   7.371 -0.0657  0.0070  0.1024
 1180ERGO   ROH16433   7.010   2.340   6.297  0.1089  0.1376 -0.0364
 1180ERGO    R116434   6.930   2.380   6.565  0.0224  0.0910 -0.0552
 1180ERGO    R216435   7.103   2.351   6.778 -0.0697 -0.0379  0.0020
 1180ERGO    R316436   7.020   2.603   6.838  0.0055 -0.0228  0.0447
 1180ERGO    R416437   7.117   2.494   7.093  0.0301 -0.0752  0.0151
 1180ERGO    R516438   6.922   2.583   7.056  0.0437 -0.0216  0.0633
 1180ERGO    C116439   7.048   2.813   7.332  0.1589 -0.0826  0.0627
 1180ERGO    C216440   7.255   3.110   7.507  0.1085  0.2572 -0.2665
 1181ERGO   ROH16441  14.855   0.094   6.524  0.0798 -0.1014  0.0766
 1181ERGO    R116442  14.960   0.127   6.785  0.0449 -0.0129  0.0813
 1181ERGO    R216443  14.804   0.105   7.013  0.0291 -0.0294  0.0787
 1181ERGO    R316444  14.993  -0.077   7.085  0.0912  0.0526  0.1177
 1181ERGO    R416445  14.809  -0.067   7.312 -0.0730 -0.2043 -0.0194
 1181ERGO    R516446  15.025  -0.040   7.319 -0.1036 -0.0689  0.1582
 1181ERGO    C116447  14.990  -0.338   7.554 -0.0742 -0.2291 -0.0401
 1181ERGO    C216448  15.119  -0.571   7.684 -0.0370  0.0312  0.1653
 1182ERGO   ROH16449   8.581   6.412   6.033  0.1028  0.3455  0.0912
 1182ERGO    R116450   8.528   6.395   6.311 -0.0056  0.1639  0.0608
 1182ERGO    R216451   8.368   6.197   6.420 -0.0392  0.0846 -0.1284
 1182ERGO    R316452   8.586   6.152   6.576 -0.0982 -0.0046 -0.0709
 1182ERGO    R416453   8.359   6.143   6.761 -0.1513  0.0953 -0.1295
 1182ERGO    R516454   8.538   6.267   6.780 -0.1034  0.0204 -0.0859
 1182ERGO    C116455   8.558   6.070   7.106 -0.2721  0.0177 -0.0763
 1182ERGO    C216456   8.371   5.999   7.432 -0.0961  0.0295 -0.2223
 1183ERGO   ROH16457   3.222   3.416  10.528 -0.2139  0.1028  0.0928
 1183ERGO    R116458   3.109   3.465  10.273 -0.0752  0.1430  0.0381
 1183ERGO    R216459   3.262   3.531  10.053  0.0752 -0.1175  0.0594
 1183ERGO    R316460   3.132   3.320   9.941 -0.1387 -0.0097  0.1000
 1183ERGO    R416461   3.220   3.483   9.713 -0.1013 -0.0700  0.0740
 1183ERGO    R516462   3.017   3.414   9.753 -0.1400  0.0897  0.1517
 1183ERGO    C116463   3.074   3.258   9.410 -0.4048  0.0588  0.1205
 1183ERGO    C216464   3.101   3.233   9.095  0.3493 -0.1295  0.4375
 1184ERGO   ROH16465   4.705  16.824   6.035 -0.0263  0.3369 -0.2848
 1184ERGO    R116466   4.635  16.825   6.309 -0.0416  0.1877 -0.2882
 1184ERGO    R216467   4.789  16.949   6.503 -0.0618  0.0915 -0.2165
 1184ERGO    R316468   4.556  17.076   6.561 -0.0707  0.0488 -0.1549
 1184ERGO    R416469   4.704  17.076   6.813  0.0445  0.1503 -0.2101
 1184ERGO    R516470   4.501  17.003   6.782  0.0437  0.0886 -0.1079
 1184ERGO    C116471   4.435  17.268   7.048  0.0981  0.1447 -0.1485
 1184ERGO    C216472   4.176  17.454   7.182 -0.4271 -0.0828 -0.1162
 1185ERGO   ROH16473   3.948   2.358   6.654 -0.0673  0.1703 -0.0856
 1185ERGO    R116474   3.902   2.391   6.931  0.0040 -0.1162 -0.0377
 1185ERGO    R216475   4.033   2.240   7.122  0.4347  0.0276 -0.2096
 1185ERGO    R316476   4.099   2.483   7.223 -0.0364  0.1148 -0.0812
 1185ERGO    R416477   4.199   2.291   7.421  0.2409  0.2025 -0.1281
 1185ERGO    R516478   4.067   2.460   7.459 -0.0830 -0.0432 -0.1003
 1185ERGO    C116479   4.359   2.549   7.689 -0.3142  0.3861  0.0399
 1185ERGO    C216480   4.259   2.608   8.018  0.0675  0.0459  0.3064
 1186ERGO   ROH16481   2.075   5.203   6.390  0.2065 -0.1056 -0.1186
 1186ERGO    R116482   2.265   5.072   6.553  0.3475  0.1071 -0.1089
 1186ERGO    R216483   2.457   5.210   6.698 -0.0466  0.3566  0.1933
 1186ERGO    R316484   2.352   5.070   6.907  0.0639 -0.0878 -0.0358
 1186ERGO    R416485   2.607   5.174   7.007 -0.2082  0.3287  0.2699
 1186ERGO    R516486   2.542   4.966   7.010  0.2039  0.1799 -0.0091
 1186ERGO    C116487   2.596   5.022   7.383 -0.1984 -0.1047  0.0993
 1186ERGO    C216488   2.487   4.881   7.663 -0.1810  0.2363 -0.0340
 1187ERGO   ROH16489  15.715  14.332   6.517 -0.0418  0.1194  0.0588
 1187ERGO    R116490  15.850  14.503   6.698  0.0128  0.1499 -0.0109
 1187ERGO    R216491  15.903  14.432   6.960  0.0138  0.2296  0.0084
 1187ERGO    R316492  16.158  14.492   6.891  0.0245  0.1447 -0.0280
 1187ERGO    R416493  16.166  14.463   7.181  0.0634  0.0802 -0.0281
 1187ERGO    R516494  16.237  14.634   7.066  0.1090  0.0802 -0.0088
 1187ERGO    C116495  16.560  14.539   7.245  0.1024 -0.0866 -0.0835
 1187ERGO    C216496  16.814  14.541   7.563 -0.2471  0.1096  0.0732
 1188ERGO   ROH16497   6.273   0.243   6.294 -0.2161 -0.0987 -0.0649
 1188ERGO    R116498   6.333   0.311   6.562  0.0096 -0.0827 -0.1173
 1188ERGO    R216499   6.206   0.193   6.777 -0.0180  0.1371 -0.0096
 1188ERGO    R316500   6.460   0.137   6.856 -0.0379 -0.1415 -0.1313
 1188ERGO    R416501   6.296   0.096   7.096  0.0360  0.1126 -0.0326
 1188ERGO    R516502   6.472   0.223   7.080  0.1804 -0.0970 -0.1583
 1188ERGO    C116503   6.587  -0.013   7.357  0.0487 -0.1632 -0.1603
 1188ERGO    C216504   6.573  -0.192   7.679 -0.4719 -0.0853  0.0854
 1189ERGO   ROH16505   5.850  13.524   6.279  0.3222  0.0129 -0.1068
 1189ERGO    R116506   5.973  13.464   6.526  0.1555 -0.1446 -0.0604
 1189ERGO    R216507   5.863  13.538   6.769  0.1766  0.0290 -0.1018
 1189ERGO    R316508   5.887  13.273   6.824 -0.2171 -0.0059 -0.0741
 1189ERGO    R416509   5.863  13.402   7.086  0.0590  0.0687 -0.0845
 1189ERGO    R516510   6.021  13.266   7.023 -0.1679 -0.1868 -0.1131
 1189ERGO    C116511   5.886  13.075   7.324 -0.3789  0.0589 -0.0485
 1189ERGO    C216512   5.561  12.836   7.471  0.3855 -0.0351 -0.3840
 1190ERGO   ROH16513   3.025   3.689   6.694  0.2778  0.0140 -0.0671
 1190ERGO    R116514   3.087   3.772   6.958  0.3624  0.0757 -0.1052
 1190ERGO    R216515   3.271   3.970   7.012  0.1774  0.2898 -0.2250
 1190ERGO    R316516   3.064   4.080   7.150  0.1383  0.0475 -0.0849
 1190ERGO    R416517   3.303   4.212   7.257  0.0625  0.2385 -0.1591
 1190ERGO    R516518   3.149   4.109   7.372  0.2172  0.0534 -0.1181
 1190ERGO    C116519   3.128   4.456   7.529 -0.0411 -0.0188  0.0108
 1190ERGO    C216520   3.102   4.816   7.594 -0.3399 -0.0890 -0.0706
 1191ERGO   ROH16521   0.216   8.012   6.360  0.1493 -0.1508 -0.0288
 1191ERGO    R116522   0.191   7.923   6.628  0.1083 -0.0892 -0.0121
 1191ERGO    R216523   0.189   7.655   6.696  0.1716 -0.0715  0.0561
 1191ERGO    R316524   0.392   7.729   6.861  0.1074  0.0308  0.0899
 1191ERGO    R416525   0.239   7.534   7.016  0.1448 -0.0054  0.0855
 1191ERGO    R516526   0.293   7.735   7.079  0.0550  0.0263  0.0674
 1191ERGO    C116527   0.457   7.534   7.358  0.0689  0.1292  0.1344
 1191ERGO    C216528   0.598   7.392   7.648 -0.1833 -0.2085  0.2427
 1192ERGO   ROH16529   8.118  13.398   6.229  0.1506  0.2051  0.0321
 1192ERGO    R116530   7.956  13.363   6.458  0.1286  0.2645  0.0264
 1192ERGO    R216531   7.850  13.118   6.530 -0.0931  0.3317 -0.0628
 1192ERGO    R316532   7.973  13.170   6.766 -0.0326  0.1284 -0.0479
 1192ERGO    R416533   7.770  12.967   6.830 -0.2538  0.3175 -0.1127
 1192ERGO    R516534   7.795  13.160   6.928 -0.0463  0.2644 -0.0510
 1192ERGO    C116535   7.838  12.928   7.227 -0.2905  0.1181 -0.1277
 1192ERGO    C216536   7.902  12.887   7.506 -0.0875  0.1793 -0.0857
 1193ERGO   ROH16537   5.877   9.514   9.787 -0.3067  0.1157 -0.1273
 1193ERGO    R116538   5.894   9.426   9.518  0.0393  0.1073 -0.1084
 1193ERGO    R216539   5.672   9.406   9.354  0.1710 -0.3410 -0.2557
 1193ERGO    R316540   5.820   9.564   9.190 -0.0150 -0.0697 -0.1700
 1193ERGO    R416541   5.641   9.417   9.010  0.3519 -0.3838 -0.2742
 1193ERGO    R516542   5.858   9.428   8.996  0.3399  0.0050 -0.1535
 1193ERGO    C116543   5.762   9.571   8.655  0.2826 -0.1539 -0.2046
 1193ERGO    C216544   5.846   9.629   8.317 -0.3108 -0.0736 -0.0065
 1194ERGO   ROH16545   0.376   0.478   6.633  0.0331  0.1916 -0.4111
 1194ERGO    R116546   0.572   0.646   6.747  0.0670  0.0685 -0.2879
 1194ERGO    R216547   0.644   0.631   7.014 -0.0472 -0.0367 -0.2674
 1194ERGO    R316548   0.894   0.603   6.912 -0.0156 -0.1231 -0.1696
 1194ERGO    R416549   0.933   0.741   7.168 -0.1007  0.1078 -0.2674
 1194ERGO    R516550   1.006   0.806   6.973 -0.0419 -0.0600 -0.3096
 1194ERGO    C116551   1.337   0.778   7.162 -0.1021  0.1108 -0.1755
 1194ERGO    C216552   1.614   0.808   7.421  0.1589 -0.1654  0.1268
 1195ERGO   ROH16553  14.348   6.717   6.130 -0.1325  0.1193 -0.0532
 1195ERGO    R116554  14.255   6.739   6.396 -0.0278  0.0725 -0.0126
 1195ERGO    R216555  14.254   6.526   6.572  0.1122  0.0621 -0.0279
 1195ERGO    R316556  14.395   6.698   6.730  0.1241  0.0937 -0.0719
 1195ERGO    R416557  14.224   6.549   6.916  0.2184  0.0451 -0.0167
 1195ERGO    R516558  14.238   6.766   6.898  0.1601  0.0519 -0.0182
 1195ERGO    C116559  14.339   6.723   7.264  0.2915  0.0649 -0.0516
 1195ERGO    C216560  14.365   6.628   7.571  0.0185 -0.2597 -0.1582
 1196ERGO   ROH16561   2.809  10.431   6.360  0.0214  0.1207 -0.0528
 1196ERGO    R116562   2.855  10.304   6.609 -0.2843  0.0637 -0.0216
 1196ERGO    R216563   3.049  10.391   6.786 -0.0620 -0.3569 -0.0477
 1196ERGO    R316564   2.840  10.398   6.960 -0.0565  0.1960 -0.0442
 1196ERGO    R416565   3.077  10.364   7.130 -0.1280 -0.5375 -0.0548
 1196ERGO    R516566   2.898  10.239   7.130 -0.5049 -0.0350 -0.0896
 1196ERGO    C116567   2.897  10.355   7.493 -0.1613 -0.1235 -0.0557
 1196ERGO    C216568   3.060  10.398   7.843  0.1208 -0.1364  0.0616
 1197ERGO   ROH16569  16.437   8.522   6.377 -0.0009  0.0397 -0.1816
 1197ERGO    R116570  16.424   8.586   6.652  0.0939  0.0717 -0.1841
 1197ERGO    R216571  16.185   8.606   6.790  0.1244  0.3516 -0.1652
 1197ERGO    R316572  16.303   8.425   6.956 -0.0653  0.2257 -0.1646
 1197ERGO    R416573  16.262   8.663   7.122  0.1152  0.2439 -0.1441
 1197ERGO    R516574  16.450   8.556   7.092  0.0276  0.0801 -0.1219
 1197ERGO    C116575  16.417   8.528   7.471 -0.0682  0.0630 -0.1312
 1197ERGO    C216576  16.479   8.604   7.812 -0.0988 -0.1808  0.1055
 1198ERGO   ROH16577   8.784   7.982   6.103 -0.1425  0.0307  0.0927
 1198ERGO    R116578   8.919   7.909   6.341 -0.0836  0.0738  0.0734
 1198ERGO    R216579   8.917   8.067   6.568 -0.0825  0.0851  0.0688
 1198ERGO    R316580   8.827   7.839   6.686 -0.0095  0.0680  0.0913
 1198ERGO    R416581   8.867   8.026   6.908 -0.1309  0.1178  0.0654
 1198ERGO    R516582   8.950   7.825   6.891 -0.0449  0.1518  0.1159
 1198ERGO    C116583   8.754   7.788   7.216 -0.0905  0.1207  0.0846
 1198ERGO    C216584   8.702   7.648   7.494 -0.0665 -0.1128  0.0973
 1199ERGO   ROH16585   2.109   7.381   7.598  0.0957  0.1420 -0.0133
 1199ERGO    R116586   2.115   7.650   7.687 -0.0005  0.1134  0.0848
 1199ERGO    R216587   2.047   7.862   7.523  0.2016  0.1737  0.0684
 1199ERGO    R316588   1.875   7.921   7.725 -0.0421  0.1046 -0.1144
 1199ERGO    R416589   1.877   8.161   7.558  0.1644  0.1624 -0.0176
 1199ERGO    R516590   1.915   8.152   7.772 -0.0945  0.0826  0.0229
 1199ERGO    C116591   1.617   8.390   7.769 -0.0861  0.0911 -0.2393
 1199ERGO    C216592   1.456   8.612   8.012  0.1318  0.0312  0.0454
 1200ERGO   ROH16593   8.479  10.847   6.142 -0.2748  0.0581 -0.0368
 1200ERGO    R116594   8.552  10.916   6.406 -0.1755  0.0306 -0.0576
 1200ERGO    R216595   8.469  11.152   6.527 -0.1300  0.0134 -0.0050
 1200ERGO    R316596   8.378  10.983   6.719 -0.0555 -0.0024  0.0187
 1200ERGO    R416597   8.486  11.211   6.867 -0.2514  0.1275 -0.0173
 1200ERGO    R516598   8.537  11.002   6.896 -0.1049  0.1659  0.0529
 1200ERGO    C116599   8.409  11.087   7.245 -0.2523  0.1791 -0.0022
 1200ERGO    C216600   8.327  11.398   7.513  0.0841 -0.0579 -0.0536
 1201ERGO   ROH16601  13.053  15.923   6.497 -0.0550 -0.0111  0.0755
 1201ERGO    R116602  12.904  16.067   6.690 -0.0554 -0.0187  0.0818
 1201ERGO    R216603  12.774  15.945   6.901 -0.0183 -0.0230  0.1046
 1201ERGO    R316604  12.918  16.120   7.049 -0.0255  0.0053  0.0769
 1201ERGO    R416605  12.700  16.036   7.226  0.0898 -0.1262  0.1581
 1201ERGO    R516606  12.754  16.241   7.175 -0.0200 -0.0923  0.1778
 1201ERGO    C116607  12.793  16.254   7.554  0.1460 -0.1594  0.1630
 1201ERGO    C216608  12.962  16.155   7.840  0.0885 -0.1140  0.0541
 1202ERGO   ROH16609   7.277   8.602   7.942 -0.1793 -0.0013  0.0149
 1202ERGO    R116610   7.149   8.831   7.834 -0.1765 -0.0726 -0.1420
 1202ERGO    R216611   6.993   8.820   7.606 -0.2455 -0.2444 -0.0877
 1202ERGO    R316612   6.806   8.935   7.767 -0.1811 -0.0777 -0.1290
 1202ERGO    R416613   6.714   8.991   7.495 -0.2053 -0.2221 -0.1550
 1202ERGO    R516614   6.745   9.136   7.654 -0.1301 -0.1284 -0.2515
 1202ERGO    C116615   6.376   9.197   7.581 -0.1214 -0.0525 -0.2330
 1202ERGO    C216616   6.120   9.099   7.425  0.0339  0.0064 -0.3813
 1203ERGO   ROH16617  16.670  17.963   6.604  0.0469 -0.3580  0.0932
 1203ERGO    R116618  16.560  18.014   6.860 -0.0062 -0.2251  0.0449
 1203ERGO    R216619  16.466  17.812   7.024 -0.0220 -0.1432  0.1395
 1203ERGO    R316620  16.637  17.923   7.203 -0.0637 -0.0298  0.1100
 1203ERGO    R416621  16.443  17.777   7.367  0.0134 -0.0820  0.1483
 1203ERGO    R516622  16.497  17.987   7.387 -0.0809 -0.0550  0.1036
 1203ERGO    C116623  16.590  17.861   7.735 -0.0052  0.0601  0.1258
 1203ERGO    C216624  16.597  17.634   8.037 -0.1378 -0.5616 -0.0375
 1204ERGO   ROH16625   8.766  18.236   6.454  0.2466  0.2173 -0.1292
 1204ERGO    R116626   8.716  18.332   6.715  0.0089  0.1834 -0.1597
 1204ERGO    R216627   8.462  18.392   6.806 -0.1165 -0.1762 -0.2605
 1204ERGO    R316628   8.529  18.221   7.007  0.0627 -0.0525 -0.2127
 1204ERGO    R416629   8.266  18.325   7.083  0.0087 -0.2083 -0.1786
 1204ERGO    R516630   8.447  18.327   7.205  0.0444 -0.0332 -0.2301
 1204ERGO    C116631   8.215  18.127   7.433  0.2498 -0.1106 -0.0861
 1204ERGO    C216632   7.999  18.117   7.713 -0.3510 -0.0499  0.0703
 1205ERGO   ROH16633   6.285  13.887  10.009  0.1289  0.0365  0.2889
 1205ERGO    R116634   6.372  14.042   9.789 -0.0164  0.0236  0.2200
 1205ERGO    R216635   6.489  13.930   9.565  0.2085  0.0395  0.3203
 1205ERGO    R316636   6.293  14.067   9.434  0.0519 -0.3077  0.1800
 1205ERGO    R416637   6.515  14.051   9.242  0.2614  0.1906  0.3801
 1205ERGO    R516638   6.412  14.232   9.307 -0.1601 -0.0308  0.3388
 1205ERGO    C116639   6.347  14.249   8.931  0.1453 -0.0472  0.2831
 1205ERGO    C216640   6.308  14.042   8.707 -0.0598 -0.0876  0.0727
 1206ERGO   ROH16641  11.688   0.366   6.577 -0.1029  0.0654  0.1386
 1206ERGO    R116642  11.502   0.311   6.783  0.0554 -0.0117  0.2643
 1206ERGO    R216643  11.571   0.316   7.051  0.1602  0.3355  0.2427
 1206ERGO    R316644  11.363   0.489   7.068 -0.0819  0.0600  0.1506
 1206ERGO    R416645  11.420   0.413   7.346 -0.0966  0.1661  0.1691
 1206ERGO    R516646  11.227   0.401   7.245 -0.0374 -0.0997  0.0981
 1206ERGO    C116647  11.136   0.632   7.534 -0.4733 -0.1912  0.0398
 1206ERGO    C216648  11.069   0.854   7.590 -0.3377  0.1214  0.1147
 1207ERGO   ROH16649  15.186  14.309   6.356 -0.0616 -0.1479 -0.0636
 1207ERGO    R116650  15.230  14.429   6.609  0.2162  0.0729 -0.2109
 1207ERGO    R216651  15.219  14.286   6.845 -0.1090  0.3819 -0.0297
 1207ERGO    R316652  15.468  14.390   6.882  0.1419 -0.1333 -0.1728
 1207ERGO    R416653  15.389  14.287   7.146 -0.1781  0.5127  0.0087
 1207ERGO    R516654  15.458  14.490   7.100  0.3175  0.2869 -0.3442
 1207ERGO    C116655  15.721  14.386   7.356  0.0173  0.1053 -0.1032
 1207ERGO    C216656  15.908  14.238   7.517  0.3159  0.5489  0.1812
 1208ERGO   ROH16657   1.062   1.638   6.890  0.0989  0.3186  0.0913
 1208ERGO    R116658   1.213   1.622   7.129  0.0931  0.3716  0.0993
 1208ERGO    R216659   1.190   1.808   7.332 -0.0870  0.2901  0.1603
 1208ERGO    R316660   1.141   1.589   7.485  0.0876  0.1951  0.0819
 1208ERGO    R416661   1.231   1.794   7.675 -0.1010  0.2037  0.1580
 1208ERGO    R516662   1.313   1.593   7.651  0.0704  0.2822  0.0952
 1208ERGO    C116663   1.208   1.579   8.018  0.0547  0.0642  0.0831
 1208ERGO    C216664   1.273   1.458   8.293  0.3073  0.0083  0.0533
 1209ERGO   ROH16665  13.987  12.367   6.434  0.0268  0.0773 -0.0295
 1209ERGO    R116666  14.065  12.327   6.704  0.1347  0.0595 -0.0618
 1209ERGO    R216667  14.113  12.536   6.878 -0.0604  0.0511  0.0111
 1209ERGO    R316668  13.931  12.407   7.032  0.1165 -0.2167 -0.0005
 1209ERGO    R416669  14.120  12.523   7.223 -0.0391  0.0217  0.0084
 1209ERGO    R516670  14.060  12.314   7.211  0.2455 -0.0614 -0.0132
 1209ERGO    C116671  13.954  12.393   7.569  0.1395 -0.2468 -0.0040
 1209ERGO    C216672  14.002  12.523   7.805  0.0772  0.1990 -0.1801
 1210ERGO   ROH16673  18.224  16.121   5.905 -0.0544  0.1753 -0.0464
 1210ERGO    R116674  18.280  16.211   6.168 -0.0379  0.2165 -0.0631
 1210ERGO    R216675  18.176  16.446   6.270 -0.1725  0.1491 -0.0331
 1210ERGO    R316676  18.088  16.283   6.469 -0.0008  0.0854 -0.0079
 1210ERGO    R416677  18.062  16.555   6.577 -0.2056  0.0673 -0.0171
 1210ERGO    R516678  18.167  16.387   6.670 -0.0501  0.1595 -0.0285
 1210ERGO    C116679  17.912  16.465   6.943 -0.0633 -0.0397  0.0158
 1210ERGO    C216680  17.585  16.538   7.192  0.1225  0.1823 -0.2302
 1211ERGO   ROH16681  12.770  11.796   6.068 -0.1308  0.0057  0.0359
 1211ERGO    R116682  12.785  11.762   6.348 -0.1382  0.0696  0.0444
 1211ERGO    R216683  13.023  11.709   6.479 -0.1755 -0.1307  0.0358
 1211ERGO    R316684  12.953  11.927   6.626  0.0544 -0.0168 -0.0187
 1211ERGO    R416685  13.144  11.783   6.794  0.0432 -0.0780 -0.0592
 1211ERGO    R516686  12.944  11.847   6.851  0.1170  0.0868  0.0208
 1211ERGO    C116687  13.149  12.031   7.115  0.3863  0.0598 -0.1656
 1211ERGO    C216688  13.183  12.030   7.430  0.3282  0.0498 -0.2342
 1212ERGO   ROH16689  10.759   7.033   6.310 -0.1383 -0.2663  0.0026
 1212ERGO    R116690  10.740   6.932   6.574 -0.0021 -0.1754  0.0488
 1212ERGO    R216691  10.939   6.968   6.762  0.0501 -0.0196 -0.0336
 1212ERGO    R316692  10.735   7.070   6.911  0.0590 -0.0497 -0.0012
 1212ERGO    R416693  10.933   6.981   7.108  0.0589 -0.1114 -0.0299
 1212ERGO    R516694  10.723   6.925   7.101  0.0568 -0.0996 -0.0396
 1212ERGO    C116695  10.738   7.084   7.448  0.0724 -0.1931  0.0024
 1212ERGO    C216696  10.604   7.058   7.754 -0.4126  0.0621  0.0353
 1213ERGO   ROH16697   2.975   8.978   6.647 -0.0545 -0.1362 -0.0469
 1213ERGO    R116698   3.158   9.078   6.838 -0.1260 -0.0842 -0.0048
 1213ERGO    R216699   3.377   9.231   6.768 -0.0819 -0.1286  0.0321
 1213ERGO    R316700   3.273   9.405   6.948 -0.1445 -0.0544 -0.0744
 1213ERGO    R416701   3.564   9.425   6.985 -0.1655 -0.2076  0.1760
 1213ERGO    R516702   3.416   9.384   7.140 -0.3219 -0.1123  0.0524
 1213ERGO    C116703   3.574   9.701   7.281 -0.2729 -0.1840  0.1598
 1213ERGO    C216704   3.542  10.101   7.295 -0.2108  0.2475 -0.0896
 1214ERGO   ROH16705  16.687  13.249   6.166 -0.1431  0.1509  0.0580
 1214ERGO    R116706  16.495  13.267   6.374 -0.0962  0.1586  0.1024
 1214ERGO    R216707  16.291  13.083   6.404 -0.1103  0.1718  0.1410
 1214ERGO    R316708  16.391  13.061   6.656 -0.0490  0.1529  0.1138
 1214ERGO    R416709  16.116  12.965   6.678  0.0177 -0.0065  0.1467
 1214ERGO    R516710  16.208  13.121   6.798 -0.0478  0.0058  0.1710
 1214ERGO    C116711  16.108  12.876   7.073  0.1497 -0.1281  0.1244
 1214ERGO    C216712  16.176  12.712   7.362 -0.1787  0.0701 -0.4318
 1215ERGO   ROH16713   7.770   4.742   6.110  0.0841  0.0585 -0.0063
 1215ERGO    R116714   7.986   4.715   6.290  0.0962  0.1335 -0.0077
 1215ERGO    R216715   8.006   4.863   6.522 -0.0058  0.0675  0.0479
 1215ERGO    R316716   8.030   4.619   6.639  0.1428  0.0407 -0.0393
 1215ERGO    R416717   8.200   4.795   6.800  0.0565  0.0814  0.0066
 1215ERGO    R516718   8.260   4.608   6.706  0.1546  0.1477 -0.0632
 1215ERGO    C116719   8.336   4.526   7.071  0.2321  0.0643 -0.0992
 1215ERGO    C216720   8.478   4.393   7.374  0.0861  0.2229 -0.1597
 1216ERGO   ROH16721  17.460   4.506   6.507 -0.1705  0.0627 -0.0702
 1216ERGO    R116722  17.374   4.332   6.713  0.0192 -0.0569 -0.0910
 1216ERGO    R216723  17.548   4.173   6.856  0.2163  0.2463  0.0027
 1216ERGO    R316724  17.433   4.295   7.070 -0.0838  0.0805 -0.0568
 1216ERGO    R416725  17.573   4.063   7.183  0.3865  0.3846  0.0385
 1216ERGO    R516726  17.363   4.114   7.211  0.2600 -0.0376 -0.0193
 1216ERGO    C116727  17.480   4.115   7.574  0.2041  0.3094  0.0034
 1216ERGO    C216728  17.571   4.196   7.878 -0.1918  0.0873  0.1560
 1217ERGO   ROH16729   5.157   8.607   6.157 -0.2081 -0.1783 -0.1172
 1217ERGO    R116730   5.027   8.735   6.374  0.0461  0.0545 -0.0976
 1217ERGO    R216731   4.846   8.605   6.537 -0.2272  0.3913 -0.1242
 1217ERGO    R316732   5.010   8.693   6.735 -0.0459  0.0259 -0.1044
 1217ERGO    R416733   4.783   8.572   6.875 -0.2101  0.2877 -0.1311
 1217ERGO    R516734   4.861   8.773   6.904  0.1072  0.1572 -0.0272
 1217ERGO    C116735   4.900   8.635   7.258 -0.0300 -0.1157 -0.1164
 1217ERGO    C216736   4.900   8.465   7.586 -0.0693 -0.0498 -0.0192
 1218ERGO   ROH16737  17.069  16.902   6.766  0.0841 -0.0782  0.0607
 1218ERGO    R116738  16.976  16.892   7.033 -0.0457  0.0146  0.0198
 1218ERGO    R216739  17.097  16.735   7.226 -0.2107 -0.0071  0.1035
 1218ERGO    R316740  17.111  16.970   7.362 -0.1624  0.0105  0.0692
 1218ERGO    R416741  17.051  16.769   7.567  0.0772  0.0104  0.1440
 1218ERGO    R516742  16.939  16.952   7.529 -0.0136 -0.0261  0.2225
 1218ERGO    C116743  17.037  17.009   7.893  0.2901  0.0375  0.1353
 1218ERGO    C216744  16.906  16.934   8.211 -0.2827 -0.1874  0.3807
 1219ERGO   ROH16745   1.827  16.159   6.483  0.0621  0.0989  0.0293
 1219ERGO    R116746   1.698  16.104   6.728  0.0969 -0.0910  0.0056
 1219ERGO    R216747   1.818  15.959   6.930  0.2504  0.0328  0.0007
 1219ERGO    R316748   1.755  16.177   7.080 -0.0402 -0.0607  0.0230
 1219ERGO    R416749   1.748  15.952   7.269  0.3258 -0.0894  0.0151
 1219ERGO    R516750   1.589  16.098   7.234  0.1010 -0.3152  0.0527
 1219ERGO    C116751   1.649  16.153   7.607  0.0968 -0.2481  0.0444
 1219ERGO    C216752   1.523  16.234   7.957 -0.1301  0.0027 -0.0619
 1220ERGO   ROH16753   9.844   6.942   5.868  0.1620  0.1335  0.0227
 1220ERGO    R116754   9.919   7.016   6.130  0.1049  0.3783 -0.0275
 1220ERGO    R216755   9.833   7.250   6.250 -0.4250  0.2010 -0.0425
 1220ERGO    R316756   9.750   7.080   6.446  0.0800  0.0248  0.0365
 1220ERGO    R416757   9.836   7.322   6.588 -0.4894  0.3098 -0.0644
 1220ERGO    R516758   9.903   7.118   6.626  0.0609  0.4778 -0.0274
 1220ERGO    C116759   9.759   7.206   6.968 -0.0528  0.2078 -0.0029
 1220ERGO    C216760   9.631   7.138   7.327 -0.0885  0.0285  0.3162
 1221ERGO   ROH16761   6.164   1.515   9.974 -0.3097 -0.0632  0.0178
 1221ERGO    R116762   6.014   1.379   9.778 -0.1310 -0.1171 -0.0832
 1221ERGO    R216763   5.922   1.502   9.548 -0.0618 -0.1377 -0.1212
 1221ERGO    R316764   6.052   1.297   9.425  0.1097 -0.0614 -0.0720
 1221ERGO    R416765   5.903   1.432   9.210  0.4836  0.1300 -0.2195
 1221ERGO    R516766   5.896   1.219   9.260  0.3639  0.0904 -0.3961
 1221ERGO    C116767   6.014   1.198   8.898  0.9621  0.3576 -0.2306
 1221ERGO    C216768   5.847   1.323   8.567 -0.0730  0.0178  0.0504
 1222ERGO   ROH16769  12.759  10.134   6.357 -0.1867  0.0018 -0.0495
 1222ERGO    R116770  12.599  10.165   6.589 -0.0124 -0.3726  0.1303
 1222ERGO    R216771  12.684  10.085   6.840  0.5142 -0.0741  0.0650
 1222ERGO    R316772  12.625  10.343   6.906 -0.1223 -0.1980  0.0424
 1222ERGO    R416773  12.647  10.203   7.162  0.3911 -0.0974  0.0597
 1222ERGO    R516774  12.479  10.324   7.094  0.0269 -0.5426  0.1297
 1222ERGO    C116775  12.571  10.514   7.412 -0.2781 -0.2272  0.0354
 1222ERGO    C216776  12.817  10.653   7.746 -0.3811  0.0487 -0.1608
 1223ERGO   ROH16777  17.578  15.294   5.958 -0.0778 -0.2073  0.0037
 1223ERGO    R116778  17.682  15.373   6.209 -0.0331 -0.3219  0.0208
 1223ERGO    R216779  17.567  15.573   6.361  0.1265 -0.2389  0.0255
 1223ERGO    R316780  17.564  15.380   6.553 -0.0583 -0.2525  0.0124
 1223ERGO    R416781  17.521  15.631   6.699  0.2984 -0.1959  0.0431
 1223ERGO    R516782  17.674  15.481   6.740  0.1287 -0.3963 -0.0126
 1223ERGO    C116783  17.492  15.484   7.076  0.2251 -0.1836  0.0410
 1223ERGO    C216784  17.408  15.679   7.381  0.0518 -0.0290  0.1438
 1224ERGO   ROH16785   5.096  11.940   9.901  0.1049  0.0508  0.0580
 1224ERGO    R116786   5.124  11.952   9.620  0.0436  0.0653  0.0527
 1224ERGO    R216787   4.932  11.853   9.447  0.0086  0.0701  0.0903
 1224ERGO    R316788   4.943  12.103   9.343 -0.0194  0.0754  0.0987
 1224ERGO    R416789   4.948  11.925   9.110 -0.1235  0.0863  0.0868
 1224ERGO    R516790   5.091  12.083   9.155 -0.0955  0.0762  0.0375
 1224ERGO    C116791   4.967  12.203   8.815 -0.2269  0.1006  0.0928
 1224ERGO    C216792   4.913  12.285   8.430  0.1050 -0.0839 -0.0708
 1225ERGO   ROH16793   5.431   3.097   6.324 -0.2229 -0.1369 -0.0848
 1225ERGO    R116794   5.389   3.141   6.600 -0.2551 -0.1981 -0.0815
 1225ERGO    R216795   5.228   2.978   6.754 -0.0781 -0.3693 -0.0904
 1225ERGO    R316796   5.450   2.960   6.910 -0.0557 -0.1538 -0.0909
 1225ERGO    R416797   5.230   2.998   7.099 -0.1171 -0.4072 -0.0863
 1225ERGO    R516798   5.412   3.117   7.087 -0.2329 -0.2063 -0.0710
 1225ERGO    C116799   5.440   2.992   7.446 -0.1187 -0.2269 -0.0843
 1225ERGO    C216800   5.487   3.056   7.861  0.1536  0.0670 -0.1617
 1226ERGO   ROH16801   3.776  15.744   6.555 -0.2879 -0.0265 -0.1979
 1226ERGO    R116802   3.712  15.776   6.829 -0.2587  0.1204 -0.2071
 1226ERGO    R216803   3.452  15.797   6.919 -0.2630 -0.0409 -0.1688
 1226ERGO    R316804   3.526  15.591   7.081 -0.0443  0.1392 -0.0332
 1226ERGO    R416805   3.400  15.785   7.261 -0.5326 -0.0121 -0.2070
 1226ERGO    R516806   3.598  15.696   7.283 -0.3968  0.3345 -0.0052
 1226ERGO    C116807   3.439  15.584   7.611 -0.4844  0.1737 -0.1021
 1226ERGO    C216808   3.330  15.774   7.801 -0.1501 -0.3246  0.5290
 1227ERGO   ROH16809  13.431   0.256   6.459  0.0410 -0.1315 -0.0337
 1227ERGO    R116810  13.454   0.321   6.734  0.1113  0.1629 -0.1077
 1227ERGO    R216811  13.557   0.145   6.920 -0.1948  0.2204  0.1078
 1227ERGO    R316812  13.724   0.352   6.976  0.1349  0.0266 -0.1116
 1227ERGO    R416813  13.730   0.185   7.217 -0.3201  0.3594  0.1653
 1227ERGO    R516814  13.686   0.398   7.208  0.0518  0.4444 -0.1926
 1227ERGO    C116815  13.987   0.402   7.442 -0.0836  0.2583 -0.0072
 1227ERGO    C216816  14.138   0.521   7.693  0.1780  0.0735  0.0803
 1228ERGO   ROH16817  10.544   2.039   6.241  0.0607 -0.0303 -0.0698
 1228ERGO    R116818  10.432   2.060   6.501  0.1292 -0.0055 -0.0428
 1228ERGO    R216819  10.517   2.249   6.684  0.0933  0.0893 -0.1287
 1228ERGO    R316820  10.253   2.313   6.692  0.0634 -0.0347 -0.0631
 1228ERGO    R416821  10.355   2.387   6.956  0.1603  0.2453 -0.1662
 1228ERGO    R516822  10.184   2.258   6.914  0.1990  0.1201  0.0232
 1228ERGO    C116823  10.012   2.528   7.122  0.1714  0.2196 -0.1265
 1228ERGO    C216824   9.845   2.532   7.352  0.2220  0.1107  0.2917
 1229ERGO   ROH16825  13.286   5.726   6.392  0.1823  0.0339 -0.0893
 1229ERGO    R116826  13.337   5.833   6.649  0.1241 -0.0280 -0.0515
 1229ERGO    R216827  13.136   5.917   6.818  0.0885 -0.0123 -0.1004
 1229ERGO    R316828  13.255   5.746   6.993 -0.0095 -0.0751 -0.0948
 1229ERGO    R416829  13.110   5.938   7.162  0.0608 -0.0137 -0.1027
 1229ERGO    R516830  13.322   5.886   7.175  0.0358 -0.1130 -0.0821
 1229ERGO    C116831  13.206   5.790   7.526 -0.0474 -0.0734 -0.0989
 1229ERGO    C216832  13.175   5.986   7.871  0.0234 -0.3789 -0.3188
 1230ERGO   ROH16833  12.633   0.833   6.377  0.0936  0.1521 -0.1402
 1230ERGO    R116834  12.539   0.745   6.629  0.0572  0.0474 -0.1900
 1230ERGO    R216835  12.621   0.508   6.744  0.2127  0.1082 -0.1775
 1230ERGO    R316836  12.685   0.668   6.954 -0.0200  0.1441 -0.1311
 1230ERGO    R416837  12.665   0.399   7.070  0.0043  0.1339 -0.1392
 1230ERGO    R516838  12.561   0.578   7.138 -0.1284  0.0941 -0.2250
 1230ERGO    C116839  12.751   0.487   7.456 -0.3355  0.1826 -0.0732
 1230ERGO    C216840  12.803   0.702   7.801 -0.0081 -0.3015  0.0930
 1231ERGO   ROH16841   1.186   4.529   6.479 -0.0669 -0.1050 -0.0673
 1231ERGO    R116842   1.268   4.658   6.717 -0.0750 -0.0410 -0.0990
 1231ERGO    R216843   1.088   4.749   6.907 -0.0747 -0.1808 -0.0304
 1231ERGO    R316844   1.237   4.596   7.075  0.1099 -0.0657 -0.0866
 1231ERGO    R416845   1.032   4.717   7.246  0.0781 -0.2284 -0.0089
 1231ERGO    R516846   1.248   4.724   7.277  0.0858 -0.0587 -0.0897
 1231ERGO    C116847   1.140   4.554   7.601  0.3404 -0.1481 -0.0493
 1231ERGO    C216848   1.019   4.377   7.849 -0.1595  0.0297 -0.1016
 1232ERGO   ROH16849   3.127   0.634   6.485 -0.0097 -0.1412  0.0828
 1232ERGO    R116850   3.090   0.685   6.761 -0.0023 -0.1077  0.0781
 1232ERGO    R216851   3.296   0.764   6.927  0.0137 -0.1317  0.0745
 1232ERGO    R316852   3.129   0.970   6.984  0.0524 -0.0935  0.0490
 1232ERGO    R416853   3.324   0.970   7.203 -0.0238 -0.1737  0.1093
 1232ERGO    R516854   3.107   0.964   7.223 -0.0281 -0.1164  0.0386
 1232ERGO    C116855   3.183   1.283   7.418 -0.0093 -0.1623  0.1057
 1232ERGO    C216856   3.239   1.393   7.796 -0.1403 -0.1141  0.2601
 1233ERGO   ROH16857  13.727  17.278   6.222  0.0798  0.0328  0.1217
 1233ERGO    R116858  13.609  17.396   6.450  0.0002 -0.0039  0.1000
 1233ERGO    R216859  13.373  17.304   6.561 -0.0024 -0.0654  0.0440
 1233ERGO    R316860  13.523  17.291   6.788 -0.0494 -0.0372  0.0770
 1233ERGO    R416861  13.249  17.328   6.883 -0.0539  0.0956  0.0132
 1233ERGO    R516862  13.421  17.449   6.936 -0.0205  0.0530  0.0013
 1233ERGO    C116863  13.317  17.330   7.283 -0.1280  0.2157  0.0262
 1233ERGO    C216864  13.091  17.269   7.588  0.2066 -0.0238  0.2079
 1234ERGO   ROH16865   4.092  12.048   6.283  0.0651 -0.5071  0.1360
 1234ERGO    R116866   4.194  12.053   6.547  0.0215 -0.4501  0.1528
 1234ERGO    R216867   4.326  11.837   6.660  0.2593 -0.3290  0.1227
 1234ERGO    R316868   4.521  12.021   6.705  0.0390 -0.1079  0.1904
 1234ERGO    R416869   4.509  11.863   6.952  0.1898 -0.1680  0.1524
 1234ERGO    R516870   4.495  12.080   6.936 -0.0613 -0.1829  0.1958
 1234ERGO    C116871   4.799  12.051   7.164 -0.0573  0.1333  0.2333
 1234ERGO    C216872   5.013  12.031   7.443  0.2002 -0.1639  0.0448
 1235ERGO   ROH16873   6.438  15.207   6.315 -0.3211 -0.2381 -0.0902
 1235ERGO    R116874   6.362  15.409   6.498 -0.0777 -0.0882 -0.1492
 1235ERGO    R216875   6.196  15.360   6.713 -0.2068  0.1922 -0.1784
 1235ERGO    R316876   6.400  15.470   6.855 -0.0775 -0.0731 -0.1524
 1235ERGO    R416877   6.187  15.428   7.052 -0.1101  0.0980 -0.1563
 1235ERGO    R516878   6.292  15.615   7.012  0.0909 -0.0034 -0.1017
 1235ERGO    C116879   6.374  15.571   7.382  0.0677 -0.2059 -0.1191
 1235ERGO    C216880   6.520  15.716   7.678 -0.0226  0.1359  0.2422
 1236ERGO   ROH16881  13.275  18.267   6.711  0.0539 -0.2472  0.0834
 1236ERGO    R116882  13.130  18.393   6.918  0.2522 -0.2272  0.2115
 1236ERGO    R216883  12.855  18.369   6.943  0.2259  0.1124  0.2309
 1236ERGO    R316884  12.918  18.286   7.195  0.1546 -0.1799  0.1577
 1236ERGO    R416885  12.640  18.377   7.213  0.3289  0.3958  0.3095
 1236ERGO    R516886  12.806  18.442   7.338  0.5242 -0.0237  0.2959
 1236ERGO    C116887  12.573  18.304   7.606  0.3220  0.2863  0.2866
 1236ERGO    C216888  12.270  18.153   7.739  0.2478 -0.0692  0.0769
 1237ERGO   ROH16889  11.852  11.168   6.272  0.2876 -0.2254  0.0195
 1237ERGO    R116890  11.961  11.288   6.505  0.2220 -0.1868  0.0302
 1237ERGO    R216891  11.804  11.380   6.712  0.1618 -0.1260 -0.0433
 1237ERGO    R316892  11.963  11.218   6.862  0.0954 -0.1097  0.0466
 1237ERGO    R416893  11.864  11.421   7.050  0.0388 -0.0672 -0.0273
 1237ERGO    R516894  12.073  11.367   7.014  0.0494 -0.0888  0.0601
 1237ERGO    C116895  12.049  11.293   7.387 -0.0952 -0.0178  0.0664
 1237ERGO    C216896  11.902  11.100   7.613  0.2800  0.1200  0.2434
 1238ERGO   ROH16897   7.848  16.901   6.244  0.1776  0.1181 -0.0205
 1238ERGO    R116898   7.816  16.793   6.504  0.1207  0.0346 -0.0622
 1238ERGO    R216899   8.013  16.812   6.698  0.0915 -0.0582 -0.0252
 1238ERGO    R316900   7.812  16.921   6.845  0.0833 -0.0803 -0.0190
 1238ERGO    R416901   7.964  16.759   7.036  0.0777 -0.1019 -0.0334
 1238ERGO    R516902   7.750  16.748   6.998  0.0793 -0.1010 -0.0436
 1238ERGO    C116903   7.747  16.831   7.371  0.0617 -0.1484 -0.0323
 1238ERGO    C216904   7.732  16.666   7.724  0.1830 -0.1086  0.2290
 1239ERGO   ROH16905   8.466   9.114   6.443 -0.2164 -0.1156 -0.0369
 1239ERGO    R116906   8.374   8.910   6.617 -0.0620 -0.1748 -0.0218
 1239ERGO    R216907   8.500   8.851   6.856 -0.0838  0.0174  0.0474
 1239ERGO    R316908   8.251   8.889   6.959 -0.1678 -0.2184 -0.0650
 1239ERGO    R416909   8.388   8.720   7.156 -0.0576  0.0504  0.0708
 1239ERGO    R516910   8.196   8.679   7.061  0.0309 -0.2216  0.0238
 1239ERGO    C116911   8.089   8.680   7.427 -0.1210 -0.1518 -0.0210
 1239ERGO    C216912   8.122   8.770   7.734 -0.0523 -0.3259  0.4106
 1240ERGO   ROH16913  13.670   9.653   6.097 -0.3830  0.0201  0.1021
 1240ERGO    R116914  13.583   9.739   6.353 -0.1828  0.0741  0.1532
 1240ERGO    R216915  13.498   9.563   6.548 -0.2856  0.1333  0.1607
 1240ERGO    R316916  13.687   9.688   6.698 -0.0865 -0.0882  0.1018
 1240ERGO    R416917  13.500   9.575   6.894 -0.2649  0.2796  0.1564
 1240ERGO    R516918  13.565   9.783   6.881  0.0561  0.1817  0.0643
 1240ERGO    C116919  13.679   9.699   7.235 -0.0659  0.1567  0.0986
 1240ERGO    C216920  13.868   9.897   7.420 -0.1057 -0.3335 -0.3418
 1241ERGO   ROH16921   3.881  13.066   6.003 -0.1561 -0.1886  0.0506
 1241ERGO    R116922   3.911  13.067   6.284 -0.2347  0.0075  0.0603
 1241ERGO    R216923   4.147  13.138   6.409 -0.1756 -0.1846  0.0645
 1241ERGO    R316924   3.986  13.313   6.542  0.0026  0.1322 -0.1243
 1241ERGO    R416925   4.227  13.290   6.709 -0.1209 -0.1305  0.0223
 1241ERGO    R516926   4.021  13.260   6.774 -0.2062  0.2110 -0.0737
 1241ERGO    C116927   4.124  13.543   7.008  0.0782  0.1982 -0.1794
 1241ERGO    C216928   4.409  13.712   7.012 -0.1762  0.0833 -0.2320
 1242ERGO   ROH16929  16.948   6.814   6.157 -0.0033 -0.0569  0.0203
 1242ERGO    R116930  16.973   6.702   6.416  0.3048  0.2467  0.1287
 1242ERGO    R216931  17.097   6.835   6.624 -0.1195  0.8287  0.0326
 1242ERGO    R316932  16.862   6.786   6.752 -0.0088  0.2249  0.0343
 1242ERGO    R416933  17.069   6.736   6.954  0.1360  0.7742  0.0407
 1242ERGO    R516934  16.910   6.600   6.894  0.4800  0.3463  0.0498
 1242ERGO    C116935  16.832   6.632   7.266  0.3885  0.1757  0.0471
 1242ERGO    C216936  16.819   6.595   7.681 -0.1405  0.2845 -0.0255
 1243ERGO   ROH16937  10.963   5.161   6.453 -0.1462 -0.0367  0.1148
 1243ERGO    R116938  10.948   5.346   6.667 -0.2230 -0.0496  0.1215
 1243ERGO    R216939  10.969   5.269   6.931 -0.1186 -0.0418  0.1172
 1243ERGO    R316940  11.167   5.456   6.937 -0.2384  0.0867  0.0782
 1243ERGO    R416941  11.108   5.401   7.219 -0.0748 -0.0262  0.0888
 1243ERGO    R516942  11.110   5.597   7.123 -0.2467  0.0004  0.1399
 1243ERGO    C116943  11.374   5.653   7.392 -0.1617  0.1036  0.0355
 1243ERGO    C216944  11.488   5.535   7.672  0.1165  0.3434 -0.1760
 1244ERGO   ROH16945  15.098   1.136   6.928  0.1513 -0.0012 -0.0899
 1244ERGO    R116946  15.315   1.107   7.108 -0.0170  0.0114  0.1215
 1244ERGO    R216947  15.283   1.015   7.367 -0.2324 -0.2238  0.0223
 1244ERGO    R316948  15.470   0.834   7.292 -0.0235 -0.0282  0.0649
 1244ERGO    R416949  15.481   0.833   7.584 -0.1690 -0.1079  0.0612
 1244ERGO    R516950  15.648   0.863   7.448 -0.1297  0.0865  0.1593
 1244ERGO    C116951  15.773   0.557   7.639  0.0641  0.1432  0.1238
 1244ERGO    C216952  15.872   0.151   7.581  0.2010  0.1366 -0.0394
 1245ERGO   ROH16953  12.226   6.252   6.077  0.2031 -0.0680 -0.0235
 1245ERGO    R116954  12.324   6.253   6.342  0.1112 -0.0438  0.0104
 1245ERGO    R216955  12.347   6.485   6.491  0.0533 -0.0321 -0.0011
 1245ERGO    R316956  12.197   6.346   6.670 -0.0043 -0.0211 -0.0399
 1245ERGO    R416957  12.383   6.501   6.835 -0.1596  0.1105  0.0168
 1245ERGO    R516958  12.351   6.286   6.844 -0.0848  0.1003  0.0768
 1245ERGO    C116959  12.263   6.380   7.203 -0.3375  0.2038 -0.0091
 1245ERGO    C216960  12.093   6.635   7.397  0.0207  0.1036 -0.3464
 1246ERGO   ROH16961  11.234  15.866   6.462 -0.0352  0.0646  0.0845
 1246ERGO    R116962  11.257  15.933   6.736 -0.1217  0.0608  0.0944
 1246ERGO    R216963  11.103  15.812   6.932 -0.0832 -0.0506  0.0668
 1246ERGO    R316964  11.346  15.760   7.043 -0.0658  0.0910  0.0930
 1246ERGO    R416965  11.165  15.788   7.272 -0.1371 -0.2198  0.0643
 1246ERGO    R516966  11.352  15.895   7.241 -0.2285 -0.0374  0.1815
 1246ERGO    C116967  11.429  15.725   7.573 -0.1522 -0.1854  0.0874
 1246ERGO    C216968  11.480  15.563   7.873  0.0331 -0.3880 -0.1814
 1247ERGO   ROH16969   6.855  10.390   6.286  0.1397  0.3022 -0.1946
 1247ERGO    R116970   6.912  10.290   6.545  0.0537  0.3231 -0.1687
 1247ERGO    R216971   7.170  10.269   6.643  0.0219  0.2406 -0.1214
 1247ERGO    R316972   7.070  10.416   6.848  0.0462  0.3093 -0.1565
 1247ERGO    R416973   7.309  10.289   6.958 -0.1780 -0.0287 -0.0110
 1247ERGO    R516974   7.108  10.282   7.042 -0.2615  0.1944 -0.1621
 1247ERGO    C116975   7.296  10.439   7.335 -0.2717 -0.1210  0.0203
 1247ERGO    C216976   7.617  10.441   7.626 -0.0386  0.1385  0.1366
 1248ERGO   ROH16977  18.126   9.089   6.038  0.1917  0.0063  0.0004
 1248ERGO    R116978  18.105   9.184   6.304  0.0500  0.0743 -0.0334
 1248ERGO    R216979  18.234   9.063   6.516 -0.2270  0.0003  0.1030
 1248ERGO    R316980  18.332   9.313   6.558 -0.0471 -0.0737  0.1296
 1248ERGO    R416981  18.280   9.208   6.826 -0.3530  0.0288  0.1081
 1248ERGO    R516982  18.206   9.396   6.744 -0.1258  0.0738  0.0098
 1248ERGO    C116983  18.398   9.527   7.046 -0.2573 -0.0239  0.1362
 1248ERGO    C216984  18.357   9.594   7.325 -0.0492  0.2709  0.1660
 1249ERGO   ROH16985  18.146   5.305   6.658 -0.0548 -0.2430  0.0286
 1249ERGO    R116986  18.019   5.300   6.911  0.0953 -0.2142  0.1061
 1249ERGO    R216987  18.160   5.308   7.149  0.2250  0.1091  0.0232
 1249ERGO    R316988  17.996   5.519   7.201  0.0143 -0.0374 -0.0319
 1249ERGO    R416989  18.068   5.414   7.465  0.3107  0.2390  0.0051
 1249ERGO    R516990  17.867   5.449   7.389  0.2169 -0.0494  0.1067
 1249ERGO    C116991  17.861   5.674   7.697  0.1627  0.1771 -0.0574
 1249ERGO    C216992  17.819   5.648   8.023  0.0356  0.0000 -0.0515
 1250ERGO   ROH16993  17.401   9.122   6.436 -0.1541  0.0867  0.0894
 1250ERGO    R116994  17.663   9.022   6.475 -0.1426  0.0957  0.0376
 1250ERGO    R216995  17.805   9.062   6.709 -0.0828  0.1314 -0.0026
 1250ERGO    R316996  17.827   8.792   6.704 -0.0826  0.1312  0.0301
 1250ERGO    R416997  18.009   8.878   6.917 -0.0052  0.1629 -0.0510
 1250ERGO    R516998  18.059   8.751   6.747 -0.0672  0.1384 -0.0493
 1250ERGO    C116999  18.149   8.516   7.034  0.0404  0.1810 -0.0484
 1250ERGO    C217000  18.405   8.452   7.341 -0.2495  0.0099 -0.0551
 1251ERGO   ROH17001  12.870   6.306   7.962  0.0333  0.0010  0.1976
 1251ERGO    R117002  12.990   6.420   8.192  0.0225  0.1688  0.1224
 1251ERGO    R217003  12.871   6.621   8.338 -0.0724  0.1454  0.0796
 1251ERGO    R317004  12.909   6.449   8.545  0.1003  0.2469  0.1340
 1251ERGO    R417005  12.865   6.710   8.672 -0.2053  0.2372  0.0535
 1251ERGO    R517006  13.034   6.576   8.705 -0.0567  0.4349  0.1106
 1251ERGO    C117007  12.898   6.600   9.061 -0.1205  0.3860  0.0895
 1251ERGO    C217008  12.899   6.516   9.344 -0.1872 -0.0993  0.1528
 1252ERGO   ROH17009  15.497  17.040   6.637 -0.3264 -0.0804  0.0310
 1252ERGO    R117010  15.361  16.921   6.855 -0.1961 -0.1743  0.0619
 1252ERGO    R217011  15.456  16.696   6.985  0.0196 -0.0745  0.0792
 1252ERGO    R317012  15.432  16.853   7.205 -0.0944 -0.0678  0.0631
 1252ERGO    R417013  15.267  16.617   7.263  0.1261 -0.2152  0.1133
 1252ERGO    R517014  15.204  16.826   7.273 -0.0638 -0.2689  0.0955
 1252ERGO    C117015  15.134  16.719   7.632  0.0810 -0.2907  0.1179
 1252ERGO    C217016  14.963  16.712   7.912 -0.1979  0.0402  0.1955
 1253ERGO   ROH17017  17.215   3.089   6.875 -0.1348  0.3184  0.1538
 1253ERGO    R117018  17.166   3.170   7.142 -0.0896  0.1451  0.2178
 1253ERGO    R217019  17.169   2.993   7.354 -0.0490  0.0023  0.1103
 1253ERGO    R317020  17.350   3.169   7.456 -0.0311 -0.0600  0.1816
 1253ERGO    R417021  17.254   3.015   7.688 -0.3599  0.1600  0.1817
 1253ERGO    R517022  17.256   3.233   7.667 -0.1908  0.1391  0.0476
 1253ERGO    C117023  17.473   3.192   7.979 -0.5240  0.1933  0.2902
 1253ERGO    C217024  17.553   3.257   8.174  0.3142  0.2061  0.0384
 1254ERGO   ROH17025   8.776  17.165   6.533  0.0999 -0.0570 -0.0959
 1254ERGO    R117026   8.796  17.276   6.793  0.0778 -0.0989 -0.0762
 1254ERGO    R217027   8.605  17.231   6.988  0.0560 -0.1208 -0.1034
 1254ERGO    R317028   8.821  17.149   7.133  0.0364 -0.1529 -0.0927
 1254ERGO    R417029   8.660  17.307   7.321  0.1091 -0.0191 -0.1350
 1254ERGO    R517030   8.871  17.336   7.275  0.1190 -0.1181 -0.1642
 1254ERGO    C117031   8.893  17.274   7.651  0.1215  0.0100 -0.1433
 1254ERGO    C217032   8.773  17.223   7.931 -0.0594  0.0941 -0.0211
 1255ERGO   ROH17033   5.542  14.813   6.366 -0.0287  0.0260 -0.1504
 1255ERGO    R117034   5.544  14.900   6.635 -0.0726  0.0295 -0.1516
 1255ERGO    R217035   5.312  14.954   6.776 -0.1053 -0.1875 -0.1212
 1255ERGO    R317036   5.416  14.777   6.953  0.0865 -0.0894 -0.1324
 1255ERGO    R417037   5.329  15.003   7.117 -0.1139 -0.1708 -0.1227
 1255ERGO    R517038   5.527  14.913   7.116 -0.0251  0.0189 -0.1449
 1255ERGO    C117039   5.436  14.865   7.483  0.0611 -0.0689 -0.1341
 1255ERGO    C217040   5.421  15.011   7.904  0.0436 -0.0647  0.0842
 1256ERGO   ROH17041  11.616   3.254   6.237  0.0185  0.2692 -0.1605
 1256ERGO    R117042  11.596   3.135   6.493  0.0914  0.0232 -0.2666
 1256ERGO    R217043  11.566   3.283   6.725  0.1806 -0.1955 -0.1113
 1256ERGO    R317044  11.349   3.123   6.761  0.1776 -0.2109 -0.1954
 1256ERGO    R417045  11.494   3.110   7.015 -0.0556  0.0032 -0.0485
 1256ERGO    R517046  11.431   2.941   6.893  0.0913 -0.0989  0.0153
 1256ERGO    C117047  11.249   2.860   7.219 -0.1961  0.1046 -0.0908
 1256ERGO    C217048  11.110   2.848   7.645 -0.0376  0.0853  0.2699
 1257ERGO   ROH17049   6.507   3.441   6.165  0.0273  0.0406  0.0919
 1257ERGO    R117050   6.528   3.534   6.432  0.0934  0.0330  0.0901
 1257ERGO    R217051   6.307   3.596   6.585  0.1356  0.1790  0.0955
 1257ERGO    R317052   6.418   3.421   6.760  0.0276  0.1090  0.0942
 1257ERGO    R417053   6.239   3.585   6.924  0.0573  0.1555  0.0787
 1257ERGO    R517054   6.451   3.548   6.960  0.0345  0.0661  0.1198
 1257ERGO    C117055   6.304   3.413   7.285 -0.0896  0.0761  0.0678
 1257ERGO    C217056   6.292   3.364   7.635 -0.0457 -0.2214 -0.2220
 1258ERGO   ROH17057   4.258   4.105   6.734  0.1135  0.0342 -0.0329
 1258ERGO    R117058   4.415   4.194   6.952  0.0991 -0.0506  0.0126
 1258ERGO    R217059   4.410   4.455   7.042  0.1568 -0.0654  0.0598
 1258ERGO    R317060   4.354   4.338   7.281  0.0796 -0.0941  0.0279
 1258ERGO    R417061   4.517   4.572   7.349  0.0224 -0.0791  0.1125
 1258ERGO    R517062   4.554   4.366   7.409  0.0263 -0.0793  0.1085
 1258ERGO    C117063   4.526   4.530   7.752 -0.1283 -0.1140  0.1133
 1258ERGO    C217064   4.453   4.853   7.994  0.0375  0.2392 -0.0931
 1259ERGO   ROH17065  13.214  13.780   6.326  0.1260  0.0828  0.0405
 1259ERGO    R117066  13.118  13.858   6.581  0.0495  0.0714  0.0160
 1259ERGO    R217067  12.871  13.977   6.617  0.0071  0.0054 -0.0432
 1259ERGO    R317068  12.835  13.774   6.794  0.0269  0.0050 -0.0403
 1259ERGO    R417069  12.725  14.010   6.928  0.0042 -0.0041 -0.0442
 1259ERGO    R517070  12.875  13.874   7.008  0.0170  0.0119 -0.0423
 1259ERGO    C117071  12.606  13.839   7.276  0.0212 -0.0102 -0.0419
 1259ERGO    C217072  12.459  13.593   7.510  0.1102  0.3311 -0.1703
 1260ERGO   ROH17073   2.452   9.390   6.652  0.1787 -0.5463 -0.0387
 1260ERGO    R117074   2.528   9.332   6.918  0.1146 -0.2624  0.0464
 1260ERGO    R217075   2.735   9.158   6.981  0.0602 -0.2575  0.2863
 1260ERGO    R317076   2.827   9.370   7.122  0.0903 -0.1120  0.0507
 1260ERGO    R417077   2.956   9.139   7.246  0.1242  0.0318  0.2546
 1260ERGO    R517078   2.840   9.292   7.347  0.1511  0.1264  0.1256
 1260ERGO    C117079   3.171   9.328   7.533  0.1897  0.3367  0.0150
 1260ERGO    C217080   3.416   9.429   7.735 -0.0112 -0.1147  0.0756
 1261ERGO   ROH17081   9.247  10.128   6.132 -0.2840  0.1216  0.0643
 1261ERGO    R117082   9.418  10.151   6.357 -0.1614 -0.0847 -0.0049
 1261ERGO    R217083   9.414  10.370   6.525  0.1483 -0.0940  0.0207
 1261ERGO    R317084   9.377  10.182   6.717  0.0245 -0.0749  0.0159
 1261ERGO    R417085   9.500  10.408   6.858 -0.0076 -0.0866  0.0605
 1261ERGO    R517086   9.570  10.201   6.858 -0.0410 -0.0971  0.1086
 1261ERGO    C117087   9.515  10.252   7.232 -0.2144 -0.0643  0.0793
 1261ERGO    C217088   9.641  10.193   7.505  0.1147  0.1895  0.2002
 1262ERGO   ROH17089  17.562  12.981   6.567  0.0081  0.0979  0.0757
 1262ERGO    R117090  17.656  13.053   6.824 -0.0942  0.1001  0.1144
 1262ERGO    R217091  17.499  13.032   7.051 -0.1318 -0.0625  0.0822
 1262ERGO    R317092  17.709  12.884   7.142 -0.0491  0.0550  0.0812
 1262ERGO    R417093  17.514  12.879   7.361 -0.0792 -0.1450  0.0384
 1262ERGO    R517094  17.723  12.938   7.375 -0.1279 -0.0072  0.0959
 1262ERGO    C117095  17.719  12.652   7.627  0.0287 -0.0825  0.0119
 1262ERGO    C217096  17.781  12.405   7.992  0.3475 -0.0682 -0.1208
 1263ERGO   ROH17097   5.404   2.699   6.148  0.0632 -0.0941  0.0104
 1263ERGO    R117098   5.340   2.533   6.368 -0.0634 -0.0259  0.0258
 1263ERGO    R217099   5.457   2.562   6.616  0.1447 -0.2465 -0.0448
 1263ERGO    R317100   5.199   2.577   6.701  0.2148  0.1522  0.1242
 1263ERGO    R417101   5.358   2.547   6.947  0.3269 -0.3953  0.0050
 1263ERGO    R517102   5.189   2.423   6.885  0.0476 -0.0236 -0.0250
 1263ERGO    C117103   5.058   2.552   7.219  0.4987 -0.1077  0.1925
 1263ERGO    C217104   4.980   2.714   7.499 -0.0159 -0.4777 -0.1866
 1264ERGO   ROH17105   0.994   9.001   6.787 -0.0959 -0.0716 -0.0870
 1264ERGO    R117106   0.839   8.998   7.024 -0.0312  0.0235 -0.0422
 1264ERGO    R217107   0.627   8.824   7.061 -0.0620  0.0769  0.0626
 1264ERGO    R317108   0.763   8.758   7.286 -0.0094  0.1066  0.0389
 1264ERGO    R417109   0.493   8.653   7.330  0.0457 -0.0092  0.0618
 1264ERGO    R517110   0.604   8.785   7.463  0.0045  0.0184  0.0616
 1264ERGO    C117111   0.542   8.491   7.698  0.1577 -0.0317  0.0390
 1264ERGO    C217112   0.503   8.416   7.999 -0.0613 -0.0703 -0.1195
 1265ERGO   ROH17113   0.137   1.521   6.819  0.1040 -0.3719  0.0392
 1265ERGO    R117114   0.034   1.508   7.083  0.1086 -0.0890  0.0575
 1265ERGO    R217115   0.173   1.394   7.292  0.0295 -0.0422  0.1354
 1265ERGO    R317116   0.130   1.634   7.411  0.2285  0.0858 -0.0425
 1265ERGO    R417117   0.260   1.471   7.617 -0.2792 -0.0199  0.2149
 1265ERGO    R517118   0.071   1.579   7.636 -0.1535  0.2760 -0.0856
 1265ERGO    C117119   0.269   1.742   7.919 -0.2722  0.1132  0.0942
 1265ERGO    C217120   0.379   1.864   8.172 -0.0437  0.1894  0.1557
 1266ERGO   ROH17121   6.015  16.968   6.220 -0.1878 -0.1581 -0.2124
 1266ERGO    R117122   5.933  17.023   6.486  0.0513 -0.0127 -0.1660
 1266ERGO    R217123   5.726  16.887   6.609 -0.1205  0.3421 -0.0526
 1266ERGO    R317124   5.913  16.840   6.800 -0.0913  0.0192 -0.1554
 1266ERGO    R417125   5.659  16.846   6.946 -0.0175  0.3472 -0.0311
 1266ERGO    R517126   5.837  16.964   6.990  0.1776  0.0810 -0.0833
 1266ERGO    C117127   5.796  16.778   7.321  0.0698  0.0472 -0.1151
 1266ERGO    C217128   5.868  16.923   7.607 -0.0722  0.3571 -0.3198
 1267ERGO   ROH17129  16.289  11.067   9.877 -0.1996  0.0325 -0.0095
 1267ERGO    R117130  16.169  10.984   9.634 -0.2092 -0.0677  0.0288
 1267ERGO    R217131  16.034  11.158   9.468 -0.1074 -0.1090 -0.1004
 1267ERGO    R317132  16.206  11.063   9.281 -0.1282 -0.3115 -0.0191
 1267ERGO    R417133  16.007  11.215   9.128  0.2362  0.1106 -0.0956
 1267ERGO    R517134  16.067  11.008   9.094 -0.0914  0.0196 -0.1509
 1267ERGO    C117135  16.153  11.159   8.754  0.4168  0.0483 -0.0164
 1267ERGO    C217136  16.038  11.194   8.463 -0.1462 -0.2108  0.0967
 1268ERGO   ROH17137   7.526   7.307   6.071 -0.1803 -0.0228  0.1866
 1268ERGO    R117138   7.552   7.111   6.272  0.1056  0.0125  0.1875
 1268ERGO    R217139   7.784   7.078   6.418  0.1172  0.4382  0.2784
 1268ERGO    R317140   7.617   7.107   6.631 -0.0274  0.1201  0.2136
 1268ERGO    R417141   7.813   6.907   6.717  0.1825  0.3180  0.2043
 1268ERGO    R517142   7.596   6.886   6.720  0.2034  0.0439  0.0884
 1268ERGO    C117143   7.672   6.834   7.091  0.0847 -0.0508  0.1003
 1268ERGO    C217144   7.744   6.572   7.342  0.0924  0.0547  0.1779
 1269ERGO   ROH17145  16.596  10.917   6.297  0.1855  0.2067  0.0406
 1269ERGO    R117146  16.668  11.037   6.543 -0.0438  0.1629  0.1323
 1269ERGO    R217147  16.504  11.031   6.765 -0.0167 -0.3767  0.1527
 1269ERGO    R317148  16.724  10.926   6.885  0.2336 -0.0098  0.0342
 1269ERGO    R417149  16.644  11.147   7.059 -0.2051 -0.2960  0.2116
 1269ERGO    R517150  16.841  11.115   6.972 -0.1443  0.1793  0.1502
 1269ERGO    C117151  16.931  11.115   7.343 -0.0798  0.0956  0.1347
 1269ERGO    C217152  17.084  10.996   7.544  0.0241  0.2431  0.0888
 1270ERGO   ROH17153   7.144  16.213   6.077  0.0622 -0.0373 -0.0090
 1270ERGO    R117154   7.049  16.243   6.343 -0.0078  0.2563 -0.0631
 1270ERGO    R217155   7.169  16.117   6.558 -0.3811  0.0588  0.0391
 1270ERGO    R317156   7.181  16.370   6.657  0.1227  0.0770 -0.0445
 1270ERGO    R417157   7.202  16.197   6.893 -0.4774  0.1046  0.0381
 1270ERGO    R517158   7.060  16.359   6.863 -0.0823  0.4326 -0.1404
 1270ERGO    C117159   7.233  16.480   7.181 -0.0606  0.1486 -0.0410
 1270ERGO    C217160   7.291  16.569   7.447 -0.2245 -0.0146  0.2123
 1271ERGO   ROH17161  17.613  14.197   6.307  0.1314 -0.1251  0.2625
 1271ERGO    R117162  17.511  14.404   6.471  0.1806 -0.2148  0.4076
 1271ERGO    R217163  17.251  14.495   6.451  0.2883  0.0682  0.2550
 1271ERGO    R317164  17.245  14.440   6.717 -0.0271 -0.2437  0.1920
 1271ERGO    R417165  17.064  14.668   6.685  0.2636  0.0082  0.2805
 1271ERGO    R517166  17.233  14.655   6.822  0.1230 -0.3474  0.4328
 1271ERGO    C117167  16.951  14.717   7.071 -0.0471 -0.3195  0.2363
 1271ERGO    C217168  16.703  14.970   7.100 -0.3034 -0.0630 -0.2461
 1272ERGO   ROH17169   9.307  16.506   6.326  0.1251 -0.0997  0.0315
 1272ERGO    R117170   9.263  16.274   6.481  0.1944 -0.0347  0.1503
 1272ERGO    R217171   9.397  16.225   6.717  0.1942  0.1361  0.1881
 1272ERGO    R317172   9.145  16.198   6.817  0.1947  0.1019  0.1810
 1272ERGO    R417173   9.317  16.056   7.008  0.2215  0.2707  0.2752
 1272ERGO    R517174   9.141  15.976   6.907  0.2613  0.1524  0.3052
 1272ERGO    C117175   9.034  15.932   7.271  0.2378  0.3172  0.3193
 1272ERGO    C217176   8.951  15.769   7.598 -0.0173 -0.0794  0.0811
 1273ERGO   ROH17177  13.837   2.841   6.555 -0.1242  0.1349  0.0356
 1273ERGO    R117178  13.798   2.790   6.831  0.1165 -0.0345  0.0415
 1273ERGO    R217179  14.007   2.740   7.004  0.3094  0.2906 -0.0870
 1273ERGO    R317180  13.896   2.944   7.145  0.0021  0.0446  0.0387
 1273ERGO    R417181  14.060   2.800   7.340  0.2887  0.2174 -0.0707
 1273ERGO    R517182  13.849   2.850   7.360  0.2067 -0.1391  0.0055
 1273ERGO    C117183  13.986   3.027   7.668 -0.0118 -0.0563  0.0568
 1273ERGO    C217184  14.009   3.309   7.911  0.2804  0.1136  0.2485
 1274ERGO   ROH17185   9.085   5.465   5.898 -0.1243  0.2405  0.1035
 1274ERGO    R117186   9.044   5.453   6.178 -0.2403 -0.0646  0.0774
 1274ERGO    R217187   8.945   5.228   6.305  0.1613 -0.3809 -0.1484
 1274ERGO    R317188   9.170   5.254   6.456  0.0428 -0.0281 -0.0212
 1274ERGO    R417189   9.024   5.031   6.577  0.2519 -0.1688 -0.0180
 1274ERGO    R517190   9.097   5.209   6.679 -0.0366 -0.0273 -0.0458
 1274ERGO    C117191   9.280   4.940   6.878  0.1934  0.2859  0.1773
 1274ERGO    C217192   9.451   4.797   7.167  0.1208  0.2392 -0.0906
 1275ERGO   ROH17193   5.054   9.984   6.011  0.2101  0.0284 -0.3442
 1275ERGO    R117194   5.294   9.883   6.121  0.1547 -0.0364 -0.2817
 1275ERGO    R217195   5.340   9.872   6.393  0.1678  0.1564 -0.2754
 1275ERGO    R317196   5.390   9.610   6.342 -0.0030  0.0793 -0.0656
 1275ERGO    R417197   5.533   9.665   6.591  0.1341  0.2216 -0.1735
 1275ERGO    R517198   5.617   9.578   6.410  0.0091  0.0120 -0.1345
 1275ERGO    C117199   5.693   9.299   6.659 -0.0458  0.1874  0.0828
 1275ERGO    C217200   5.887   8.990   6.908 -0.0704  0.0257 -0.1058
 1276ERGO   ROH17201  11.744   1.635   6.607  0.0411 -0.0057  0.0233
 1276ERGO    R117202  11.671   1.778   6.840 -0.0319  0.0050 -0.0051
 1276ERGO    R217203  11.797   1.742   7.083 -0.2219 -0.1120  0.0826
 1276ERGO    R317204  11.832   2.011   7.068 -0.0419 -0.1317  0.1411
 1276ERGO    R417205  11.894   1.944   7.346 -0.2048 -0.2113  0.1524
 1276ERGO    R517206  11.751   2.093   7.278 -0.0770 -0.1105  0.1158
 1276ERGO    C117207  11.982   2.314   7.486 -0.0259 -0.2875  0.2478
 1276ERGO    C217208  12.110   2.605   7.697 -0.4035 -0.1732  0.0813
 1277ERGO   ROH17209  15.668   9.115   6.420  0.1943 -0.1241 -0.0438
 1277ERGO    R117210  15.850   9.142   6.636  0.1687 -0.0401 -0.0320
 1277ERGO    R217211  15.768   9.196   6.893  0.1378  0.0566 -0.0619
 1277ERGO    R317212  15.912   8.973   6.952  0.1340  0.0805  0.0400
 1277ERGO    R417213  15.834   9.082   7.213 -0.0594  0.0760 -0.0136
 1277ERGO    R517214  16.036   9.032   7.148 -0.0068  0.1057  0.1231
 1277ERGO    C117215  16.006   8.806   7.454 -0.1779  0.1097  0.1103
 1277ERGO    C217216  15.957   8.677   7.752  0.3052  0.1377 -0.2188
 1278ERGO   ROH17217   5.149  16.230   6.438 -0.0469 -0.1370 -0.1536
 1278ERGO    R117218   5.314  16.358   6.629 -0.0930 -0.0774 -0.1532
 1278ERGO    R217219   5.212  16.517   6.831 -0.1485 -0.0869 -0.1725
 1278ERGO    R317220   5.356  16.350   6.990 -0.1151 -0.0368 -0.1500
 1278ERGO    R417221   5.254  16.556   7.172 -0.1750 -0.0488 -0.1736
 1278ERGO    R517222   5.461  16.495   7.149 -0.1596  0.0019 -0.1569
 1278ERGO    C117223   5.412  16.422   7.520 -0.1590  0.0204 -0.1531
 1278ERGO    C217224   5.617  16.538   7.835  0.4410 -0.2093  0.0802
 1279ERGO   ROH17225  17.197   1.527   6.955  0.1409  0.0316  0.1630
 1279ERGO    R117226  17.431   1.416   7.070  0.0513 -0.1422  0.1798
 1279ERGO    R217227  17.535   1.506   7.310  0.1251 -0.1880  0.1620
 1279ERGO    R317228  17.517   1.243   7.379 -0.0876 -0.1641  0.2080
 1279ERGO    R417229  17.588   1.380   7.628  0.2083 -0.1903  0.1480
 1279ERGO    R517230  17.692   1.211   7.538 -0.0108 -0.3093  0.1009
 1279ERGO    C117231  17.602   1.061   7.877  0.0571 -0.1692  0.1830
 1279ERGO    C217232  17.546   1.035   8.156 -0.3559  0.0574  0.0505
 1280ERGO   ROH17233   9.889  12.329   6.577 -0.1089  0.1228  0.1456
 1280ERGO    R117234   9.907  12.349   6.858 -0.0101  0.0328  0.1462
 1280ERGO    R217235   9.899  12.128   7.024  0.0484 -0.0202  0.0786
 1280ERGO    R317236  10.133  12.231   7.118  0.0812 -0.0501  0.0296
 1280ERGO    R417237  10.003  12.116   7.354  0.1218 -0.0434  0.0550
 1280ERGO    R517238  10.077  12.320   7.333  0.1400 -0.0514  0.0454
 1280ERGO    C117239  10.282  12.206   7.633  0.1953 -0.0849 -0.0047
 1280ERGO    C217240  10.383  12.338   7.873  0.0337  0.0052  0.0035
 1281ERGO   ROH17241  16.080  15.736   6.412 -0.2626  0.3829 -0.1673
 1281ERGO    R117242  16.113  15.748   6.693 -0.0774  0.2608 -0.1827
 1281ERGO    R217243  15.901  15.783   6.867  0.0424  0.2325 -0.0312
 1281ERGO    R317244  16.000  15.557   6.981  0.0723  0.1652 -0.1857
 1281ERGO    R417245  15.835  15.680   7.190  0.1935  0.0923 -0.0427
 1281ERGO    R517246  16.044  15.620   7.208  0.1967  0.0554 -0.1770
 1281ERGO    C117247  15.889  15.408   7.486  0.3094 -0.0525 -0.1946
 1281ERGO    C217248  15.802  15.143   7.698  0.0971  0.2018  0.2271
 1282ERGO   ROH17249  12.789   9.065   6.210  0.1027 -0.0401  0.0432
 1282ERGO    R117250  12.603   9.102   6.419  0.0791  0.0388  0.0085
 1282ERGO    R217251  12.553   8.909   6.611 -0.1031  0.0237 -0.0507
 1282ERGO    R317252  12.612   9.111   6.783  0.0008 -0.0600  0.0128
 1282ERGO    R417253  12.522   8.891   6.955 -0.0270 -0.0943 -0.0496
 1282ERGO    R517254  12.445   9.095   6.954  0.0372 -0.0705  0.0460
 1282ERGO    C117255  12.560   9.071   7.316  0.1148 -0.2417  0.0107
 1282ERGO    C217256  12.383   9.253   7.663  0.0902  0.4080 -0.0187
 1283ERGO   ROH17257   6.287   4.665   6.246  0.0033 -0.1881 -0.1409
 1283ERGO    R117258   6.165   4.560   6.479 -0.0092 -0.1101 -0.1135
 1283ERGO    R217259   6.298   4.536   6.720 -0.0100 -0.0744 -0.1161
 1283ERGO    R317260   6.088   4.680   6.814  0.0164 -0.0185 -0.1381
 1283ERGO    R417261   6.265   4.647   7.045 -0.0391 -0.1347 -0.0974
 1283ERGO    R517262   6.053   4.597   7.036 -0.0622 -0.0597 -0.1599
 1283ERGO    C117263   6.048   4.847   7.323 -0.0314 -0.1173 -0.1072
 1283ERGO    C217264   6.139   4.887   7.605 -0.3903  0.3747  0.2459
 1284ERGO   ROH17265   3.671  12.983  10.157 -0.1821 -0.2269  0.0370
 1284ERGO    R117266   3.763  12.984   9.889 -0.1041  0.0063  0.0623
 1284ERGO    R217267   3.749  12.762   9.725  0.1593  0.0737 -0.0647
 1284ERGO    R317268   3.619  12.933   9.559  0.0381  0.0405 -0.0046
 1284ERGO    R417269   3.725  12.724   9.383  0.1250  0.1496 -0.0703
 1284ERGO    R517270   3.755  12.939   9.362  0.0002  0.1675 -0.0234
 1284ERGO    C117271   3.589  12.864   9.027 -0.0087  0.1625 -0.0172
 1284ERGO    C217272   3.729  12.817   8.646 -0.3421 -0.2011 -0.2089
 1285ERGO   ROH17273   9.972   0.106   6.290 -0.3883  0.1380 -0.2432
 1285ERGO    R117274   9.938   0.281   6.510 -0.1356  0.0302 -0.1142
 1285ERGO    R217275   9.690   0.378   6.586 -0.0326  0.0885  0.1444
 1285ERGO    R317276   9.761   0.275   6.828  0.1256 -0.0719  0.0338
 1285ERGO    R417277   9.514   0.427   6.879  0.1555 -0.0906  0.2904
 1285ERGO    R517278   9.705   0.448   6.984  0.2303 -0.1644  0.1820
 1285ERGO    C117279   9.478   0.359   7.277  0.4134 -0.3455  0.2717
 1285ERGO    C217280   9.240   0.220   7.423  0.2406  0.0895  0.0595
 1286ERGO   ROH17281   4.710   5.636   5.771 -0.0579  0.0517  0.0931
 1286ERGO    R117282   4.834   5.758   5.994  0.0436 -0.0635  0.1007
 1286ERGO    R217283   4.694   5.914   6.175  0.1835  0.0955  0.0722
 1286ERGO    R317284   4.801   5.742   6.356 -0.0192 -0.0062  0.0982
 1286ERGO    R417285   4.740   5.983   6.510  0.2148  0.0753  0.0723
 1286ERGO    R517286   4.932   5.881   6.500  0.1116 -0.1301  0.1031
 1286ERGO    C117287   4.866   5.862   6.876  0.0428 -0.0319  0.0967
 1286ERGO    C217288   4.806   5.991   7.101  0.1343 -0.0926 -0.1375
 1287ERGO   ROH17289  16.047   3.483   7.281  0.1182  0.1123  0.1228
 1287ERGO    R117290  16.084   3.429   7.556  0.0751  0.1024  0.1263
 1287ERGO    R217291  16.328   3.351   7.661  0.0305 -0.0097  0.1425
 1287ERGO    R317292  16.288   3.562   7.827  0.1216  0.0133  0.1366
 1287ERGO    R417293  16.432   3.366   7.990  0.0633 -0.0381  0.1338
 1287ERGO    R517294  16.243   3.462   8.040  0.1006  0.0356  0.1448
 1287ERGO    C117295  16.455   3.573   8.338  0.1680 -0.0329  0.1232
 1287ERGO    C217296  16.498   3.691   8.636 -0.1076  0.0425 -0.0569
 1288ERGO   ROH17297   4.297   6.012   7.910  0.0671  0.2211 -0.1250
 1288ERGO    R117298   4.392   5.792   7.760  0.1614  0.1891 -0.0195
 1288ERGO    R217299   4.267   5.702   7.530  0.1645 -0.0119  0.0533
 1288ERGO    R317300   4.515   5.735   7.422  0.1258  0.0686 -0.0122
 1288ERGO    R417301   4.382   5.543   7.246  0.2444 -0.2051  0.1921
 1288ERGO    R517302   4.575   5.517   7.344  0.2781  0.0345  0.1922
 1288ERGO    C117303   4.681   5.480   6.979  0.2546 -0.2421  0.2114
 1288ERGO    C217304   4.726   5.356   6.644 -0.1563  0.1961  0.2532
 1289ERGO   ROH17305   4.275   7.592   6.222  0.1308 -0.1482  0.0236
 1289ERGO    R117306   4.415   7.648   6.461  0.1702 -0.0909 -0.0123
 1289ERGO    R217307   4.306   7.798   6.666  0.2246  0.0076 -0.0519
 1289ERGO    R317308   4.371   7.580   6.816  0.1951  0.0466  0.0171
 1289ERGO    R417309   4.412   7.809   6.995  0.3412  0.1036 -0.0922
 1289ERGO    R517310   4.557   7.653   6.949  0.2663  0.0317 -0.0763
 1289ERGO    C117311   4.535   7.611   7.327  0.3813  0.1961 -0.0507
 1289ERGO    C217312   4.613   7.373   7.631  0.0009  0.1982  0.0869
 1290ERGO   ROH17313  13.347   4.727   6.318  0.0747  0.0440 -0.0198
 1290ERGO    R117314  13.323   4.674   6.595  0.0202 -0.0594 -0.0424
 1290ERGO    R217315  13.406   4.854   6.788  0.1070 -0.1838  0.0450
 1290ERGO    R317316  13.151   4.824   6.879  0.0799 -0.0775  0.0020
 1290ERGO    R417317  13.310   4.867   7.120  0.0393 -0.0772  0.0208
 1290ERGO    R517318  13.174   4.701   7.083 -0.0064 -0.0366  0.0327
 1290ERGO    C117319  13.016   4.846   7.398 -0.0256  0.0846 -0.0337
 1290ERGO    C217320  12.733   4.863   7.677 -0.2966  0.0898 -0.0877
 1291ERGO   ROH17321  13.007   3.341   6.520 -0.0383  0.0825 -0.1749
 1291ERGO    R117322  12.762   3.311   6.659  0.1570 -0.2630  0.1144
 1291ERGO    R217323  12.749   3.273   6.932  0.5272  0.2775  0.2246
 1291ERGO    R317324  12.584   3.488   6.922 -0.0447 -0.1466 -0.0964
 1291ERGO    R417325  12.565   3.393   7.199  0.6339  0.4926  0.2032
 1291ERGO    R517326  12.399   3.428   7.062  0.3132 -0.2783  0.3427
 1291ERGO    C117327  12.304   3.666   7.345  0.1590  0.2198 -0.1108
 1291ERGO    C217328  12.055   3.817   7.337  0.0342 -0.0422  0.3037
 1292ERGO   ROH17329   2.027   3.310   6.808 -0.0071 -0.1280 -0.0364
 1292ERGO    R117330   2.197   3.425   7.003  0.0319 -0.1199 -0.0762
 1292ERGO    R217331   2.104   3.598   7.198  0.0851 -0.0514 -0.1158
 1292ERGO    R317332   2.223   3.421   7.366  0.0555 -0.0355 -0.0759
 1292ERGO    R417333   2.121   3.631   7.542  0.1460  0.0578 -0.1281
 1292ERGO    R517334   2.326   3.557   7.534  0.1243 -0.0096 -0.1354
 1292ERGO    C117335   2.243   3.484   7.899  0.1537  0.1363 -0.0978
 1292ERGO    C217336   2.319   3.463   8.272  0.2536 -0.4392 -0.0765
 1293ERGO   ROH17337   2.480  12.086   6.272 -0.0158  0.1723  0.0288
 1293ERGO    R117338   2.525  12.010   6.541  0.0063  0.0119 -0.0184
 1293ERGO    R217339   2.754  11.879   6.622  0.1060  0.1382 -0.0806
 1293ERGO    R317340   2.770  12.084   6.799 -0.0916  0.0271  0.0695
 1293ERGO    R417341   2.896  11.858   6.937  0.2369  0.0790 -0.1432
 1293ERGO    R517342   2.734  11.982   7.013  0.1068 -0.1792  0.0065
 1293ERGO    C117343   2.993  12.039   7.286  0.1276 -0.0599 -0.0387
 1293ERGO    C217344   3.211  12.241   7.536 -0.4403  0.1527  0.2622
 1294ERGO   ROH17345  14.131   7.951   6.268  0.0920  0.0761  0.2889
 1294ERGO    R117346  14.025   8.045   6.513  0.0652 -0.0199  0.3142
 1294ERGO    R217347  13.756   8.029   6.574  0.0367  0.1021  0.2091
 1294ERGO    R317348  13.847   7.902   6.796 -0.1203 -0.0979  0.1628
 1294ERGO    R417349  13.594   8.026   6.879  0.0574  0.2634  0.2228
 1294ERGO    R517350  13.788   8.049   6.977  0.1137 -0.0494  0.2090
 1294ERGO    C117351  13.586   7.904   7.266 -0.0778  0.1696  0.1873
 1294ERGO    C217352  13.256   7.742   7.376 -0.4613 -0.1429  0.0484
 1295ERGO   ROH17353   4.820   6.050   7.706  0.1503 -0.2961 -0.0437
 1295ERGO    R117354   4.846   6.281   7.866  0.0646 -0.2480 -0.0988
 1295ERGO    R217355   5.085   6.417   7.894  0.0801 -0.3092  0.0809
 1295ERGO    R317356   4.936   6.630   7.814  0.2160 -0.2918 -0.1365
 1295ERGO    R417357   5.146   6.746   7.983 -0.0859 -0.3308  0.2806
 1295ERGO    R517358   4.931   6.774   8.005 -0.1340 -0.3421 -0.1012
 1295ERGO    C117359   5.041   7.137   7.961 -0.0550 -0.3271  0.1928
 1295ERGO    C217360   5.002   7.486   8.006 -0.0088 -0.0958 -0.0154
 1296ERGO   ROH17361  16.629   7.686   9.555 -0.0047  0.1108  0.0396
 1296ERGO    R117362  16.590   7.788   9.294 -0.1425  0.0333  0.0314
 1296ERGO    R217363  16.542   7.625   9.076 -0.2119 -0.0293  0.1054
 1296ERGO    R317364  16.324   7.784   9.046 -0.2552 -0.0759  0.1484
 1296ERGO    R417365  16.396   7.705   8.773 -0.0597  0.2243  0.0933
 1296ERGO    R517366  16.368   7.908   8.845 -0.1755  0.1497  0.2934
 1296ERGO    C117367  16.106   7.900   8.568 -0.0117  0.3282  0.1265
 1296ERGO    C217368  15.975   7.890   8.203 -0.3249 -0.2497 -0.1214
 1297ERGO   ROH17369  11.646   9.587   6.023  0.0723  0.1947 -0.0738
 1297ERGO    R117370  11.528   9.527   6.274  0.0463  0.3451 -0.0482
 1297ERGO    R217371  11.599   9.306   6.423 -0.1767  0.2694 -0.0428
 1297ERGO    R317372  11.641   9.490   6.618  0.0682  0.2408 -0.0675
 1297ERGO    R417373  11.546   9.252   6.760 -0.2988  0.4046 -0.0404
 1297ERGO    R517374  11.464   9.454   6.774 -0.0059  0.5280 -0.0836
 1297ERGO    C117375  11.555   9.395   7.139 -0.1398  0.4563 -0.0622
 1297ERGO    C217376  11.653   9.290   7.507 -0.2500  0.4305  0.0428
 1298ERGO   ROH17377  18.257   6.301   6.137 -0.1505 -0.2030  0.1352
 1298ERGO    R117378  18.361   6.417   6.374 -0.0470 -0.1248  0.0515
 1298ERGO    R217379  18.199   6.522   6.572  0.0388 -0.0979  0.1049
 1298ERGO    R317380  18.340   6.353   6.731  0.1464 -0.0329  0.0814
 1298ERGO    R417381  18.198   6.531   6.917  0.1890 -0.0195  0.1047
 1298ERGO    R517382  18.413   6.490   6.914  0.1984  0.0254  0.0189
 1298ERGO    C117383  18.330   6.377   7.268  0.3775  0.0871  0.0825
 1298ERGO    C217384  18.467   6.329   7.555 -0.3675 -0.2254  0.0559
 1299ERGO   ROH17385  14.189   3.740   6.280  0.1250  0.0739 -0.1476
 1299ERGO    R117386  14.150   3.740   6.560  0.1287 -0.1338 -0.1464
 1299ERGO    R217387  14.330   3.628   6.736  0.2947  0.0339 -0.2171
 1299ERGO    R317388  14.322   3.873   6.852 -0.0592 -0.0373 -0.0747
 1299ERGO    R417389  14.399   3.689   7.069  0.2371 -0.0709 -0.1849
 1299ERGO    R517390  14.233   3.831   7.071  0.0160 -0.3086 -0.0856
 1299ERGO    C117391  14.433   3.955   7.372 -0.1287 -0.1987 -0.0325
 1299ERGO    C217392  14.678   3.839   7.606 -0.0735  0.0594 -0.0543
 1300ERGO   ROH17393   7.652   3.108   6.241  0.2061 -0.0110 -0.0668
 1300ERGO    R117394   7.668   3.263   6.477  0.1425 -0.0341 -0.0458
 1300ERGO    R217395   7.456   3.291   6.652  0.0503  0.0520 -0.1618
 1300ERGO    R317396   7.638   3.205   6.835 -0.0911 -0.0484 -0.0681
 1300ERGO    R417397   7.475   3.401   6.979  0.0345  0.1372 -0.1900
 1300ERGO    R517398   7.692   3.400   6.962  0.0370 -0.0593 -0.1115
 1300ERGO    C117399   7.656   3.384   7.341 -0.1076  0.0926 -0.1187
 1300ERGO    C217400   7.661   3.322   7.694  0.0934 -0.5125 -0.1170
 1301ERGO   ROH17401   5.493  18.203   6.366 -0.0601 -0.3277 -0.1829
 1301ERGO    R117402   5.398  18.088   6.607  0.0679 -0.5139 -0.2176
 1301ERGO    R217403   5.508  17.860   6.717  0.5470 -0.2519 -0.1196
 1301ERGO    R317404   5.533  18.018   6.937  0.0599 -0.1442 -0.1315
 1301ERGO    R417405   5.557  17.745   7.040  0.6421 -0.0785 -0.0715
 1301ERGO    R517406   5.419  17.898   7.110  0.2405 -0.3790 -0.1736
 1301ERGO    C117407   5.609  17.826   7.433  0.2402  0.1236 -0.0546
 1301ERGO    C217408   5.729  17.978   7.802 -0.0103 -0.0187  0.0507
 1302ERGO   ROH17409   5.782   1.444   6.709  0.1231  0.0051  0.1069
 1302ERGO    R117410   5.822   1.460   6.989  0.0264  0.2059  0.1107
 1302ERGO    R217411   5.723   1.667   7.142 -0.4156  0.0870 -0.0051
 1302ERGO    R317412   5.612   1.465   7.286 -0.0626 -0.0702  0.0567
 1302ERGO    R417413   5.612   1.696   7.468 -0.3934 -0.0263  0.0134
 1302ERGO    R517414   5.696   1.499   7.508 -0.0641  0.1088  0.0339
 1302ERGO    C117415   5.443   1.524   7.793 -0.0492 -0.2398  0.0820
 1302ERGO    C217416   5.154   1.492   7.937 -0.2741 -0.2582 -0.1356
 1303ERGO   ROH17417   3.146   3.296   6.604  0.2431  0.2603 -0.1160
 1303ERGO    R117418   3.081   3.173   6.851  0.1922  0.0775 -0.2177
 1303ERGO    R217419   3.272   3.111   7.040  0.1282  0.1607 -0.1203
 1303ERGO    R317420   3.111   3.257   7.204 -0.1176 -0.0659 -0.1550
 1303ERGO    R417421   3.310   3.137   7.383  0.0901  0.3167 -0.1274
 1303ERGO    R517422   3.093   3.124   7.403  0.1088 -0.0447 -0.1210
 1303ERGO    C117423   3.181   3.288   7.736 -0.1627  0.1948 -0.1640
 1303ERGO    C217424   3.429   3.320   7.925 -0.1346  0.3983 -0.1717
 1304ERGO   ROH17425  11.414  12.080   6.070 -0.1665  0.2181 -0.0618
 1304ERGO    R117426  11.336  12.159   6.330 -0.0529  0.1115  0.0054
 1304ERGO    R217427  11.479  12.088   6.556  0.0844  0.0755 -0.0911
 1304ERGO    R317428  11.479  12.356   6.601  0.0344  0.0614 -0.0040
 1304ERGO    R417429  11.633  12.243   6.824  0.1080  0.0242 -0.0746
 1304ERGO    R517430  11.461  12.376   6.839  0.0819 -0.0190  0.0065
 1304ERGO    C117431  11.722  12.585   7.022  0.0749 -0.0190  0.0168
 1304ERGO    C217432  11.953  12.797   7.159  0.1619  0.1282  0.2534
 1305ERGO   ROH17433  15.595   2.557  10.302  0.1632  0.1149 -0.0043
 1305ERGO    R117434  15.724   2.635  10.062  0.2134 -0.1649 -0.0717
 1305ERGO    R217435  15.768   2.459   9.853 -0.1005 -0.3156 -0.0209
 1305ERGO    R317436  15.638   2.649   9.708  0.1332 -0.1773 -0.0521
 1305ERGO    R417437  15.769   2.478   9.508 -0.1760 -0.4398 -0.0283
 1305ERGO    R517438  15.787   2.695   9.525  0.1460 -0.4583 -0.1131
 1305ERGO    C117439  15.648   2.668   9.171 -0.0005 -0.3823 -0.0619
 1305ERGO    C217440  15.707   2.520   8.920 -0.0799  0.0125  0.1049
 1306ERGO   ROH17441  13.888  11.347   6.474  0.0659  0.2183  0.1162
 1306ERGO    R117442  13.823  11.486   6.712  0.0502  0.0859  0.1922
 1306ERGO    R217443  13.568  11.584   6.762  0.0804  0.2055  0.1568
 1306ERGO    R317444  13.594  11.439   6.991 -0.0978  0.0152  0.0578
 1306ERGO    R417445  13.437  11.672   7.070  0.1198  0.1013  0.2025
 1306ERGO    R517446  13.620  11.602   7.163  0.0319 -0.1419  0.1821
 1306ERGO    C117447  13.385  11.587   7.463 -0.0246 -0.1380  0.1362
 1306ERGO    C217448  13.439  11.554   7.728 -0.1529 -0.2349 -0.2017
 1307ERGO   ROH17449   1.526  10.988   6.810 -0.1449 -0.0817 -0.0781
 1307ERGO    R117450   1.538  11.243   6.933 -0.3078 -0.0531 -0.1189
 1307ERGO    R217451   1.335  11.341   7.093 -0.2769 -0.2491  0.0431
 1307ERGO    R317452   1.537  11.373   7.273 -0.1538 -0.0168 -0.1314
 1307ERGO    R417453   1.347  11.589   7.334 -0.2732 -0.1346 -0.0742
 1307ERGO    R517454   1.560  11.611   7.293 -0.3193  0.0128 -0.2553
 1307ERGO    C117455   1.543  11.764   7.642 -0.1555  0.1501 -0.3062
 1307ERGO    C217456   1.609  12.017   7.889  0.0475 -0.0824 -0.0986
 1308ERGO   ROH17457   5.153  10.753   9.800  0.0115  0.0050  0.1388
 1308ERGO    R117458   4.977  10.675   9.592  0.0217 -0.0104  0.1359
 1308ERGO    R217459   4.846  10.858   9.433 -0.0839 -0.0199  0.2100
 1308ERGO    R317460   4.961  10.717   9.231 -0.0418  0.0978  0.1511
 1308ERGO    R417461   4.688  10.773   9.137 -0.0479  0.0784  0.1622
 1308ERGO    R517462   4.784  10.577   9.148 -0.0051  0.0953  0.0777
 1308ERGO    C117463   4.704  10.591   8.775  0.0125  0.2460  0.0790
 1308ERGO    C217464   4.670  10.505   8.401  0.2019 -0.3476  0.2504
 1309ERGO   ROH17465   2.517  15.108   6.343  0.0257  0.2496 -0.0340
 1309ERGO    R117466   2.596  15.150   6.612 -0.1143  0.3556 -0.0096
 1309ERGO    R217467   2.418  15.131   6.824 -0.1373  0.0098 -0.0604
 1309ERGO    R317468   2.601  14.954   6.919  0.1607  0.3207 -0.0322
 1309ERGO    R417469   2.438  15.023   7.151 -0.3688 -0.3552 -0.1606
 1309ERGO    R517470   2.654  15.035   7.138 -0.3533  0.1889  0.1608
 1309ERGO    C117471   2.621  14.794   7.431 -0.2238 -0.2760 -0.1925
 1309ERGO    C217472   2.455  14.528   7.621  0.0154  0.1077 -0.1193
 1310ERGO   ROH17473  14.282  15.376   6.239  0.4838  0.0092  0.0733
 1310ERGO    R117474  14.260  15.396   6.521  0.2614  0.0423  0.0560
 1310ERGO    R217475  14.479  15.378   6.689  0.1223 -0.0112  0.2383
 1310ERGO    R317476  14.386  15.617   6.781  0.1219  0.0266  0.1377
 1310ERGO    R417477  14.493  15.483   7.018  0.0420  0.0906  0.2089
 1310ERGO    R517478  14.293  15.566   6.995  0.0578  0.1043  0.1276
 1310ERGO    C117479  14.414  15.768   7.296 -0.0051  0.1856  0.0974
 1310ERGO    C217480  14.360  15.881   7.533 -0.0945 -0.0918 -0.2217
 1311ERGO   ROH17481  11.845   7.597   6.684  0.0989  0.0496 -0.0414
 1311ERGO    R117482  11.884   7.500   6.947  0.2410  0.2628  0.0205
 1311ERGO    R217483  11.852   7.659   7.170 -0.1906  0.3139 -0.0610
 1311ERGO    R317484  11.681   7.462   7.247  0.2229 -0.0449 -0.0299
 1311ERGO    R417485  11.777   7.581   7.498 -0.2140  0.3628 -0.0555
 1311ERGO    R517486  11.783   7.369   7.444  0.3218  0.3313  0.0982
 1311ERGO    C117487  11.573   7.350   7.762  0.1606  0.0544 -0.0230
 1311ERGO    C217488  11.617   7.399   8.038 -0.0542 -0.0580 -0.0215
 1312ERGO   ROH17489   2.112   0.363   6.587  0.1359 -0.1778 -0.1764
 1312ERGO    R117490   2.121   0.244   6.844  0.0795 -0.1692 -0.1697
 1312ERGO    R217491   2.344   0.111   6.938  0.0909 -0.0910 -0.0809
 1312ERGO    R317492   2.319   0.283   7.147 -0.0486 -0.0940 -0.0950
 1312ERGO    R417493   2.459   0.050   7.258  0.1948  0.0504 -0.0909
 1312ERGO    R517494   2.276   0.141   7.335  0.1149 -0.1191 -0.0756
 1312ERGO    C117495   2.502   0.176   7.641  0.1244  0.1299 -0.1100
 1312ERGO    C217496   2.479   0.263   8.022 -0.3952 -0.1044  0.0616
 1313ERGO   ROH17497   0.607  11.222   6.787  0.1483  0.2001  0.1073
 1313ERGO    R117498   0.579  11.202   7.068  0.1023  0.0739  0.0936
 1313ERGO    R217499   0.366  11.073   7.188  0.0787  0.0325 -0.0010
 1313ERGO    R317500   0.562  10.934   7.314  0.0482 -0.0361 -0.0275
 1313ERGO    R417501   0.325  10.893   7.480  0.0546  0.0721  0.0208
 1313ERGO    R517502   0.519  10.966   7.547  0.1001  0.0022 -0.0196
 1313ERGO    C117503   0.485  10.657   7.768  0.0119  0.0309  0.0087
 1313ERGO    C217504   0.457  10.267   7.786  0.0623  0.1921 -0.0361
 1314ERGO   ROH17505  17.204  11.422  10.093  0.1096  0.1903  0.0467
 1314ERGO    R117506  17.200  11.386   9.812 -0.0661  0.0519  0.0659
 1314ERGO    R217507  16.968  11.329   9.673 -0.2071  0.2810  0.2046
 1314ERGO    R317508  17.040  11.547   9.528  0.0103  0.1166  0.0584
 1314ERGO    R417509  16.979  11.339   9.328 -0.3341  0.0771  0.1920
 1314ERGO    R517510  17.163  11.456   9.343 -0.1757 -0.1431  0.0535
 1314ERGO    C117511  17.053  11.550   8.990 -0.2040 -0.1960  0.0473
 1314ERGO    C217512  17.105  11.401   8.668 -0.2507  0.2733  0.0384
 1315ERGO   ROH17513  15.487   7.703   6.129 -0.0741 -0.1726  0.1254
 1315ERGO    R117514  15.494   7.627   6.402  0.1059 -0.1297  0.1337
 1315ERGO    R217515  15.717   7.513   6.519  0.2971  0.1942  0.0876
 1315ERGO    R317516  15.687   7.717   6.697  0.0641  0.1767  0.0728
 1315ERGO    R417517  15.764   7.486   6.860  0.3441  0.2671  0.0875
 1315ERGO    R517518  15.590   7.613   6.890  0.1892  0.0696  0.0843
 1315ERGO    C117519  15.764   7.661   7.226  0.1528  0.2932  0.0735
 1315ERGO    C217520  15.901   7.786   7.595 -0.0107 -0.1229 -0.1988
 1316ERGO   ROH17521   4.639   3.913   6.590  0.0849 -0.0677 -0.1173
 1316ERGO    R117522   4.652   3.832   6.861  0.1203 -0.0261 -0.1068
 1316ERGO    R217523   4.880   3.863   7.014  0.0789  0.1757 -0.0853
 1316ERGO    R317524   4.710   3.992   7.182 -0.0451  0.0581 -0.1178
 1316ERGO    R417525   4.959   3.966   7.334 -0.0340  0.2822 -0.0906
 1316ERGO    R517526   4.761   3.903   7.399  0.0095  0.1259 -0.1014
 1316ERGO    C117527   4.846   4.148   7.678 -0.2162  0.2338 -0.1242
 1316ERGO    C217528   4.869   4.230   7.999 -0.3035 -0.0943 -0.0589
 1317ERGO   ROH17529   9.943  13.326   6.165  0.3568  0.3188 -0.2004
 1317ERGO    R117530  10.079  13.189   6.372 -0.0262  0.2244 -0.0011
 1317ERGO    R217531  10.337  13.252   6.447  0.0527 -0.1942  0.1080
 1317ERGO    R317532  10.225  13.274   6.694 -0.0708  0.2136  0.0218
 1317ERGO    R417533  10.512  13.303   6.741 -0.0458 -0.2352  0.1740
 1317ERGO    R517534  10.377  13.163   6.840 -0.3506  0.0760  0.2170
 1317ERGO    C117535  10.508  13.353   7.144 -0.2192  0.1237  0.1315
 1317ERGO    C217536  10.496  13.582   7.446  0.2870 -0.0216  0.1482
 1318ERGO   ROH17537   9.684  15.295   9.855  0.1253  0.1038  0.0092
 1318ERGO    R117538   9.604  15.178   9.610  0.1149  0.0950  0.0167
 1318ERGO    R217539   9.339  15.135   9.545  0.1161 -0.0149  0.0791
 1318ERGO    R317540   9.404  15.277   9.323 -0.0018  0.0391  0.0783
 1318ERGO    R417541   9.175  15.112   9.242 -0.0171  0.0297  0.1471
 1318ERGO    R517542   9.368  15.123   9.142 -0.0641  0.0736  0.0620
 1318ERGO    C117543   9.140  15.232   8.856 -0.2053  0.1064  0.1858
 1318ERGO    C217544   9.042  15.226   8.549 -0.0211 -0.1247  0.0769
 1319ERGO   ROH17545   2.279   1.743   6.442 -0.1964 -0.0999  0.0681
 1319ERGO    R117546   2.166   1.665   6.690  0.0064 -0.2592  0.1141
 1319ERGO    R217547   2.301   1.508   6.873  0.3326 -0.0128  0.0983
 1319ERGO    R317548   2.244   1.712   7.043  0.0391 -0.0781  0.0826
 1319ERGO    R417549   2.327   1.492   7.217  0.0057 -0.0516  0.1237
 1319ERGO    R517550   2.142   1.606   7.231 -0.0791 -0.1714 -0.0347
 1319ERGO    C117551   2.288   1.675   7.577 -0.4601 -0.1356  0.1238
 1319ERGO    C217552   2.124   1.634   7.944  0.1424  0.2627 -0.3388
 1320ERGO   ROH17553  15.555   6.229   6.215  0.1388 -0.1844  0.0595
 1320ERGO    R117554  15.483   6.340   6.465  0.3111 -0.0710  0.0603
 1320ERGO    R217555  15.270   6.247   6.614  0.1560  0.2625  0.0583
 1320ERGO    R317556  15.458   6.223   6.809  0.1227 -0.0382  0.0585
 1320ERGO    R417557  15.205   6.264   6.953  0.1347 -0.0100  0.0699
 1320ERGO    R517558  15.389   6.380   6.977  0.2069 -0.1482  0.1970
 1320ERGO    C117559  15.344   6.252   7.334  0.0911 -0.4510  0.0768
 1320ERGO    C217560  15.418   6.339   7.605 -0.3209  0.1889  0.2977
 1321ERGO   ROH17561  10.956   8.728   6.308 -0.0782  0.1796 -0.2181
 1321ERGO    R117562  10.797   8.642   6.526  0.0018  0.0152 -0.2227
 1321ERGO    R217563  10.879   8.667   6.789  0.0581 -0.0964 -0.2281
 1321ERGO    R317564  10.642   8.796   6.817  0.0240 -0.1849 -0.1028
 1321ERGO    R417565  10.748   8.775   7.090  0.1577 -0.1769 -0.1553
 1321ERGO    R517566  10.551   8.710   7.022  0.1495 -0.2397 -0.0704
 1321ERGO    C117567  10.449   8.960   7.291  0.1837 -0.3067  0.0047
 1321ERGO    C217568  10.582   9.034   7.669 -0.1332  0.1456 -0.2464
 1322ERGO   ROH17569  15.683  17.984  10.378 -0.1963 -0.0396 -0.1908
 1322ERGO    R117570  15.774  18.163  10.178 -0.2386  0.0139 -0.1624
 1322ERGO    R217571  15.967  18.094   9.993 -0.0815  0.1523 -0.0536
 1322ERGO    R317572  15.778  18.174   9.814 -0.0549 -0.0244 -0.1624
 1322ERGO    R417573  16.027  18.169   9.661  0.0084  0.0401 -0.0629
 1322ERGO    R517574  15.889  18.336   9.678 -0.0876 -0.0245 -0.1892
 1322ERGO    C117575  15.885  18.287   9.300  0.0857 -0.1911 -0.1705
 1322ERGO    C217576  16.002  18.236   8.967 -0.0251  0.0330  0.1083
 1323ERGO   ROH17577  10.130  15.631   5.735  0.2477  0.0812  0.1120
 1323ERGO    R117578  10.019  15.513   5.967  0.0591  0.0948  0.0303
 1323ERGO    R217579  10.161  15.341   6.130 -0.1287 -0.0391  0.0595
 1323ERGO    R317580  10.088  15.517   6.325 -0.1094 -0.0374  0.0648
 1323ERGO    R417581  10.012  15.253   6.429  0.0561 -0.0462  0.1508
 1323ERGO    R517582   9.883  15.428   6.411 -0.0277 -0.1082  0.1836
 1323ERGO    C117583   9.857  15.367   6.786  0.1818 -0.0486  0.2089
 1323ERGO    C217584   9.900  15.234   7.117 -0.1126 -0.2276  0.3405
 1324W        W17585   1.188  12.637   5.053 -0.1174  0.0996  0.1310
 1325W        W17586   1.566  14.467  13.125 -0.1729  0.0026 -0.3587
 1326W        W17587  16.556   6.442   5.055  0.1249 -0.1172  0.0559
 1327W        W17588   0.607   2.416   6.494 -0.0269 -0.1239 -0.0457
 1328W        W17589   8.488  17.253   3.831  0.1250 -0.0473  0.3166
 1329W        W17590   2.983   2.305   5.102 -0.1938 -0.3297  0.1817
 1330W        W17591   6.422   6.478  12.322  0.1849  0.2643  0.0203
 1331W        W17592   0.242  10.796  16.161  0.1159 -0.1594  0.0559
 1332W        W17593  16.198  11.406   1.643  0.0497 -0.0701 -0.1849
 1333W        W17594   4.290  10.586   3.625 -0.0859  0.0887 -0.3282
 1334W        W17595   9.715  15.947  12.451  0.0800 -0.1750  0.2713
 1335W        W17596  13.131   5.039   1.220  0.1238 -0.2111 -0.1418
 1336W        W17597  11.095  13.263   2.862  0.1807 -0.1362  0.0682
 1337W        W17598  10.011   0.803   2.330  0.3665 -0.0484 -0.0196
 1338W        W17599   7.337  16.751   5.000  0.0966  0.1970  0.1786
 1339W        W17600   8.271   4.578   3.307 -0.0236 -0.0008  0.0471
 1340W        W17601   8.458  16.864  14.888  0.1542  0.2975  0.1376
 1341W        W17602   0.889  15.720   0.440 -0.0820 -0.2244  0.0546
 1342W        W17603  17.763   6.040   2.548 -0.0718  0.2828  0.1497
 1343W        W17604   9.290   8.881   1.393 -0.1649 -0.1407 -0.1491
 1344W        W17605   9.184  11.019   0.059 -0.1065 -0.0353  0.2491
 1345W        W17606  12.439   1.356  12.662  0.0423  0.0786  0.1262
 1346W        W17607   4.282  12.737  15.451  0.1154 -0.1804 -0.0791
 1347W        W17608   9.320  13.971  11.538 -0.1678  0.0974  0.2314
 1348W        W17609   0.506   8.173   3.457 -0.0649 -0.3770 -0.3197
 1349W        W17610   8.738  18.004   1.632 -0.0502  0.2887 -0.1016
 1350W        W17611  12.809   8.481   4.848 -0.1152  0.0319  0.0754
 1351W        W17612  15.153  13.034   5.850 -0.1492 -0.2175 -0.1544
 1352W        W17613  14.355  13.639  11.478  0.1390 -0.3646  0.5558
 1353W        W17614   4.460   4.910   3.934  0.0442  0.1517  0.0833
 1354W        W17615   1.535  17.195  14.222 -0.0429 -0.0005 -0.3064
 1355W        W17616   0.360   4.359  15.113 -0.0765 -0.3763 -0.1461
 1356W        W17617  13.451  15.079   0.987  0.0357 -0.0604 -0.2084
 1357W        W17618   3.229  14.686   2.938 -0.0102  0.0401 -0.3560
 1358W        W17619   3.985  11.984  14.588  0.0936  0.2647 -0.0092
 1359W        W17620  16.234  11.098  14.770  0.2599 -0.1963  0.0253
 1360W        W17621  13.353  16.507  13.653  0.0960  0.2530  0.2966
 1361W        W17622   1.087   0.853   3.018  0.0105 -0.0875  0.0412
 1362W        W17623   3.437  17.037   2.608  0.2781 -0.0270  0.2737
 1363W        W17624   7.918   7.265   2.244 -0.3829  0.0877  0.1014
 1364W        W17625  12.644   2.070  15.932  0.0446 -0.0071  0.0212
 1365W        W17626   2.625  10.702   2.041  0.0726 -0.0060  0.3894
 1366W        W17627   2.518   1.710   3.033  0.1120 -0.2066  0.1433
 1367W        W17628   9.392  13.374   1.131  0.3869  0.0330  0.3250
 1368W        W17629  15.836   1.354   1.947  0.0444  0.2106 -0.0780
 1369W        W17630  16.767  16.186  13.366  0.2867 -0.1227 -0.0717
 1370W        W17631   6.989   6.283   0.666 -0.1504 -0.0519  0.2451
 1371W        W17632  10.821   2.092   3.969 -0.4796 -0.1250 -0.0914
 1372W        W17633  11.084   6.477   1.675 -0.0196 -0.2469 -0.2181
 1373W        W17634   7.109   8.418   2.696  0.1700 -0.2662  0.2295
 1374W        W17635   5.060   3.483   1.866 -0.1215  0.1625  0.2109
 1375W        W17636  15.530  14.818   0.559  0.0506 -0.1206  0.1527
 1376W        W17637  16.877  11.130   3.169  0.0954 -0.2265  0.1566
 1377W        W17638   4.395   5.283  11.303 -0.0209  0.1408  0.2517
 1378W        W17639  18.289   7.221   1.107 -0.1947  0.0516  0.2913
 1379W        W17640   9.951   6.909  12.879 -0.2261 -0.0491 -0.4911
 1380W        W17641  15.465  12.442  14.053  0.0559  0.3511 -0.1728
 1381W        W17642   9.611   0.756  14.557  0.5130  0.1303 -0.0272
 1382W        W17643   4.885  11.708  14.548 -0.2322  0.1686 -0.4145
 1383W        W17644   9.096   7.648   2.986  0.3519 -0.3994 -0.1798
 1384W        W17645   1.889   8.360   0.145  0.0067  0.0013  0.2958
 1385W        W17646  17.848   0.269  15.088  0.0400  0.3696  0.0558
 1386W        W17647   9.954  12.645   3.188 -0.0513 -0.3212 -0.1713
 1387W        W17648  12.956   3.688  12.140 -0.2203  0.1483 -0.2492
 1388W        W17649   6.514  11.836  14.898 -0.3468 -0.1749  0.2307
 1389W        W17650   1.044  17.976   5.677  0.0886 -0.3951  0.2284
 1390W        W17651   8.713  17.651  11.328 -0.1333  0.0105 -0.1059
 1391W        W17652  18.192   0.046   0.878  0.0517  0.2472  0.3932
 1392W        W17653   9.842  10.848   3.299 -0.1378  0.0410  0.1629
 1393W        W17654  14.332   8.034  12.198  0.0489 -0.1762  0.4178
 1394W        W17655  11.442   6.768   1.375 -0.0145 -0.1213  0.1128
 1395W        W17656   6.013   0.484  11.655 -0.0899 -0.2138 -0.0121
 1396W        W17657  11.878   3.229   4.800 -0.1767 -0.0238 -0.0122
 1397W        W17658  10.662   1.502   1.662  0.0600  0.0487  0.2646
 1398W        W17659   6.533   8.159   4.781  0.2939 -0.1318  0.0796
 1399W        W17660  16.022   8.896  14.798  0.0150  0.0471 -0.0131
 1400W        W17661   0.277   9.137  14.457  0.1054  0.0355  0.3442
 1401W        W17662   4.203  14.104  13.965 -0.0491 -0.4009 -0.4999
 1402W        W17663   0.317  17.792  13.499 -0.2571 -0.0105 -0.1669
 1403W        W17664   0.851  10.161   1.902 -0.0211  0.0107  0.0341
 1404W        W17665   6.150   1.348   1.326  0.0143  0.0083  0.0140
 1405W        W17666  15.595  15.379   0.683  0.3044  0.1494 -0.4488
 1406W        W17667  11.264  15.560  14.138  0.1683  0.2138 -0.1644
 1407W        W17668  14.228  10.646  15.269  0.1949  0.2519 -0.0307
 1408W        W17669   7.460   6.551  13.914  0.2578 -0.1731  0.0223
 1409W        W17670   3.321   9.110   4.792  0.1410 -0.0980  0.2316
 1410W        W17671   8.245  16.461  14.119  0.0850 -0.1261 -0.1960
 1411W        W17672  14.159   6.822  13.642 -0.1426  0.1129  0.3034
 1412W        W17673   9.235   3.300  14.597  0.0988  0.0075  0.0859
 1413W        W17674  17.244  16.120  16.056 -0.0398 -0.0410  0.2788
 1414W        W17675   0.800   3.370  12.977  0.1644  0.1266 -0.1741
 1415W        W17676  11.077   6.756  15.811  0.1189 -0.2889 -0.0893
 1416W        W17677   8.237  13.732  15.352 -0.1521 -0.3107  0.0790
 1417W        W17678  13.571  14.664  13.701  0.0174  0.5203 -0.0448
 1418W        W17679   5.788   9.844  11.874  0.1546  0.0161 -0.2392
 1419W        W17680   0.492   0.052   5.081 -0.2624 -0.0048  0.1714
 1420W        W17681  13.051   4.350   1.963  0.1079  0.1730 -0.1963
 1421W        W17682  12.104  12.670  16.119  0.1273  0.0372  0.0178
 1422W        W17683  12.135  14.794  14.878 -0.1236 -0.2638  0.0996
 1423W        W17684  16.358   6.063   2.669  0.1645 -0.0648  0.0371
 1424W        W17685  13.413   3.818   0.495  0.0307 -0.0667  0.2316
 1425W        W17686   3.919   0.351   4.126  0.0571 -0.0717 -0.1524
 1426W        W17687   0.768   0.035  13.092 -0.1999 -0.1839  0.1398
 1427W        W17688   9.519   1.834  13.601  0.0526 -0.1291 -0.1369
 1428W        W17689  12.128  15.680   2.725 -0.0198  0.0758  0.0362
 1429W        W17690   5.266   0.264  14.168 -0.0574 -0.1564  0.0826
 1430W        W17691   9.324   0.055   1.275  0.1029  0.3928 -0.0277
 1431W        W17692  16.398  15.681  14.940  0.2161  0.0291 -0.1725
 1432W        W17693  17.268  16.207  12.353 -0.0215 -0.1743 -0.1157
 1433W        W17694  13.904  11.377   0.141  0.0465 -0.1745  0.1457
 1434W        W17695   0.695  11.310  11.823 -0.3041  0.1357 -0.1014
 1435W        W17696  14.375  15.540   5.654  0.1291  0.2552  0.0816
 1436W        W17697   6.500  12.866   0.980 -0.1692  0.2002  0.1786
 1437W        W17698  10.887   4.863  11.734 -0.0016 -0.1568 -0.1188
 1438W        W17699  11.590   7.806   5.254 -0.2763 -0.0091 -0.0115
 1439W        W17700  11.812  16.251   0.030 -0.2176  0.1418 -0.0422
 1440W        W17701   6.440   5.500  15.767 -0.0379 -0.3162  0.1673
 1441W        W17702  18.031   0.347   0.119 -0.1351 -0.0260  0.0614
 1442W        W17703   9.992  15.909  11.486 -0.0753  0.0299 -0.2328
 1443W        W17704  13.748  14.265   2.261  0.0322  0.6415 -0.0210
 1444W        W17705   0.375   3.977  11.512  0.2978  0.0292  0.2432
 1445W        W17706   3.536  14.397   0.191  0.3654 -0.0084  0.2179
 1446W        W17707   3.953   1.601   5.151 -0.0116  0.1019  0.0312
 1447W        W17708   7.293  16.278  12.182  0.1189 -0.0208  0.2706
 1448W        W17709  18.173   5.042   5.805  0.1633  0.1239  0.2305
 1449W        W17710  18.380   3.900   1.952 -0.1138 -0.1965 -0.1265
 1450W        W17711   8.870   7.479   2.584 -0.1254 -0.0829 -0.1052
 1451W        W17712   3.942  14.090   6.020  0.1126 -0.1304  0.2254
 1452W        W17713  10.012   2.850  13.275  0.0352  0.1722 -0.0944
 1453W        W17714   0.810   7.815   3.215  0.4527  0.0487 -0.2009
 1454W        W17715   6.563   0.229   4.064  0.0845 -0.0820 -0.3721
 1455W        W17716  16.837   7.359  11.423  0.0077  0.1254 -0.0995
 1456W        W17717  12.194   0.732   3.597  0.2612 -0.1190  0.1339
 1457W        W17718   4.192  11.038  14.848  0.0413  0.1366 -0.1081
 1458W        W17719  13.559  16.957   3.402 -0.1968 -0.1956  0.2065
 1459W        W17720   4.016   0.889  16.097 -0.2927 -0.1920 -0.0160
 1460W        W17721   5.030   3.814   0.143  0.0423 -0.3117 -0.0406
 1461W        W17722   7.650  16.498  13.473 -0.5011  0.2880 -0.1703
 1462W        W17723   4.903  10.147   5.343 -0.0261 -0.0672  0.2548
 1463W        W17724  14.202   9.974  12.725 -0.0675 -0.1913  0.1543
 1464W        W17725  11.692  17.638   2.452  0.0560  0.1919 -0.1380
 1465W        W17726   4.922   9.879   4.623  0.3054 -0.3165 -0.1950
 1466W        W17727  13.345   7.718   0.583  0.0246  0.1416 -0.1222
 1467W        W17728   6.586  12.273   4.096 -0.1038  0.3074  0.3120
 1468W        W17729   7.606   1.492  15.186  0.0723 -0.2856  0.2557
 1469W        W17730   0.840  17.110   0.669 -0.1584 -0.4148  0.0621
 1470W        W17731  13.378  14.201   1.081  0.3242  0.2223 -0.1615
 1471W        W17732  12.897  16.408  13.473 -0.2937 -0.2875 -0.0824
 1472W        W17733  17.706   5.377  14.692 -0.0048 -0.2068  0.1428
 1473W        W17734   0.547   4.580   3.781  0.4617  0.0544 -0.1896
 1474W        W17735   0.803   3.125  13.406  0.0551  0.0890 -0.0434
 1475W        W17736  11.309  14.217  11.139  0.0544 -0.1567  0.1382
 1476W        W17737  11.647  11.710  15.033 -0.1679 -0.3742  0.0179
 1477W        W17738   2.362   4.913  13.092  0.0761 -0.1849  0.0622
 1478W        W17739   0.899   0.926  13.017 -0.1797  0.1301 -0.1338
 1479W        W17740  18.283  14.297  14.229 -0.0828  0.3647  0.2517
 1480W        W17741  16.241   1.377  16.014 -0.2388  0.1846 -0.0905
 1481W        W17742  18.340   1.770   5.948  0.2110  0.0879  0.0044
 1482W        W17743   4.005  16.471   3.147 -0.1194 -0.1885  0.1161
 1483W        W17744  13.367  13.866   5.312 -0.5388 -0.0853  0.3596
 1484W        W17745  15.188   7.966   0.231  0.0306 -0.0544  0.0842
 1485W        W17746  14.600  13.144  15.996  0.0138 -0.1077  0.1137
 1486W        W17747  17.367   4.568   0.101 -0.2828 -0.1833  0.0485
 1487W        W17748  16.511   4.694   0.621 -0.1315  0.1337  0.2601
 1488W        W17749  13.304   0.329   4.219 -0.0177 -0.2912  0.1610
 1489W        W17750   3.747   2.516   6.248  0.0508 -0.1471  0.0159
 1490W        W17751   3.620  10.145  16.269  0.1975  0.2080  0.0734
 1491W        W17752   1.005   9.696   1.710 -0.3074  0.1576  0.0454
 1492W        W17753  10.789  13.936  16.030 -0.2112 -0.2097  0.3694
 1493W        W17754  17.899  13.569   5.101 -0.1208  0.2072 -0.2289
 1494W        W17755   4.662  13.567   1.087  0.4526 -0.0542  0.0921
 1495W        W17756   7.464   8.258  15.801 -0.0824  0.1167 -0.1255
 1496W        W17757   0.219   8.628   2.425  0.0846  0.2213  0.1495
 1497W        W17758  14.711  16.934   6.228  0.0874 -0.2405  0.0909
 1498W        W17759   9.206  16.243   1.298 -0.2426 -0.0119  0.1812
 1499W        W17760  17.494   2.176   4.888  0.3055 -0.2546  0.1235
 1500W        W17761   7.028   6.777   1.498 -0.0684 -0.3017 -0.1449
 1501W        W17762   9.400  10.631   3.436  0.1711  0.1209  0.2139
 1502W        W17763  11.719   2.130  15.059  0.1416 -0.3918  0.3520
 1503W        W17764  14.286  13.186  11.277  0.0259  0.1753 -0.3287
 1504W        W17765   7.722  14.513   2.707  0.0365 -0.0891 -0.0037
 1505W        W17766   3.124   9.111  16.071  0.0129 -0.1530  0.0417
 1506W        W17767   2.705  16.700  11.238  0.1257  0.2184 -0.2381
 1507W        W17768  13.809  17.468  12.350  0.0000  0.0125  0.1145
 1508W        W17769  12.714  11.302   0.570 -0.0823  0.3225  0.0909
 1509W        W17770   4.454  17.317   5.251 -0.2260 -0.0088 -0.2514
 1510W        W17771  13.187   9.735  13.961 -0.2252 -0.0975  0.3721
 1511W        W17772   4.162   6.814   4.458  0.2219  0.1894  0.0133
 1512W        W17773  13.016   1.242  15.287 -0.3060  0.0835 -0.1084
 1513W        W17774   9.396   9.764   5.230  0.2150 -0.2137 -0.1895
 1514W        W17775  11.700  17.716   4.237 -0.0478  0.2184 -0.0625
 1515W        W17776  12.743   1.321   0.575  0.0160  0.0306  0.2634
 1516W        W17777   9.002  12.661  13.517  0.1466 -0.0698 -0.2105
 1517W        W17778   5.729   9.895  15.834 -0.2439 -0.1553  0.2391
 1518W        W17779   4.447   3.840  10.973 -0.0498  0.3501 -0.2575
 1519W        W17780  13.102  17.257   1.318  0.0406  0.3203  0.1568
 1520W        W17781  11.183  11.761  14.084  0.1093 -0.0075  0.0019
 1521W        W17782   1.439  16.982  13.790 -0.0171  0.0545 -0.1457
 1522W        W17783   1.981  14.366  15.912  0.1179 -0.2169 -0.0375
 1523W        W17784   4.639   0.533  16.158  0.2437  0.2483 -0.2359
 1524W        W17785   3.891   5.137   4.873  0.0808 -0.1309  0.0229
 1525W        W17786  14.728   7.229  15.510 -0.1080  0.1786  0.0891
 1526W        W17787  11.445   2.925  12.847  0.1668 -0.0756 -0.1508
 1527W        W17788   0.256  10.336   0.012 -0.0520  0.0678 -0.0910
 1528W        W17789   2.273  14.284  15.115  0.0585 -0.4972 -0.2683
 1529W        W17790   1.271   8.149   0.952  0.2657  0.2089 -0.1290
 1530W        W17791   8.697   5.635  15.883 -0.0633  0.0309  0.1992
 1531W        W17792  17.714  11.006  16.127 -0.2820  0.0067 -0.1121
 1532W        W17793   4.466   1.744   5.008  0.1887  0.3256 -0.1176
 1533W        W17794  13.995   2.998   5.516 -0.0931  0.1836 -0.1933
 1534W        W17795   8.280  11.000   2.787 -0.0615  0.0974  0.1928
 1535W        W17796   7.520   8.305   3.615 -0.0898  0.1025  0.1728
 1536W        W17797  12.627  15.490   0.787 -0.3788  0.1589  0.0793
 1537W        W17798   6.445   7.360   4.375  0.0884  0.2591  0.0927
 1538W        W17799  11.861  16.270  14.233  0.0151 -0.0506  0.2058
 1539W        W17800   5.450  10.878  11.502 -0.1864 -0.1288  0.4112
 1540W        W17801  16.111   5.494  15.763 -0.2321  0.0147  0.2711
 1541W        W17802  11.863   4.162  13.388  0.2514 -0.2723  0.1319
 1542W        W17803  11.969   1.646  13.515 -0.0817  0.2142  0.0827
 1543W        W17804  15.630   3.290   0.006 -0.1229  0.1280  0.4420
 1544W        W17805   7.359  14.920  12.816 -0.1485  0.1500 -0.1161
 1545W        W17806   7.208  15.512  12.766 -0.2520 -0.0940  0.2380
 1546W        W17807   1.156  10.376   4.986  0.3088 -0.0235  0.0589
 1547W        W17808  14.353   5.144   4.057 -0.0753 -0.1478  0.2354
 1548W        W17809   1.759  18.351  11.264  0.1962  0.3635  0.2124
 1549W        W17810  17.704   8.984  12.395 -0.0161  0.2107  0.1400
 1550W        W17811   1.020  14.882   2.517  0.0588 -0.1995 -0.1034
 1551W        W17812   5.460   6.019  16.202  0.0626 -0.0616 -0.0493
 1552W        W17813  10.890   9.737  15.170 -0.0651  0.0954  0.0340
 1553W        W17814  10.648   3.618   2.206  0.2706  0.0295  0.1762
 1554W        W17815   3.263  11.772   0.482 -0.2368  0.0070 -0.3343
 1555W        W17816   3.034   5.099   6.125  0.0836 -0.2099  0.1300
 1556W        W17817  10.111  12.656  14.432  0.0280  0.0667  0.2583
 1557W        W17818  10.425   2.543   3.639 -0.2003  0.1762 -0.0575
 1558W        W17819  15.283  13.863   3.521 -0.3515 -0.2920  0.0794
 1559W        W17820   9.589  17.241  15.201  0.1440  0.3612 -0.1847
 1560W        W17821  14.855  16.014   4.844 -0.2617 -0.2051  0.2100
 1561W        W17822   6.272   9.325   3.126  0.3362  0.0011  0.2200
 1562W        W17823   4.791   1.875  12.384 -0.1212  0.0578 -0.0834
 1563W        W17824   2.695   5.404   5.409  0.1890 -0.0524  0.4465
 1564W        W17825   1.401   6.079  12.911  0.0197  0.2326 -0.3208
 1565W        W17826   1.534  15.915  12.267  0.1487  0.1036  0.3103
 1566W        W17827  16.419   1.456   5.710 -0.1778  0.0060  0.1265
 1567W        W17828  16.366  10.016   1.391 -0.1941 -0.1981 -0.0661
 1568W        W17829  12.626   8.831  15.991  0.0448 -0.2573  0.1162
 1569W        W17830   8.676   1.576  15.516 -0.0187 -0.4158 -0.1265
 1570W        W17831   7.258  13.848   1.749  0.1425  0.1872  0.0572
 1571W        W17832   0.198  17.791  12.154 -0.2183 -0.2420  0.2560
 1572W        W17833  11.995   8.900  12.398  0.1009  0.1854 -0.1015
 1573W        W17834   8.473   3.360   1.237 -0.0219 -0.2492 -0.1233
 1574W        W17835   6.160  16.870   0.846 -0.1854 -0.1238 -0.1060
 1575W        W17836   4.766  14.842   5.149 -0.0615 -0.1320  0.3278
 1576W        W17837   6.791   9.863  11.237 -0.0462 -0.2998 -0.3032
 1577W        W17838   6.589  11.212  15.105 -0.0214 -0.1072 -0.1550
 1578W        W17839  12.283  14.409  15.166 -0.3173 -0.0672  0.2972
 1579W        W17840  14.680   0.658  13.931 -0.0654  0.0148  0.1112
 1580W        W17841  14.894  14.462  13.707  0.1884  0.0565 -0.4351
 1581W        W17842   1.503   0.182  11.825  0.0846 -0.4022 -0.0899
 1582W        W17843   8.167  15.403  12.534 -0.2279  0.1634  0.2597
 1583W        W17844  14.857   9.353   4.522 -0.0791  0.1956  0.1248
 1584W        W17845   7.991  12.898   3.452  0.1199 -0.0423 -0.0662
 1585W        W17846  10.539  13.662   1.530 -0.0069  0.2833  0.1454
 1586W        W17847  11.256   4.505  11.418  0.2130 -0.0101  0.0592
 1587W        W17848  14.960  16.975  13.256  0.0639 -0.2713 -0.0577
 1588W        W17849  11.121   8.102  11.878  0.1399 -0.2765 -0.0565
 1589W        W17850  18.339   2.133  10.609  0.2221  0.0170 -0.0161
 1590W        W17851  10.246   1.055  12.270 -0.2785 -0.0437  0.1208
 1591W        W17852   6.675   8.166   0.443 -0.1611 -0.0268  0.1812
 1592W        W17853   3.329   2.080  13.242 -0.2044  0.0560  0.2393
 1593W        W17854   2.526   7.279  13.647 -0.2536  0.2113  0.0750
 1594W        W17855  15.318   9.064  10.889  0.0624 -0.1481  0.0834
 1595W        W17856   8.510   3.967   0.613  0.5494  0.1311  0.1313
 1596W        W17857   1.381   2.653  13.959  0.2386 -0.2259 -0.2943
 1597W        W17858  11.127  18.045  13.937  0.0295  0.0921  0.2313
 1598W        W17859  17.410   1.984  12.496 -0.0701  0.1101 -0.2159
 1599W        W17860   8.586   0.384   0.129  0.0588 -0.1540 -0.2372
 1600W        W17861   5.573  15.695   5.958 -0.2609  0.1560 -0.2411
 1601W        W17862   8.575   0.386  13.472 -0.0568  0.5712  0.1970
 1602W        W17863  17.611  13.613  13.250  0.2745  0.0163  0.1181
 1603W        W17864  10.958   5.550  12.386  0.0849 -0.1304  0.1986
 1604W        W17865   1.213   7.373   3.834 -0.2028 -0.1507  0.0363
 1605W        W17866  16.802  12.740   0.836  0.2146  0.3440 -0.0101
 1606W        W17867   8.229   0.005   5.860 -0.5589 -0.1021  0.0201
 1607W        W17868  12.114   0.709  13.995 -0.0219 -0.3752  0.1050
 1608W        W17869   8.767  13.215   1.931  0.1370 -0.3559 -0.2170
 1609W        W17870  17.393   1.924   0.895 -0.0224 -0.2907 -0.0908
 1610W        W17871   5.178   0.282   3.620  0.2313  0.4520 -0.0838
 1611W        W17872   5.017   6.313   0.594 -0.0910  0.0920 -0.0364
 1612W        W17873  16.555   4.229   3.374 -0.1847 -0.1817  0.3184
 1613W        W17874  17.704   8.865   1.085 -0.0451 -0.2866 -0.1306
 1614W        W17875   7.812   8.957   4.712 -0.2089 -0.0748 -0.1182
 1615W        W17876   4.099   9.782   3.901 -0.0729  0.1638  0.1887
 1616W        W17877  14.986  15.027   2.341  0.0914  0.1620  0.2756
 1617W        W17878  15.217  14.247  12.659  0.0675  0.1795 -0.0608
 1618W        W17879  13.625   3.078   4.132 -0.1610 -0.1033 -0.1056
 1619W        W17880  12.401   7.757   0.255 -0.0322  0.0891 -0.1813
 1620W        W17881   6.618  18.121   2.536  0.1683  0.1301 -0.3729
 1621W        W17882   2.675  14.516  11.537  0.2817  0.3185 -0.2022
 1622W        W17883  16.068   7.646  11.963  0.1414  0.0300 -0.0701
 1623W        W17884   1.362   7.043  11.490  0.0043 -0.0335  0.0008
 1624W        W17885   8.014  15.078  14.889 -0.0721 -0.0649  0.2251
 1625W        W17886   1.136  13.664   3.341 -0.2105  0.0224 -0.0359
 1626W        W17887  10.797   2.499  13.520 -0.0250  0.2388 -0.0722
 1627W        W17888  15.595   7.911   3.422 -0.1964 -0.2462  0.1123
 1628W        W17889  13.684  11.248   3.364  0.1600  0.0305 -0.0559
 1629W        W17890   3.225   4.181   1.043 -0.0305  0.1500 -0.1632
 1630W        W17891  11.815   4.705   4.276  0.0429 -0.1891 -0.1254
 1631W        W17892  10.796  12.841  13.816  0.1093 -0.0170  0.1664
 1632W        W17893  13.105   6.954   1.970  0.1611 -0.0505 -0.0498
 1633W        W17894  13.085   4.612   4.592  0.0132  0.3487  0.1019
 1634W        W17895  14.432  17.416   3.230 -0.1564 -0.0436 -0.0759
 1635W        W17896  13.238  16.144   5.139  0.2266 -0.3043 -0.3346
 1636W        W17897   8.282   0.419   1.622 -0.1919 -0.1966  0.0729
 1637W        W17898   0.637   9.676   2.074 -0.0147  0.0994  0.1659
 1638W        W17899   9.163   9.031   4.571  0.3593 -0.0838  0.0402
 1639W        W17900   7.372   9.420  12.197  0.0101 -0.0987  0.0715
 1640W        W17901   0.428   7.567   2.500 -0.1701  0.3218  0.0039
 1641W        W17902  17.218   8.392   1.882 -0.2037  0.0739 -0.2341
 1642W        W17903   5.159  14.096   5.322  0.0836 -0.1259  0.0748
 1643W        W17904  14.044  14.852   4.499  0.1381  0.0262  0.2263
 1644W        W17905   0.656  16.847  14.119  0.0857  0.0809  0.0442
 1645W        W17906  14.587  18.271   2.944  0.0334  0.0022  0.1520
 1646W        W17907  11.241  11.352  13.574  0.1905 -0.2640  0.1885
 1647W        W17908  13.519   2.557   6.193 -0.0589 -0.2336 -0.2736
 1648W        W17909   8.677   8.148  13.654 -0.4846  0.3370  0.0973
 1649W        W17910   3.133   6.529   1.699 -0.5258 -0.0211 -0.2022
 1650W        W17911  15.830  13.760  14.275  0.1496 -0.0759 -0.1426
 1651W        W17912  17.719   7.896  11.955  0.1772  0.1247 -0.0489
 1652W        W17913  16.753   8.126  10.586 -0.1817  0.1127 -0.1247
 1653W        W17914   9.726   2.696  14.979  0.1054  0.1928  0.0095
 1654W        W17915  18.172   2.816  14.304 -0.1049 -0.0255  0.0806
 1655W        W17916   4.843   4.932   4.665  0.0076  0.1594 -0.0125
 1656W        W17917   7.659   9.295   9.455  0.1345 -0.1301  0.0399
 1657W        W17918  17.536   5.972   0.322  0.1272 -0.1059 -0.2683
 1658W        W17919   6.633  16.587  14.586 -0.1111  0.1716  0.0988
 1659W        W17920  11.478   1.566   4.566  0.3384 -0.1405 -0.0299
 1660W        W17921   2.134  17.109   3.969  0.1902 -0.0108 -0.0049
 1661W        W17922  16.607   5.945   1.817 -0.0254 -0.0296  0.0433
 1662W        W17923  12.450   2.192   3.803  0.0008 -0.0058 -0.0803
 1663W        W17924   5.914  14.588   0.268 -0.0996 -0.0176  0.0622
 1664W        W17925  14.658  10.012   3.258 -0.2471  0.1165 -0.5233
 1665W        W17926   7.272  13.661  15.104  0.1794 -0.1883 -0.3544
 1666W        W17927  14.444   4.736   5.413 -0.0762  0.4259 -0.5043
 1667W        W17928   9.288  12.911  10.141  0.3128 -0.1819  0.1162
 1668W        W17929   9.844  12.347   1.508 -0.4219  0.0552 -0.3428
 1669W        W17930   7.490  12.548   4.830  0.0757 -0.0762  0.2075
 1670W        W17931  15.229   1.957   2.501 -0.0662 -0.0457 -0.0419
 1671W        W17932  13.583   2.371   4.691  0.1642  0.3417  0.1475
 1672W        W17933  17.706  10.734  11.724 -0.1373 -0.1219  0.0183
 1673W        W17934   2.876  18.035  15.631  0.0183 -0.0959 -0.1143
 1674W        W17935  12.287  17.265   3.702  0.1073 -0.2364 -0.1958
 1675W        W17936  11.668   2.458   4.156 -0.0827 -0.0937 -0.5254
 1676W        W17937  12.523   5.254  14.542  0.2280 -0.0640 -0.3055
 1677W        W17938  17.600   6.686  15.842  0.3512  0.4082  0.1007
 1678W        W17939  13.461   5.753  12.830 -0.0313 -0.0781  0.0407
 1679W        W17940  12.467   2.207   0.112  0.2942  0.0777 -0.0368
 1680W        W17941   9.828   7.424   5.240 -0.2248 -0.3137 -0.0073
 1681W        W17942  14.830  12.273  15.872 -0.0930 -0.0046  0.0867
 1682W        W17943   5.334  14.277   1.002  0.1621  0.3848  0.3229
 1683W        W17944  10.298  17.003  14.982  0.0523 -0.0810  0.0875
 1684W        W17945   7.873  12.521  13.635  0.1660  0.0258 -0.0950
 1685W        W17946   7.737   6.010  13.742  0.1144  0.2387 -0.0823
 1686W        W17947  13.734  16.512  15.091  0.0062 -0.1492 -0.0083
 1687W        W17948  12.487  17.831  14.261  0.0878  0.5351  0.1204
 1688W        W17949   1.773  11.834   0.421 -0.1461  0.0804  0.1707
 1689W        W17950  10.096  18.116   0.205  0.3495 -0.0632 -0.1223
 1690W        W17951  10.430   8.670  11.062  0.4197 -0.4755  0.4239
 1691W        W17952  14.579  16.303  12.517  0.1594 -0.3993 -0.0074
 1692W        W17953  13.364   2.902   1.576 -0.1997  0.0065 -0.0500
 1693W        W17954  18.209   4.990  11.948  0.1268  0.0016  0.0159
 1694W        W17955   2.309  10.492  15.531  0.1473  0.1135 -0.0613
 1695W        W17956  11.093   7.863  11.372 -0.2436  0.0633  0.0690
 1696W        W17957   2.234  16.176   2.900 -0.3397  0.1630 -0.0300
 1697W        W17958   2.704  11.020   0.800 -0.1610 -0.2721  0.1030
 1698W        W17959   2.278  18.295   3.559  0.1948 -0.2509 -0.0355
 1699W        W17960   8.222  10.476   1.936  0.1418 -0.1093 -0.1822
 1700W        W17961  14.570   5.590   4.267  0.0095  0.0382  0.4370
 1701W        W17962  13.049   1.699  16.031  0.0715  0.1831 -0.1131
 1702W        W17963   0.102  11.795  11.269  0.0239  0.3854 -0.1390
 1703W        W17964   9.866   7.277   2.397  0.0652 -0.2908 -0.1486
 1704W        W17965   5.997   4.347   1.425 -0.0018 -0.0532 -0.4866
 1705W        W17966   9.739  11.333  10.447  0.2572  0.2377  0.2172
 1706W        W17967  11.885  15.417  14.126  0.0355  0.1098 -0.1386
 1707W        W17968  12.871  14.792   3.354 -0.1389 -0.2233 -0.1413
 1708W        W17969  13.352   7.042   2.792  0.0200 -0.1924 -0.2607
 1709W        W17970  15.916  14.178   1.669  0.0958  0.2972  0.1958
 1710W        W17971  13.684  15.521   1.010 -0.0989 -0.1091 -0.0247
 1711W        W17972   5.773  15.696   1.155  0.0483 -0.0672  0.0994
 1712W        W17973  12.980  15.148  13.260  0.3959  0.1989  0.1014
 1713W        W17974  16.429  15.001  14.290  0.1189  0.0673  0.3286
 1714W        W17975  13.389  11.943   5.355  0.2372 -0.0424 -0.1034
 1715W        W17976   8.297  15.464  13.735 -0.0318 -0.0286 -0.1235
 1716W        W17977   2.718  18.124  12.248  0.1780  0.1009 -0.0137
 1717W        W17978   1.929  10.308  14.276 -0.1737 -0.0035 -0.0055
 1718W        W17979   3.499   1.394   2.875  0.1595  0.1411 -0.0246
 1719W        W17980   0.780  16.342  11.552 -0.1532 -0.1464  0.0688
 1720W        W17981   0.513   1.697  12.564 -0.1216  0.0361  0.0267
 1721W        W17982   3.463   4.200   1.460  0.0845  0.0519 -0.0919
 1722W        W17983  17.793   4.943  13.712  0.2030 -0.2556  0.0910
 1723W        W17984  18.341   0.331   4.397 -0.0191  0.0249  0.1492
 1724W        W17985  14.662   3.870  14.301  0.0140 -0.2570 -0.0461
 1725W        W17986  12.887  17.247   4.563 -0.0040 -0.1631  0.0094
 1726W        W17987  15.427  13.354   4.281  0.0427  0.0460 -0.2339
 1727W        W17988  15.693   6.446  12.923 -0.1863 -0.0816 -0.3352
 1728W        W17989   8.202   3.348   2.419  0.1050 -0.0279 -0.1924
 1729W        W17990  16.824  13.874  11.180  0.0081  0.1907 -0.0742
 1730W        W17991  15.165   2.681   5.470  0.2726 -0.0518 -0.0688
 1731W        W17992   2.565  15.853   2.636  0.0359 -0.2012 -0.1041
 1732W        W17993   6.451  13.859   2.304 -0.5528 -0.2548  0.2781
 1733W        W17994   6.431   6.118   0.382  0.0260  0.2398 -0.2604
 1734W        W17995  10.059  10.200   1.619  0.0670  0.0721 -0.1511
 1735W        W17996   5.558   8.325   3.818  0.2552 -0.0267  0.3831
 1736W        W17997  11.233   5.169   0.079  0.0723  0.1291  0.0640
 1737W        W17998  16.861  10.391  14.897 -0.0727 -0.5416  0.2869
 1738W        W17999   4.917   7.859  15.179  0.1835 -0.0072  0.2691
 1739W        W18000  12.307  16.479   6.501  0.3781  0.1231 -0.0394
 1740W        W18001   4.605  11.026  12.725 -0.1030  0.3160 -0.1372
 1741W        W18002   2.565  13.243   0.890 -0.1002 -0.1226 -0.0729
 1742W        W18003   6.765   4.087   4.936 -0.0290  0.2060  0.0499
 1743W        W18004  17.793  14.017  14.150  0.1953  0.0746 -0.2040
 1744W        W18005  15.469   7.062   3.524 -0.0557  0.1026 -0.2376
 1745W        W18006  10.233   4.388  14.204 -0.1185 -0.0671 -0.0246
 1746W        W18007  16.020   1.520   0.472 -0.0011  0.0650 -0.0692
 1747W        W18008   3.554   1.697   0.080  0.1174 -0.2370  0.2256
 1748W        W18009  15.038   3.439   5.936  0.2224 -0.0639 -0.0038
 1749W        W18010  11.251   5.447  12.824 -0.2118  0.2366 -0.3042
 1750W        W18011  15.184   5.512   2.872 -0.0408  0.2137  0.0341
 1751W        W18012  12.119   4.400  14.397 -0.3772  0.2406 -0.0519
 1752W        W18013  16.555  17.507  12.235  0.2511  0.2267  0.0027
 1753W        W18014  11.953   7.674   2.854 -0.1888 -0.1557  0.0668
 1754W        W18015   2.994  14.473  12.653  0.0370  0.2214 -0.2986
 1755W        W18016  11.455  11.991   0.880 -0.3459  0.0312 -0.0061
 1756W        W18017  17.881  12.303  12.320 -0.0826 -0.0020 -0.0293
 1757W        W18018  14.282  11.670  11.426  0.4101  0.3777 -0.1597
 1758W        W18019  11.306   4.998  14.271  0.1979  0.0373  0.1145
 1759W        W18020   8.761   1.020   3.783 -0.0429  0.0703  0.0097
 1760W        W18021   6.222   5.398  12.737 -0.0848 -0.1209  0.0212
 1761W        W18022   1.531   6.854  13.997 -0.6384 -0.1716 -0.3090
 1762W        W18023  12.498  11.507  11.100  0.3920 -0.0595 -0.1863
 1763W        W18024   8.917   8.067   3.911  0.1084  0.0711 -0.2464
 1764W        W18025   1.468   5.775  15.457 -0.0722 -0.1585  0.0655
 1765W        W18026   4.293   4.938  14.442  0.1496 -0.1180 -0.1241
 1766W        W18027  16.130   3.239  13.517  0.0361  0.0030  0.2890
 1767W        W18028  10.821  15.438   3.487  0.1083 -0.1153  0.0724
 1768W        W18029   9.159   1.368   2.098 -0.1155 -0.1912 -0.0014
 1769W        W18030   8.063  11.630   1.380 -0.1212  0.1714  0.0052
 1770W        W18031  13.987  15.091   0.926 -0.1356 -0.3847 -0.0605
 1771W        W18032   4.556   4.807  14.059 -0.3068  0.0325 -0.3923
 1772W        W18033   1.319  12.240   1.203  0.5490 -0.0543 -0.5293
 1773W        W18034   1.275   8.722   0.997  0.0256  0.3866 -0.3338
 1774W        W18035  13.643  15.146   2.388  0.0398 -0.1859  0.2319
 1775W        W18036  12.803  11.585   4.131 -0.0371 -0.0313 -0.0411
 1776W        W18037  15.900   6.778  13.212  0.2616 -0.0523 -0.1684
 1777W        W18038   9.876   1.326  13.445  0.2900 -0.2149  0.1143
 1778W        W18039  14.912   7.997   0.714 -0.2240  0.1144  0.0110
 1779W        W18040   5.372   1.700  15.452  0.3285 -0.0069 -0.0431
 1780W        W18041  10.475  14.475  13.936  0.2449  0.0998 -0.1270
 1781W        W18042   8.799  17.852   0.285  0.0441 -0.0585 -0.0564
 1782W        W18043   2.335   9.136  15.113  0.0560  0.0346 -0.0651
 1783W        W18044   4.099   9.840  13.480  0.3392  0.2717  0.2500
 1784W        W18045   8.842  15.545   4.718 -0.2552 -0.1240  0.3744
 1785W        W18046   5.373   7.068   0.038  0.1510 -0.0590  0.0395
 1786W        W18047  13.366   6.549  11.778  0.1141 -0.0705 -0.0601
 1787W        W18048   5.583  17.458  11.832 -0.2623 -0.3662 -0.2345
 1788W        W18049  12.685   2.945  12.682 -0.0340 -0.2609  0.2687
 1789W        W18050   7.209   0.718  14.002  0.1168 -0.2846  0.1811
 1790W        W18051  13.203  15.217  12.436 -0.2104  0.2903 -0.1600
 1791W        W18052  10.586   4.177  14.661  0.0813  0.0936  0.2042
 1792W        W18053  12.793  11.156  13.441  0.2352  0.0859 -0.2244
 1793W        W18054   6.935   2.293  14.529 -0.0730  0.0807 -0.1930
 1794W        W18055  11.367   3.871  14.246  0.3461 -0.1452  0.1560
 1795W        W18056   2.798  17.608   5.297  0.3778 -0.0153 -0.0630
 1796W        W18057  17.171  18.197  15.158 -0.3491 -0.2168 -0.3371
 1797W        W18058   3.581  17.448  12.274 -0.1253 -0.2147  0.1620
 1798W        W18059   2.695   6.022  14.970  0.5110  0.0238  0.0049
 1799W        W18060   2.241   6.120  15.349 -0.1514  0.2143 -0.1623
 1800W        W18061  10.489  15.296   3.868  0.3313  0.0794  0.0854
 1801W        W18062   4.637   0.975   2.067  0.0267 -0.0222  0.1343
 1802W        W18063  16.048  17.326   3.295  0.2600  0.2498  0.0189
 1803W        W18064  17.592  15.666   3.911  0.0038 -0.0675 -0.0312
 1804W        W18065   6.049   7.034   4.524 -0.2364 -0.0062  0.0318
 1805W        W18066   5.657   5.560  14.582  0.5820  0.0452 -0.1434
 1806W        W18067   1.483   3.496   5.442  0.2115 -0.1435  0.3569
 1807W        W18068   5.614  10.388  14.556 -0.0522 -0.2103  0.3499
 1808W        W18069  11.267   7.104   2.743 -0.0593  0.2949  0.2271
 1809W        W18070  12.255   2.524   3.400 -0.4591 -0.0814  0.1018
 1810W        W18071   2.849   6.733  13.508  0.2871 -0.1249 -0.2371
 1811W        W18072  12.799  10.703   1.204  0.1451 -0.0717 -0.1228
 1812W        W18073  10.095  12.003   4.359 -0.1207  0.1391  0.0353
 1813W        W18074  15.278   9.858  14.156  0.0097 -0.2026  0.1056
 1814W        W18075   1.977  14.350   2.278 -0.0680 -0.0408 -0.0037
 1815W        W18076   4.563  16.215   0.267  0.2585 -0.1277 -0.0308
 1816W        W18077   2.872  17.879   2.093 -0.2272 -0.0971 -0.0030
 1817W        W18078  13.716  11.560   5.179 -0.0721  0.2327 -0.0210
 1818W        W18079   9.156  15.871  15.437 -0.0474  0.1544  0.2719
 1819W        W18080  14.665  17.067   3.702 -0.1323  0.2784 -0.1981
 1820W        W18081   5.825   7.973   2.342  0.1467 -0.0806 -0.1503
 1821W        W18082  17.404   5.753  14.684 -0.0321  0.0238 -0.2516
 1822W        W18083   5.325   9.701   3.112 -0.1360 -0.1909  0.2700
 1823W        W18084   6.661   4.644   2.923  0.0148 -0.2002 -0.2599
 1824W        W18085   5.112   9.273   1.587  0.1323  0.3401 -0.3679
 1825W        W18086  18.306  13.398  11.934 -0.0576 -0.0983  0.2280
 1826W        W18087   2.740  15.584   0.689 -0.2115  0.2331  0.1223
 1827W        W18088   3.931   5.591   0.818  0.0158 -0.0505 -0.4883
 1828W        W18089  13.703   5.223  15.141 -0.0888  0.2627 -0.2563
 1829W        W18090  17.435   7.478  15.242  0.0270  0.1168  0.1994
 1830W        W18091   3.184   7.987   1.290  0.1702  0.0283  0.0220
 1831W        W18092   6.670  10.977   3.255 -0.0776  0.1921 -0.0120
 1832W        W18093  11.100   4.169  14.507  0.1194  0.0003  0.0481
 1833W        W18094   9.956   9.506   2.418 -0.2419 -0.2818 -0.1713
 1834W        W18095  10.468  14.754   1.432 -0.1637  0.1990 -0.1612
 1835W        W18096   4.770  12.221  11.796 -0.3197 -0.0691 -0.0498
 1836W        W18097   0.084  18.349   0.158  0.0815  0.2683 -0.2572
 1837W        W18098   1.020   3.180  14.366 -0.0400 -0.1135 -0.1947
 1838W        W18099   8.602  16.611  14.458 -0.2647 -0.2386 -0.1239
 1839W        W18100   7.890  11.970   1.769 -0.3158 -0.2622 -0.1284
 1840W        W18101   2.782   2.808  13.823 -0.2512 -0.1912  0.2040
 1841W        W18102  12.162   3.301  14.895 -0.0521  0.1225 -0.0903
 1842W        W18103  12.727   1.584   5.657 -0.1663  0.0395 -0.6235
 1843W        W18104  14.746   1.611   4.478 -0.1317  0.4296 -0.1243
 1844W        W18105   5.282  18.092   4.935  0.1930  0.0526  0.0612
 1845W        W18106   2.973  17.589   4.356  0.1321 -0.0719 -0.1910
 1846W        W18107   0.686  12.769   4.832 -0.0719  0.0334  0.0199
 1847W        W18108   8.444  13.955   5.454  0.1335 -0.1869 -0.3179
 1848W        W18109  16.912  13.348   0.055 -0.1791  0.1498 -0.2289
 1849W        W18110   5.553   3.155   0.724  0.1257 -0.3306 -0.0146
 1850W        W18111   5.761   1.196  15.799 -0.0523 -0.3213  0.0235
 1851W        W18112  11.109  16.612   0.723  0.3803  0.1244  0.0059
 1852W        W18113   8.209   1.677  13.847 -0.1175  0.0212  0.1077
 1853W        W18114   9.609  10.828  13.498  0.1955 -0.0268  0.0895
 1854W        W18115   9.045  16.008   4.906  0.3402 -0.1084 -0.1343
 1855W        W18116   3.342  17.543   0.130  0.0242  0.1399 -0.0606
 1856W        W18117   3.098  11.338   0.719 -0.0533 -0.1539 -0.1130
 1857W        W18118  14.846   6.792  13.489 -0.0576  0.0370 -0.1869
 1858W        W18119  13.154   8.140   0.799  0.3535  0.2344  0.2931
 1859W        W18120   5.817  12.984  12.829 -0.0276  0.1406  0.0730
 1860W        W18121  16.794   2.149  15.532 -0.3473  0.0667 -0.2440
 1861W        W18122   8.967  15.459   1.803 -0.1027  0.0129  0.0130
 1862W        W18123  14.773   1.988  14.016  0.4461  0.0155 -0.0681
 1863W        W18124   5.019   9.769  12.947 -0.1603  0.1362  0.1580
 1864W        W18125   9.913  13.831   9.988  0.0774  0.2085 -0.0699
 1865W        W18126  17.504  13.538   5.515  0.1623  0.1001 -0.4548
 1866W        W18127   4.646  17.470  13.406 -0.2542 -0.2384 -0.4683
 1867W        W18128   4.737  12.978   1.570  0.0784 -0.1338 -0.1443
 1868W        W18129   6.042  17.260   0.478  0.0434  0.1499 -0.1815
 1869W        W18130   5.021  17.782  16.154 -0.0939 -0.0733  0.0486
 1870W        W18131  16.796  13.355  14.480 -0.5173 -0.3002 -0.1070
 1871W        W18132  12.907   5.137   0.742  0.0153 -0.0238 -0.1589
 1872W        W18133  17.147   9.748   1.061 -0.0865  0.1175  0.0744
 1873W        W18134   0.864   7.714   2.736 -0.5549  0.1474  0.0850
 1874W        W18135   1.751  14.635   4.387  0.0382  0.1402  0.0958
 1875W        W18136  16.697  12.257   0.830 -0.0604  0.0775  0.2353
 1876W        W18137  12.467   1.824   5.215 -0.0093 -0.1699  0.1586
 1877W        W18138   5.591   1.199  15.347  0.3310  0.3996 -0.3398
 1878W        W18139  12.039  14.683   0.007  0.0208  0.2298  0.0898
 1879W        W18140  16.949  14.716  14.591  0.0179 -0.1679  0.0210
 1880W        W18141  10.518   9.480  14.206 -0.2011 -0.1087  0.0903
 1881W        W18142  17.997  16.162   0.179  0.1514 -0.0173  0.1183
 1882W        W18143   2.839  10.798   3.632 -0.2945 -0.0484 -0.1983
 1883W        W18144  12.955   3.285  12.400  0.1193 -0.0344  0.2308
 1884W        W18145   9.402  11.532   3.042 -0.0588  0.0292  0.0305
 1885W        W18146   7.058  10.334  12.571  0.0378  0.1127  0.5178
 1886W        W18147   7.681  16.110   0.913 -0.2003 -0.0578 -0.0890
 1887W        W18148   9.673   3.710   3.609  0.1752  0.1354 -0.1005
 1888W        W18149  14.625  16.656  14.681 -0.1820  0.0472  0.0389
 1889W        W18150   1.880   1.355  12.611  0.0874 -0.1166  0.0637
 1890W        W18151   9.732  11.523   0.901  0.0158  0.0480  0.1190
 1891W        W18152   5.246  12.965   2.971  0.1892  0.1557  0.0341
 1892W        W18153  10.709  17.652  11.003 -0.1747 -0.0755 -0.1366
 1893W        W18154   8.227  15.817  15.140 -0.1853  0.2864 -0.2896
 1894W        W18155   5.760   2.306   2.138  0.1465 -0.0674 -0.3221
 1895W        W18156  15.822   9.195   1.667 -0.0271 -0.2307 -0.0051
 1896W        W18157  13.525  16.079  10.994  0.0739  0.3063 -0.0825
 1897W        W18158   2.967   3.226  14.111  0.0314  0.1092  0.1092
 1898W        W18159  16.887  16.357  15.801  0.1118  0.2526 -0.0420
 1899W        W18160  10.088   8.344  11.050 -0.0851  0.0845 -0.1146
 1900W        W18161   5.838   9.443   0.907 -0.3187 -0.2729 -0.0897
 1901W        W18162  13.813   8.448  16.281  0.2528  0.1473 -0.2805
 1902W        W18163   4.386  17.554   0.230  0.4137 -0.2447  0.0575
 1903W        W18164   8.352   7.152   3.195  0.1143 -0.1861  0.0700
 1904W        W18165  16.059  15.283   4.911  0.0171  0.2957  0.0534
 1905W        W18166  18.027   4.756  12.507 -0.1159  0.2652 -0.2163
 1906W        W18167  14.434  17.605   5.482 -0.0300  0.1842 -0.1824
 1907W        W18168   1.818  12.320  15.958  0.3599 -0.1023  0.0063
 1908W        W18169  18.005  14.981  15.994 -0.0515 -0.2063  0.3646
 1909W        W18170   3.461   5.445  13.147  0.2761 -0.0496  0.1123
 1910W        W18171  16.889   0.171  16.083 -0.1028  0.0345 -0.0885
 1911W        W18172   6.221  10.016  10.038  0.1810 -0.1272 -0.2580
 1912W        W18173   8.717   7.049   1.161  0.3881  0.2568  0.2069
 1913W        W18174  14.316  10.887   5.391 -0.0457 -0.0078 -0.1584
 1914W        W18175   2.689   0.491  15.828  0.1580  0.2418  0.0757
 1915W        W18176   2.565  16.829  15.432  0.1514 -0.0986  0.1220
 1916W        W18177  17.682   2.344   6.605 -0.0125  0.0611 -0.1847
 1917W        W18178   8.437  16.858  12.342  0.1481  0.1270 -0.1425
 1918W        W18179   8.059  15.319   3.594  0.1491  0.0597 -0.1507
 1919W        W18180  13.637  16.641   2.243 -0.1337  0.1045 -0.0768
 1920W        W18181   3.974   3.091   2.793 -0.0409 -0.0583  0.2144
 1921W        W18182  15.250   6.715   4.048 -0.0586  0.2412  0.0076
 1922W        W18183   5.995   7.600  11.679  0.0309 -0.1789  0.4788
 1923W        W18184  18.368  10.047   4.525  0.0232  0.0702 -0.1421
 1924W        W18185   5.951  13.287   0.503  0.1201  0.0670  0.3670
 1925W        W18186   4.106  12.030   1.911 -0.5581 -0.2512  0.3105
 1926W        W18187   5.362   0.212  12.244 -0.1654  0.2122 -0.2755
 1927W        W18188   0.868  17.856  12.624  0.2367 -0.0347  0.1962
 1928W        W18189  14.554   4.377   5.023 -0.2635 -0.0823 -0.0876
 1929W        W18190  11.475  14.913   0.880  0.0538  0.0021  0.1208
 1930W        W18191   7.343   3.307  11.244 -0.1884 -0.1409  0.3960
 1931W        W18192  12.118  15.861  11.574 -0.0343 -0.0309  0.0738
 1932W        W18193   7.089   0.343  13.692 -0.1750  0.3213 -0.0436
 1933W        W18194   4.329   0.723  12.100 -0.1979 -0.0025 -0.4099
 1934W        W18195   4.149   1.610   4.588  0.2928  0.0216 -0.1889
 1935W        W18196   7.707   7.626   1.880  0.4179  0.0050 -0.0274
 1936W        W18197  14.164  16.630  14.234  0.1105 -0.1417 -0.0317
 1937W        W18198  14.780  11.640  11.451  0.2997  0.1028 -0.2116
 1938W        W18199  16.884  10.839  11.094  0.1528  0.0504  0.1784
 1939W        W18200  16.952  15.293  13.037 -0.1691 -0.4585  0.1759
 1940W        W18201   5.234   8.994  11.390 -0.3358  0.0628 -0.1067
 1941W        W18202   3.664   4.993   2.786 -0.4235 -0.1015  0.3902
 1942W        W18203  13.886   8.666   3.220  0.2511 -0.2887 -0.3625
 1943W        W18204  16.189  10.316   4.155 -0.3044 -0.0437  0.0387
 1944W        W18205  16.666   6.916  15.755 -0.3021 -0.1195 -0.3710
 1945W        W18206   1.185   4.254  13.206  0.0911 -0.2105 -0.1080
 1946W        W18207   0.622  16.158   1.359 -0.0442  0.0242 -0.2626
 1947W        W18208   7.749   4.995  14.302 -0.0531 -0.0276  0.2557
 1948W        W18209   5.690  16.429  11.225 -0.0787 -0.1016 -0.4558
 1949W        W18210  17.849   6.868   1.156 -0.1095 -0.0356  0.2388
 1950W        W18211   9.511  18.328  12.551 -0.0776 -0.0364  0.5093
 1951W        W18212   9.179   3.042   1.709 -0.0368 -0.3739 -0.0121
 1952W        W18213   5.327   2.888  14.699 -0.1748  0.2910  0.1116
 1953W        W18214  13.283  12.687  15.993  0.2360  0.2145  0.0368
 1954W        W18215  15.345  17.458  14.039  0.0025  0.1715  0.1665
 1955W        W18216   2.142  15.904  14.869  0.1981  0.2446 -0.1344
 1956W        W18217   4.195  11.973   5.180  0.1236  0.2379 -0.0825
 1957W        W18218   6.901   4.674   1.467 -0.0819 -0.0923  0.0499
 1958W        W18219   7.825  14.826  13.027 -0.5007 -0.0184  0.2003
 1959W        W18220  14.313   2.425  15.168  0.1637  0.1999 -0.0703
 1960W        W18221  10.195   6.322  10.990  0.0424  0.0044 -0.0362
 1961W        W18222   9.685   6.278  16.177  0.1675 -0.0609 -0.1744
 1962W        W18223   9.986   4.078   1.086  0.2332 -0.2743 -0.2008
 1963W        W18224   1.707   4.504   2.881  0.1696  0.2875  0.0671
 1964W        W18225   9.977   2.432   0.096 -0.1569  0.2403 -0.1839
 1965W        W18226   2.317   1.871   3.635 -0.0423  0.3850  0.0120
 1966W        W18227   0.797  11.984   3.908  0.1505 -0.1133 -0.0960
 1967W        W18228  18.131  14.098   3.466  0.0893 -0.1918  0.1517
 1968W        W18229   2.371   3.999  13.520 -0.0366  0.6554 -0.2187
 1969W        W18230  11.684  18.172   4.753  0.2401 -0.1708  0.1685
 1970W        W18231  17.657   9.819   5.697  0.0926 -0.0200 -0.2292
 1971W        W18232  17.523  10.303  15.497 -0.4757  0.2363  0.0549
 1972W        W18233   0.609   8.292  13.827  0.0381 -0.1422 -0.1042
 1973W        W18234  10.279   3.486  11.702 -0.0803 -0.1912  0.0415
 1974W        W18235   4.411   6.215   2.706 -0.3509  0.0887  0.3789
 1975W        W18236  15.454   4.032   3.311  0.2597 -0.0594 -0.0709
 1976W        W18237  10.452   1.106  13.488 -0.2250 -0.1838 -0.2177
 1977W        W18238  15.675  10.808   1.825  0.3163  0.2131 -0.2834
 1978W        W18239   2.561  14.177   4.347  0.1368  0.0910 -0.2720
 1979W        W18240   5.616   1.125  11.339  0.3548 -0.0983 -0.0888
 1980W        W18241   0.173   5.693   3.940  0.0664  0.0496 -0.1630
 1981W        W18242  16.971  13.394   3.796  0.0262  0.0599  0.2585
 1982W        W18243  11.260   3.792  12.082  0.0004 -0.2152 -0.4828
 1983W        W18244   8.821   5.439   2.988  0.2070  0.0052  0.1323
 1984W        W18245  17.181  15.712   1.787  0.1737  0.0566  0.3235
 1985W        W18246  14.182   6.237  15.948  0.1411 -0.1363 -0.1407
 1986W        W18247   9.282  12.490  12.506 -0.3226  0.0397 -0.1590
 1987W        W18248   5.919  12.760   3.457  0.2246  0.2755 -0.0855
 1988W        W18249   5.692  10.317   1.084 -0.3187  0.1276 -0.2975
 1989W        W18250   9.647   2.855   5.012 -0.0857  0.1390  0.2685
 1990W        W18251   8.655  12.288   3.741 -0.1703 -0.0206  0.2530
 1991W        W18252   7.619  10.102  15.704 -0.3041 -0.0534  0.0447
 1992W        W18253  13.260   5.914   3.082 -0.1689  0.1385  0.1923
 1993W        W18254  15.066   5.296   1.202 -0.3722 -0.4136 -0.1129
 1994W        W18255   0.005  14.538  15.862  0.0347 -0.2277  0.3920
 1995W        W18256  16.783   5.095  13.016 -0.0569  0.1737  0.3679
 1996W        W18257   9.984  12.729  10.925  0.1101  0.2696 -0.2367
 1997W        W18258  16.866   1.690  14.494  0.1103 -0.2024 -0.0904
 1998W        W18259   8.972  16.165  15.764  0.1214  0.2218  0.1016
 1999W        W18260   3.326   2.089   2.209 -0.0242  0.0030  0.0661
 2000W        W18261  11.789   6.314  11.916  0.1982 -0.2134 -0.0274
 2001W        W18262  14.631   0.703  16.040  0.0963  0.1920  0.1818
 2002W        W18263   4.951   5.013   3.218  0.0657  0.0840  0.0498
 2003W        W18264   7.225  13.785   2.835 -0.0799 -0.0010  0.4184
 2004W        W18265   2.714   6.205   5.607  0.1236 -0.0860 -0.0233
 2005W        W18266   0.579  17.572  15.248 -0.0685 -0.0962  0.0913
 2006W        W18267   8.754   9.730  13.305 -0.0730  0.0693  0.0744
 2007W        W18268  15.409   0.425   0.109 -0.2670  0.0090  0.0707
 2008W        W18269   2.190   6.956  13.374 -0.2037 -0.1017  0.1446
 2009W        W18270   5.060  13.554  12.714 -0.2233  0.1291  0.2801
 2010W        W18271   6.102  11.099  11.607 -0.0502 -0.2033  0.1534
 2011W        W18272  10.773  15.859   3.182  0.1368 -0.2900  0.1746
 2012W        W18273   6.017   7.880  12.108 -0.0169 -0.0431 -0.1629
 2013W        W18274   9.452   1.108   4.926  0.0668 -0.2623  0.1735
 2014W        W18275  14.082  18.378  15.841 -0.0243  0.0126  0.0541
 2015W        W18276  17.790   6.165   3.879  0.1221  0.0613  0.0369
 2016W        W18277  11.553  14.135  11.953  0.0284  0.0707  0.1812
 2017W        W18278   5.498  12.532   0.997 -0.1299 -0.0458  0.1617
 2018W        W18279   1.779  11.751  13.478 -0.1972  0.1850  0.2149
 2019W        W18280  17.985  10.672   6.244  0.1588  0.0954 -0.2895
 2020W        W18281   6.966   2.670   3.597 -0.0186  0.3113 -0.1039
 2021W        W18282   7.128  11.645   5.596  0.3045  0.0703  0.0434
 2022W        W18283   2.791   1.518  14.426  0.2156  0.0747  0.1638
 2023W        W18284  10.628   1.368   2.840  0.0002 -0.2577 -0.0090
 2024W        W18285   6.719  14.042  11.693  0.1512  0.3590 -0.2128
 2025W        W18286  10.393   2.900   1.666  0.2269  0.0151  0.0104
 2026W        W18287   8.252   3.290   3.382  0.0167  0.1158 -0.0671
 2027W        W18288  11.221  11.378  11.677 -0.0267 -0.2408  0.0270
 2028W        W18289   1.602  11.954   4.998 -0.2888 -0.1077 -0.2141
 2029W        W18290  15.096  15.436  16.165 -0.1671  0.0435 -0.0833
 2030W        W18291   8.785   0.565  10.987 -0.3405 -0.2790  0.3420
 2031W        W18292   1.791   2.443  13.805 -0.0136 -0.0740  0.1640
 2032W        W18293  13.849  16.248   2.011 -0.0132 -0.0389 -0.4966
 2033W        W18294  14.885  15.984  12.720  0.2384 -0.2061 -0.1099
 2034W        W18295   9.165  13.492  13.714 -0.0153  0.1942 -0.1289
 2035W        W18296   7.477   1.155   0.400 -0.1095  0.2236 -0.1010
 2036W        W18297  17.465  13.627   0.182 -0.1885 -0.1189 -0.0338
 2037W        W18298   3.842   6.157  12.754 -0.1479 -0.2331  0.2395
 2038W        W18299   7.456   6.403   1.478  0.0889 -0.0737  0.0966
 2039W        W18300   7.390  10.135  13.389  0.2587 -0.0714 -0.1290
 2040W        W18301  17.931  17.789   3.770 -0.0994  0.2382 -0.0786
 2041W        W18302   2.875   7.565  11.803  0.1590 -0.1812  0.2194
 2042W        W18303   1.281   2.318  12.609  0.0146 -0.1420  0.2197
 2043W        W18304  11.595  17.683   1.878  0.2050  0.0460  0.1569
 2044W        W18305  17.401  14.873  14.342  0.1598  0.2553  0.0311
 2045W        W18306   2.492  11.683  14.073  0.0421 -0.0063  0.1497
 2046W        W18307   4.600  17.577   0.667  0.0699 -0.0077 -0.3812
 2047W        W18308   9.195  11.167  13.831  0.0198  0.4163  0.1591
 2048W        W18309  14.052  10.036   3.951  0.0108  0.0891  0.0209
 2049W        W18310  17.217   0.921  13.370 -0.0686 -0.1122 -0.2529
 2050W        W18311  12.654  16.433  14.949  0.2521  0.0905 -0.0464
 2051W        W18312   7.775   2.501   0.446  0.2766  0.0264 -0.3675
 2052W        W18313   9.990   5.309  15.458 -0.0836  0.2233 -0.1071
 2053W        W18314  15.807  17.142  15.666 -0.0466 -0.0764 -0.2169
 2054W        W18315  11.886   3.485   0.568  0.1460  0.0421  0.0062
 2055W        W18316   1.154   6.629  13.507 -0.0531 -0.1111  0.0815
 2056W        W18317   0.564   8.497  11.301  0.1894  0.0536 -0.1725
 2057W        W18318   4.843   1.697   3.136 -0.2234 -0.0384 -0.1936
 2058W        W18319   1.683  14.789  15.922  0.1551  0.0837  0.0947
 2059W        W18320  10.717  14.555   2.278 -0.1075 -0.3112  0.1694
 2060W        W18321  10.631  13.953  14.583  0.1207 -0.0538 -0.0792
 2061W        W18322   2.563  16.309   3.847  0.1140  0.2235  0.1962
 2062W        W18323  14.182  11.246   3.438  0.3403 -0.2707  0.0773
 2063W        W18324   9.870   0.331   1.367  0.0835 -0.1903  0.2063
 2064W        W18325   0.223  10.794   1.377  0.3251 -0.0128  0.0984
 2065W        W18326  10.836   5.631   9.556 -0.1286 -0.1934  0.1705
 2066W        W18327   9.971  17.430  14.858  0.2666  0.0118  0.0541
 2067W        W18328   7.763  14.816   0.445  0.2949  0.0800  0.0616
 2068W        W18329   8.809   0.401   2.786 -0.3251  0.1321 -0.0608
 2069W        W18330  13.840  12.880  12.179  0.0064  0.1548 -0.3086
 2070W        W18331  12.825  13.015  12.096 -0.0396 -0.1293  0.1397
 2071W        W18332   0.988   0.267   0.114 -0.1134 -0.1515 -0.1077
 2072W        W18333  14.062  15.126  14.372  0.1393 -0.2930  0.2489
 2073W        W18334  16.776   4.194   4.625  0.0450 -0.3057 -0.1889
 2074W        W18335   0.528  17.876  14.772 -0.1109 -0.3509  0.0084
 2075W        W18336   3.240   5.072   2.965 -0.2312  0.0431 -0.1156
 2076W        W18337   5.722   7.898   3.506  0.1466 -0.4415 -0.1003
 2077W        W18338  17.822  12.212   4.823 -0.2319 -0.1620 -0.0413
 2078W        W18339  16.947  17.068   3.661  0.1387 -0.0488  0.1057
 2079W        W18340   9.361   5.478   1.187 -0.1284 -0.3271 -0.2269
 2080W        W18341   2.432  11.712   0.106 -0.0736  0.3652 -0.1128
 2081W        W18342   3.552  15.046  15.193 -0.0158 -0.2090  0.2329
 2082W        W18343  14.503  12.665  15.786  0.1725 -0.0176  0.0606
 2083W        W18344  11.469  13.953  13.403 -0.0717  0.0119  0.0490
 2084W        W18345   9.295  10.660  15.348  0.3086 -0.1032 -0.0534
 2085W        W18346  10.008   0.852   5.086  0.1169 -0.0072 -0.1244
 2086W        W18347   7.267   0.021   2.317 -0.1113  0.0972  0.1811
 2087W        W18348  17.352  12.651   0.475 -0.0626 -0.1182  0.0742
 2088W        W18349   9.093  18.006  11.665 -0.0044 -0.0022 -0.1266
 2089W        W18350  11.336  17.710  12.624  0.1393 -0.2604 -0.0153
 2090W        W18351   3.097  13.330  15.651 -0.0640  0.1652 -0.0718
 2091W        W18352  16.948   5.911   2.256  0.2294 -0.1250  0.0971
 2092W        W18353   3.969   9.511   5.168 -0.0214  0.1337 -0.1462
 2093W        W18354   4.496  12.025  16.023  0.0234  0.3507 -0.0392
 2094W        W18355   9.106   7.895  13.865  0.1592  0.2972 -0.0934
 2095W        W18356   6.759   3.811  15.381 -0.1723 -0.0292  0.2476
 2096W        W18357   1.995  14.170   0.696 -0.2873  0.0339  0.1290
 2097W        W18358  16.842   9.028   0.455 -0.1109  0.1676 -0.1132
 2098W        W18359  13.327  18.015   1.724 -0.3581 -0.0247 -0.1482
 2099W        W18360  14.436   6.920  13.209 -0.2361 -0.0460  0.2520
 2100W        W18361  16.830  11.423  12.466 -0.0653 -0.3067  0.0976
 2101W        W18362  15.656   1.831   4.666  0.2784  0.4071  0.2268
 2102W        W18363  11.759   6.532   0.104  0.1302 -0.0614 -0.0580
 2103W        W18364  13.348  16.410   6.372  0.0186  0.4372 -0.1370
 2104W        W18365   9.264   5.124   4.695  0.0717  0.3161 -0.0494
 2105W        W18366   6.955  14.575  12.778 -0.3539 -0.0492 -0.2000
 2106W        W18367  16.540   4.194  12.244  0.2914  0.0354  0.2768
 2107W        W18368  17.782  15.606  11.983 -0.3091  0.0125  0.2741
 2108W        W18369   8.767   1.853  13.724  0.0106  0.1283  0.0460
 2109W        W18370  16.686   7.809   4.653 -0.0301 -0.1640  0.2209
 2110W        W18371   3.023   4.334   2.950 -0.2032  0.0089 -0.0954
 2111W        W18372   6.697  15.029  14.579 -0.0834  0.1227  0.1698
 2112W        W18373   5.866  14.894  15.662 -0.1297  0.1542  0.1762
 2113W        W18374   6.321   3.732   5.004  0.2062 -0.0657  0.0451
 2114W        W18375  15.056   0.288   5.503 -0.4084  0.0025 -0.2436
 2115W        W18376  11.879  15.678   4.276 -0.1033  0.1980 -0.4748
 2116W        W18377   8.717  11.668  15.539  0.2684 -0.1371 -0.0504
 2117W        W18378  14.995  15.359  14.165  0.0402  0.0178  0.3134
 2118W        W18379   1.963   8.791   0.383  0.2401 -0.0345  0.1662
 2119W        W18380  12.791   1.790  13.204 -0.1565  0.2453  0.1531
 2120W        W18381   8.158   4.206   2.355 -0.1858 -0.2928 -0.0408
 2121W        W18382   9.111  16.074  14.120  0.1099 -0.1870  0.2790
 2122W        W18383  11.589  14.547   5.185  0.1609  0.2202 -0.1822
 2123W        W18384  13.395   7.079  13.323  0.0780 -0.0493 -0.4065
 2124W        W18385  12.830  14.796   1.428  0.0903 -0.0023 -0.0877
 2125W        W18386   4.105  15.229   1.809 -0.0621  0.1203  0.4546
 2126W        W18387   8.590  16.470  15.597  0.1818 -0.3910 -0.0146
 2127W        W18388   3.471  17.750   1.516  0.2489 -0.0906  0.0474
 2128W        W18389  10.675  12.557  13.397  0.0597 -0.0366  0.0361
 2129W        W18390  14.024   5.805   2.125 -0.2308  0.3099  0.4860
 2130W        W18391   4.534   1.341  14.333  0.0094 -0.1891  0.0242
 2131W        W18392   8.541   9.986   3.581 -0.1987 -0.1133 -0.1274
 2132W        W18393   7.396   2.026  15.585 -0.1493  0.1244 -0.2584
 2133W        W18394  16.549   6.815   3.733  0.1982 -0.1633  0.1911
 2134W        W18395  17.562   5.034   1.367  0.1456  0.2732 -0.1177
 2135W        W18396  17.525   4.231   2.842 -0.1968  0.2102 -0.2241
 2136W        W18397  15.981   7.737   3.099  0.0063  0.6782 -0.1075
 2137W        W18398  10.193  13.760  15.938 -0.1071  0.2171 -0.3542
 2138W        W18399   3.101   6.534  12.238  0.0062 -0.0213  0.0019
 2139W        W18400   9.339  18.277  13.864 -0.0093  0.1463 -0.2930
 2140W        W18401  17.131  17.533  13.600 -0.0686 -0.0868  0.1784
 2141W        W18402   6.807   8.084  11.496  0.0923 -0.1087 -0.0410
 2142W        W18403   9.433  10.491  11.666  0.0580  0.2076 -0.1504
 2143W        W18404  15.526   7.572   0.129 -0.2218 -0.0294  0.3408
 2144W        W18405   9.119   5.258   2.599 -0.1795  0.3234 -0.2750
 2145W        W18406  11.803   0.694  12.528 -0.1635 -0.2192  0.1674
 2146W        W18407   0.880   6.057   0.361 -0.2622 -0.1091 -0.1364
 2147W        W18408  11.624  13.809   1.653  0.0702 -0.1458  0.2969
 2148W        W18409   7.028   6.199   2.320 -0.1887 -0.1765 -0.0200
 2149W        W18410  12.879  15.736  16.263 -0.2646  0.1624  0.1235
 2150W        W18411   3.885   8.679  15.153 -0.5033  0.3582  0.1032
 2151W        W18412  11.909  17.874   5.101  0.0943 -0.1085 -0.0483
 2152W        W18413   0.899   4.328  15.130 -0.0425  0.0360  0.0783
 2153W        W18414  17.675  18.236  13.353  0.0239 -0.2727  0.0897
 2154W        W18415  11.071   3.724  13.688 -0.0873  0.0467 -0.0567
 2155W        W18416   4.208   3.985   2.200 -0.1303  0.0668 -0.0605
 2156W        W18417   2.885   0.698  14.541  0.1503  0.1185 -0.2877
 2157W        W18418   7.444   9.677   1.122  0.2354  0.3180  0.0514
 2158W        W18419   6.768  17.923   2.952 -0.0135 -0.0659 -0.1548
 2159W        W18420   9.865  15.153   3.346 -0.1321  0.1533 -0.0917
 2160W        W18421  18.001   1.052   3.511 -0.0795 -0.2176  0.1337
 2161W        W18422   4.438   4.414  14.376 -0.0027 -0.2289 -0.1744
 2162W        W18423   4.979   1.169   0.825  0.0941 -0.2019 -0.2192
 2163W        W18424  17.100   6.827   2.275 -0.1714 -0.3247 -0.4015
 2164W        W18425   7.834   5.561   4.000 -0.0605 -0.0076  0.0077
 2165W        W18426  10.226  11.816   0.867 -0.0320  0.0507 -0.4517
 2166W        W18427   9.269  18.183  12.092  0.2139 -0.1361 -0.0305
 2167W        W18428   9.001   8.445   2.350 -0.0607  0.0070 -0.3945
 2168W        W18429   5.091  16.611  11.890  0.1735  0.1055  0.1281
 2169W        W18430   4.543   2.273   1.405  0.1039 -0.0479  0.2242
 2170W        W18431  16.234   9.477  12.360 -0.0636 -0.0464 -0.1250
 2171W        W18432   9.942   2.590  15.524  0.1801 -0.0417 -0.2142
 2172W        W18433   8.022   6.394  15.044 -0.0669  0.0605  0.1920
 2173W        W18434  14.028   3.776   1.214  0.2564 -0.1684 -0.2638
 2174W        W18435  12.203   1.623   3.114 -0.0579 -0.0428  0.1980
 2175W        W18436  15.961  15.106  14.070 -0.1320  0.1144 -0.2099
 2176W        W18437  17.508   3.234  15.224 -0.3432  0.1274  0.0543
 2177W        W18438   1.249  18.172   3.298 -0.2762 -0.0998 -0.1138
 2178W        W18439  18.256  11.336  15.097  0.3444 -0.0740 -0.3975
 2179W        W18440   2.319  12.655  12.131  0.1842 -0.2803  0.1042
 2180W        W18441   8.523  11.839  13.826 -0.1777  0.2831 -0.1406
 2181W        W18442   1.850  11.492   4.864  0.1547 -0.1411  0.3432
 2182W        W18443  17.882   0.947   5.358 -0.1566 -0.1312  0.0404
 2183W        W18444  15.641   0.297   5.412  0.1781 -0.0020 -0.0317
 2184W        W18445  14.342   6.412  14.744 -0.0220  0.0664  0.1126
 2185W        W18446  16.883  12.179   4.368 -0.3019  0.0492 -0.1401
 2186W        W18447  17.222   0.149  13.527 -0.0554 -0.3799  0.2277
 2187W        W18448  14.655   4.304  13.355 -0.0545  0.0758  0.0236
 2188W        W18449  14.170   2.539   3.980 -0.1881 -0.0141 -0.0487
 2189W        W18450   4.869  17.959   0.839  0.1740 -0.2052 -0.5037
 2190W        W18451  13.969  16.688   3.371  0.2774  0.2329 -0.0238
 2191W        W18452  12.373  17.301   5.421  0.0000 -0.1508  0.0080
 2192W        W18453  14.455  18.092   5.378  0.0627  0.1869 -0.1951
 2193W        W18454  13.863  14.940  16.239 -0.1636  0.2176 -0.0698
 2194W        W18455   1.658  10.450   4.962  0.2757 -0.0140 -0.2448
 2195W        W18456  12.680   0.194   4.765 -0.1835  0.0295  0.2460
 2196W        W18457  16.653   6.365   3.402  0.0009  0.3053 -0.1586
 2197W        W18458  13.468   4.139  13.413  0.0888 -0.3903  0.4133
 2198W        W18459   7.309  12.097   4.886  0.0143  0.2550 -0.2585
 2199W        W18460  10.927  12.735   1.746  0.0475 -0.1608  0.2163
 2200W        W18461  10.824  10.148   2.208 -0.3207 -0.1534  0.1676
 2201W        W18462  12.879   1.921   3.575 -0.4164 -0.2664 -0.1282
 2202W        W18463  17.739  17.309  10.515  0.4303  0.1075  0.2120
 2203W        W18464  15.966  18.160   1.538 -0.1049  0.0935 -0.2760
 2204W        W18465  10.777   2.388   0.659 -0.1523  0.2390  0.2185
 2205W        W18466  15.550  10.880   1.377 -0.0831 -0.0319  0.0397
 2206W        W18467  10.718  12.134  11.242 -0.0021  0.1962  0.2159
 2207W        W18468   8.213   0.192   0.515 -0.3348  0.0157  0.2908
 2208W        W18469  15.720  12.594   1.595 -0.1657 -0.0674  0.0501
 2209W        W18470   7.147   2.172   4.436  0.3739  0.2040  0.0928
 2210W        W18471   6.092  12.978  15.916 -0.2826  0.1217  0.1848
 2211W        W18472  17.362   1.671  14.397 -0.1255  0.0499  0.2284
 2212W        W18473  17.018  16.422   1.070 -0.2605  0.3386  0.0152
 2213W        W18474   6.662  16.271   1.180 -0.1130 -0.1318  0.1504
 2214W        W18475   2.026  14.958  14.379  0.2026  0.2216  0.0796
 2215W        W18476   5.894  12.479  11.257 -0.2847  0.0457 -0.2491
 2216W        W18477  13.554   1.806   0.815 -0.0444  0.0351  0.4836
 2217W        W18478  14.704  11.383   2.712 -0.0342  0.4386 -0.2002
 2218W        W18479   2.606   2.336  14.469  0.0513  0.3081 -0.0695
 2219W        W18480  14.323  15.455   3.439 -0.0532 -0.0665  0.0782
 2220W        W18481   7.590  11.294  12.580 -0.2601  0.1194  0.4540
 2221W        W18482   4.885   9.732  14.656  0.0634 -0.0036 -0.2714
 2222W        W18483  10.629   4.757   3.694 -0.4378  0.0547  0.4093
 2223W        W18484   9.184   5.433  11.081 -0.0828 -0.0013  0.0083
 2224W        W18485  16.402  17.519   1.277 -0.0499  0.0789  0.1166
 2225W        W18486   0.435   2.176   0.421  0.1748  0.0966  0.0640
 2226W        W18487   8.520  14.080  14.014  0.0110  0.0947  0.0123
 2227W        W18488  14.295   9.382   1.136 -0.1700  0.0399  0.0961
 2228W        W18489   4.568   5.146   0.048 -0.2153  0.0470  0.2735
 2229W        W18490   8.436   5.764  13.572  0.0443  0.3789 -0.0200
 2230W        W18491   4.008   5.977  16.036 -0.2385  0.5678 -0.0985
 2231W        W18492   7.801   4.586   1.611 -0.1023 -0.0905  0.0286
 2232W        W18493  13.036  13.714   0.493 -0.0697 -0.0395  0.0654
 2233W        W18494   7.613   8.435  15.310  0.2146  0.0481 -0.0751
 2234W        W18495  12.059   0.157   2.843  0.1128  0.0361 -0.3089
 2235W        W18496  16.711  17.673   4.785  0.1344 -0.2432 -0.1085
 2236W        W18497   2.514   2.031  15.961 -0.2822 -0.1111  0.0345
 2237W        W18498  11.016  11.733  11.976 -0.2079 -0.0419 -0.2414
 2238W        W18499  17.219   9.449  15.553 -0.1210 -0.1479  0.0294
 2239W        W18500   5.180   5.931   0.946  0.2773  0.1371 -0.1839
 2240W        W18501  17.464   0.186  14.690  0.1671  0.2177 -0.0492
 2241W        W18502   5.670   5.908   4.254  0.0826  0.0095  0.0530
 2242W        W18503   9.671  15.432  11.132  0.0121  0.1873 -0.0531
 2243W        W18504   9.959  15.574   1.780  0.1135  0.1184  0.0299
 2244W        W18505  11.125   0.552  15.384 -0.1171 -0.0455 -0.0153
 2245W        W18506   9.395  17.047   1.395  0.1333  0.1794  0.2721
 2246W        W18507  16.631  18.130  12.251  0.0991 -0.2814 -0.1786
 2247W        W18508   3.065  13.592   1.274  0.3683 -0.1429 -0.0997
 2248W        W18509  12.215   8.498  16.131 -0.1272 -0.0729 -0.0688
 2249W        W18510  11.179  15.051   1.604  0.1892  0.1198 -0.0372
 2250W        W18511  17.086  14.531   3.527 -0.2738 -0.1167 -0.2172
 2251W        W18512   2.637  17.331   1.484  0.1161 -0.4162 -0.1951
 2252W        W18513  18.172   0.280   5.650  0.5636 -0.0360 -0.2946
 2253W        W18514  11.741   1.772  12.636 -0.0245  0.0279 -0.0952
 2254W        W18515   5.058   7.435   3.456 -0.0483 -0.0531 -0.0496
 2255W        W18516   9.063  17.877   2.729 -0.1360 -0.3919 -0.1210
 2256W        W18517   2.259  13.917   2.039 -0.0743  0.1552  0.1695
 2257W        W18518  15.933   6.246  15.117 -0.0121  0.0964 -0.0249
 2258W        W18519   6.808  15.771   1.689  0.0899 -0.0813  0.4380
 2259W        W18520   5.197  14.184   3.770  0.0445 -0.1188  0.1043
 2260W        W18521   4.594  16.368   2.551  0.2172 -0.0634  0.1592
 2261W        W18522   7.573   1.317   6.401 -0.0902  0.1045 -0.2625
 2262W        W18523  10.728  17.537   2.589 -0.1010 -0.1984 -0.1911
 2263W        W18524   5.298   9.723  14.380 -0.0858 -0.0502  0.2029
 2264W        W18525  15.574  14.329  11.236 -0.0347  0.1805  0.1072
 2265W        W18526  11.818  15.317   3.943 -0.2487 -0.3520 -0.2615
 2266W        W18527   3.777   1.224   0.669 -0.3708  0.1895  0.2004
 2267W        W18528  16.615   1.528  14.877  0.2336  0.1876  0.0903
 2268W        W18529   3.883  16.815   0.381  0.2298  0.1105  0.0025
 2269W        W18530  17.907  13.579   3.517 -0.0307 -0.0418 -0.0015
 2270W        W18531   2.026  12.411   2.930 -0.0046 -0.3064 -0.0503
 2271W        W18532   9.242   6.989  13.406 -0.2547 -0.0851 -0.0883
 2272W        W18533   7.843   3.570  14.167  0.1436  0.1287  0.2617
 2273W        W18534   4.354  16.869  10.727  0.0862  0.4459 -0.0344
 2274W        W18535  10.182  17.674   0.633  0.0030  0.0117 -0.1161
 2275W        W18536  15.120  17.391   3.667  0.1206  0.0130 -0.0720
 2276W        W18537  13.390  14.841  14.426 -0.2075  0.0397  0.0461
 2277W        W18538   6.476  15.786  11.074  0.2363 -0.1282 -0.3780
 2278W        W18539  14.990  15.143  11.225  0.3241  0.0977  0.3267
 2279W        W18540  14.229  17.152  14.079  0.0064  0.0467  0.0894
 2280W        W18541  10.057   4.256  15.427 -0.2910 -0.1586  0.1923
 2281W        W18542   5.502   0.218  16.112  0.1842  0.2004 -0.0257
 2282W        W18543  13.232   9.166   4.413 -0.0407  0.1325  0.0232
 2283W        W18544   6.822  14.444  13.529  0.4012 -0.2885  0.0305
 2284W        W18545   5.489  14.196   3.305 -0.1224 -0.1518 -0.1303
 2285W        W18546   4.951  11.295  12.518  0.1696 -0.1194 -0.1018
 2286W        W18547   7.828   7.291   4.709 -0.0953  0.2161  0.0281
 2287W        W18548   1.953   8.713  11.462 -0.0263  0.0609  0.2316
 2288W        W18549   2.336  17.790  13.260 -0.1115 -0.0893 -0.0545
 2289W        W18550  15.008   5.101  15.366 -0.2205  0.1722 -0.1383
 2290W        W18551   5.817   0.552   1.928  0.2283  0.0124 -0.2681
 2291W        W18552  11.657   1.232  13.252  0.4751 -0.1667 -0.2026
 2292W        W18553   1.696   6.040   5.096 -0.0724 -0.0362  0.1240
 2293W        W18554   9.090  12.124   5.549 -0.2274  0.0451  0.1556
 2294W        W18555  12.089  10.103   5.635  0.3016 -0.2034 -0.0198
 2295W        W18556  15.545  13.247  15.011  0.2046 -0.3256  0.3391
 2296W        W18557   8.968   8.227   1.699  0.0935  0.1364  0.3418
 2297W        W18558  14.684  10.897  12.056 -0.5199  0.1191  0.0186
 2298W        W18559  14.337  16.845  15.084 -0.0033 -0.0498  0.1417
 2299W        W18560   4.506  14.989   0.014  0.3294  0.0049 -0.1435
 2300W        W18561  13.470   1.446   3.835  0.0914 -0.0504  0.3363
 2301W        W18562  13.249   0.964  13.607  0.1974 -0.1116 -0.1658
 2302W        W18563  12.763  16.077  11.577  0.1111 -0.2441 -0.1469
 2303W        W18564   2.003  15.705  12.702 -0.2408  0.1515  0.2040
 2304W        W18565   3.667  13.923  16.039 -0.3252 -0.0080 -0.0655
 2305W        W18566  10.670   1.945   4.918 -0.0488 -0.3052  0.0420
 2306W        W18567   8.664  15.579  15.310 -0.1472 -0.0847  0.3032
 2307W        W18568   5.685  10.479  15.717 -0.3032  0.3055 -0.2579
 2308W        W18569   6.952   3.860  14.765 -0.2855 -0.4367  0.1238
 2309W        W18570  15.000   9.508  14.282  0.0657  0.1105 -0.1296
 2310W        W18571   2.051  17.643  12.873  0.0360 -0.0725  0.0399
 2311W        W18572  14.747   1.568  14.845  0.0693 -0.3837  0.1383
 2312W        W18573  10.582  13.186   0.369 -0.0163  0.0481 -0.1883
 2313W        W18574  17.114   3.898   3.918  0.3120  0.0669 -0.1574
 2314W        W18575   9.985  13.792   4.106 -0.2761  0.3652  0.0996
 2315W        W18576  16.460  16.791   3.730  0.1224  0.0598  0.2878
 2316W        W18577  12.349   3.063   3.176 -0.1788 -0.0519 -0.0318
 2317W        W18578   7.073   5.571   2.447  0.0575 -0.1799  0.3898
 2318W        W18579  16.109   7.251  15.885 -0.2290  0.2641  0.0090
 2319W        W18580   6.786  14.712   1.505 -0.1454 -0.1516 -0.0518
 2320W        W18581  11.882  10.445  15.725  0.0064  0.4572 -0.1369
 2321W        W18582   9.573   7.473   2.826 -0.1365  0.3020  0.3121
 2322W        W18583  15.423   9.361  12.070 -0.1683 -0.2312 -0.1411
 2323W        W18584   2.517   6.220  15.817 -0.0527  0.1858 -0.1467
 2324W        W18585  13.400   1.286  14.242  0.2469  0.0383  0.1653
 2325W        W18586  18.336   9.491   4.623 -0.3043 -0.1983 -0.0954
 2326W        W18587   0.645  18.182  12.279 -0.0600  0.1701 -0.3287
 2327W        W18588  14.664   2.601  12.515 -0.0965  0.0899 -0.1441
 2328W        W18589   7.982   2.259   2.879  0.1158 -0.0474 -0.1053
 2329W        W18590  11.375  13.296  15.073  0.0471  0.1557  0.0002
 2330W        W18591   1.060  15.717  12.351 -0.1537  0.0807 -0.4671
 2331W        W18592  14.201   6.116  12.709 -0.2520 -0.0447 -0.3269
 2332W        W18593   0.620  15.390   0.087  0.0637  0.3243  0.1276
 2333W        W18594   5.765   8.028   5.287 -0.0337 -0.1795  0.1907
 2334W        W18595  11.353   0.653   2.462 -0.0762  0.1308  0.3104
 2335W        W18596  15.822   7.369   4.220  0.2296 -0.2715  0.3978
 2336W        W18597  14.410  17.665  12.951 -0.1067  0.2458  0.2422
 2337W        W18598   2.963   8.498   1.275  0.0362  0.1190 -0.0151
 2338W        W18599   5.174  12.496   2.088  0.0821  0.3148  0.0963
 2339W        W18600   0.797  17.670   1.677 -0.1498  0.2270 -0.1823
 2340W        W18601  11.347   6.321   0.315  0.1595 -0.2148  0.0224
 2341W        W18602   3.120   8.911   0.505  0.1415 -0.1014 -0.1751
 2342W        W18603   9.095   5.213  15.633 -0.0673  0.0587 -0.1684
 2343W        W18604   1.868   3.462   1.130  0.2122 -0.1504 -0.1531
 2344W        W18605  16.622   6.554   1.595 -0.3135 -0.2974 -0.2171
 2345W        W18606  14.261   7.766   3.244  0.2223  0.0099  0.0943
 2346W        W18607  12.831   4.309  16.221  0.3028  0.1515  0.1529
 2347W        W18608   9.400   6.706   4.641  0.5145 -0.4220  0.0644
 2348W        W18609   6.727  15.710  15.566  0.2349  0.2272 -0.2429
 2349W        W18610   9.431   9.876   5.687 -0.1600 -0.0083 -0.0963
 2350W        W18611  14.430  10.792   2.495 -0.0709  0.2375  0.0246
 2351W        W18612   4.550  16.420   3.091 -0.0775  0.2952 -0.0378
 2352W        W18613  15.827  14.601   4.601 -0.2172 -0.4048 -0.0349
 2353W        W18614   0.822  13.694   4.874 -0.1252  0.0909 -0.3540
 2354W        W18615   5.321  11.443  15.812  0.1236 -0.0601  0.2310
 2355W        W18616   7.263  14.232   0.640  0.3150  0.1717  0.0890
 2356W        W18617   8.156   9.960  14.644  0.1216  0.1005 -0.0136
 2357W        W18618  12.558   3.883  15.449  0.4187 -0.3801  0.1723
 2358W        W18619   7.218   3.896  13.847 -0.2277 -0.1379  0.0054
 2359W        W18620   8.626  13.431   5.118 -0.1038  0.2093  0.3021
 2360W        W18621   0.008   7.891  13.621  0.1454  0.2556 -0.0885
 2361W        W18622  17.271  16.531   1.855  0.0247  0.0661 -0.1371
 2362W        W18623  10.345   8.605  14.581 -0.0080  0.0294  0.2806
 2363W        W18624  16.000  10.542  13.254 -0.0874 -0.0156  0.2813
 2364W        W18625   7.881   0.486  13.953 -0.3642 -0.1201  0.2026
 2365W        W18626  15.697  16.600  13.027 -0.0803  0.2686  0.1273
 2366W        W18627  11.150  16.387   1.232  0.1502  0.1375 -0.0635
 2367W        W18628   7.546   7.090  13.638 -0.0860 -0.0271  0.3122
 2368W        W18629   9.406  13.134  12.173  0.0524  0.1282 -0.2362
 2369W        W18630   3.417  14.085  14.506  0.1343 -0.3974  0.1257
 2370W        W18631   9.289  13.139  11.053  0.1044 -0.2717 -0.1311
 2371W        W18632   7.869   9.649  14.967  0.0302  0.2126 -0.0750
 2372W        W18633   1.743   4.403  14.564  0.0893 -0.1315 -0.3982
 2373W        W18634   9.811   5.007  12.675 -0.1206  0.1142 -0.0622
 2374W        W18635   6.431   7.188   2.093  0.1395 -0.0188  0.2250
 2375W        W18636   9.618   8.503   1.481 -0.0182 -0.3760 -0.1164
 2376W        W18637  14.347   9.218  12.713 -0.2754 -0.0442  0.2211
 2377W        W18638   3.013   9.142   2.524  0.0810  0.5006 -0.0139
 2378W        W18639  17.989   7.669  14.486 -0.0426 -0.2744  0.2260
 2379W        W18640   1.640   9.089  13.091 -0.2747 -0.2229 -0.2592
 2380W        W18641  17.342   1.034  11.509  0.0292  0.0493 -0.1120
 2381W        W18642  16.546  15.998  16.212 -0.1235 -0.0550  0.0513
 2382W        W18643   0.592   4.029  14.885  0.0780 -0.1310  0.1778
 2383W        W18644  13.675  16.714  12.917 -0.0297  0.1709 -0.2618
 2384W        W18645  11.843  10.306  10.024  0.1146 -0.0947 -0.2606
 2385W        W18646   1.617  16.431   0.808  0.1632  0.2357 -0.2194
 2386W        W18647   3.627  16.937  12.366  0.0736 -0.3134 -0.0293
 2387W        W18648   2.444   1.898  14.762 -0.0237 -0.3532  0.1415
 2388W        W18649  10.992   2.549   2.461 -0.6490  0.2764 -0.3900
 2389W        W18650   6.729  11.117   4.944 -0.0127 -0.3126 -0.2785
 2390W        W18651   8.386  11.463  11.967  0.2239 -0.0066 -0.1787
 2391W        W18652   5.786  13.851  13.069 -0.2043 -0.0868  0.3229
 2392W        W18653  11.571  11.826   1.986  0.3010 -0.1080  0.0936
 2393W        W18654  15.945  14.108  11.552 -0.2105  0.0004 -0.1296
 2394W        W18655   0.481   8.616  14.231  0.0031  0.2181 -0.1210
 2395W        W18656   3.144   4.782  14.983 -0.0630  0.1396  0.0693
 2396W        W18657   3.995  13.273   2.708  0.1016 -0.1421  0.1075
 2397W        W18658  14.085   2.263   3.243 -0.1084  0.1327  0.0613
 2398W        W18659   9.631   8.159   4.678  0.0843 -0.1203 -0.2074
 2399W        W18660   3.460   2.590  15.639  0.1267 -0.0420  0.0915
 2400W        W18661   1.614  15.876  14.536  0.0976  0.0863 -0.0127
 2401W        W18662  11.326  14.427   0.983 -0.1253  0.2208  0.2099
 2402W        W18663  13.646   8.508   0.461 -0.0445  0.0281 -0.0776
 2403W        W18664   8.897   8.486   1.215  0.0290  0.0023  0.1075
 2404W        W18665   9.437  17.241   4.660 -0.0616 -0.0072 -0.1416
 2405W        W18666   1.932   5.045   5.152 -0.3131 -0.2536 -0.0054
 2406W        W18667   0.395  12.008   3.148  0.0100  0.0261 -0.0294
 2407W        W18668   8.571   5.920   2.781  0.2002 -0.1111  0.0939
 2408W        W18669  16.793  11.743  11.335  0.2436 -0.0531  0.2198
 2409W        W18670   3.725  17.455   0.885  0.5064 -0.0139  0.0384
 2410W        W18671  12.197  11.582   4.337 -0.5574  0.0789 -0.0048
 2411W        W18672  11.319  17.317   5.740  0.0618  0.0429  0.0414
 2412W        W18673  11.574   4.459   0.689  0.0211 -0.2269  0.1249
 2413W        W18674   2.858  11.602   5.159 -0.2568  0.0327  0.2437
 2414W        W18675  16.540  18.115   5.542  0.0595  0.2360 -0.0355
 2415W        W18676   3.060  11.866   3.234 -0.1556  0.1009  0.1011
 2416W        W18677  16.036  11.109  12.027 -0.1110 -0.0657 -0.2444
 2417W        W18678  14.455   7.142  14.367 -0.1646 -0.1375  0.0469
 2418W        W18679  16.267  17.614  15.399 -0.2513  0.0782  0.0949
 2419W        W18680   3.066   8.691  13.574 -0.0977  0.2208  0.0145
 2420W        W18681  17.349   8.066  11.594 -0.0699 -0.0511 -0.2034
 2421W        W18682  12.036   7.515  11.263 -0.0374  0.0249  0.3831
 2422W        W18683  17.119  14.119  13.708  0.0747 -0.0905 -0.5357
 2423W        W18684  11.742  12.432  12.372  0.1100  0.3303 -0.1201
 2424W        W18685   9.000   6.542  13.508 -0.4362  0.1739 -0.2442
 2425W        W18686   5.583   6.406  14.786  0.1785  0.0480 -0.0746
 2426W        W18687   5.247   1.523  16.266  0.1046  0.1427 -0.1611
 2427W        W18688   9.195  14.908   1.673 -0.0894  0.1014 -0.0095
 2428W        W18689   0.127  14.034   0.616  0.2048 -0.1064 -0.0611
 2429W        W18690   1.559  16.131  13.229 -0.1788 -0.0839 -0.1103
 2430W        W18691  18.085   1.490  12.920 -0.1136  0.1582 -0.1707
 2431W        W18692   9.005   8.213  15.555  0.0965  0.1931  0.0073
 2432W        W18693   2.065   8.872   4.527  0.1825 -0.1150 -0.1255
 2433W        W18694   3.857   6.346  13.323 -0.0061  0.2530 -0.0099
 2434W        W18695  13.658   0.032   4.431  0.0068  0.0423  0.0486
 2435W        W18696   1.691   7.190  12.990  0.1234  0.3483  0.0276
 2436W        W18697  17.090   1.678  15.900  0.1541  0.2497 -0.0980
 2437W        W18698   2.019   4.587   1.711  0.1425  0.0429 -0.0568
 2438W        W18699  13.193   3.022   5.119 -0.0135 -0.0034 -0.1509
 2439W        W18700   9.356  15.673  12.596 -0.1715 -0.0569 -0.0961
 2440W        W18701  10.440   3.124   0.274 -0.0036  0.1706 -0.0508
 2441W        W18702  16.485   9.148   5.228 -0.1530  0.1362 -0.0084
 2442W        W18703   6.232  13.443  14.810 -0.2064  0.1731  0.0016
 2443W        W18704  14.139   4.524   3.251 -0.0426  0.3326 -0.0781
 2444W        W18705  12.823  17.810   1.559 -0.0479  0.0382 -0.3135
 2445W        W18706   9.357  11.885  11.985 -0.0178  0.1774  0.1285
 2446W        W18707   3.695   0.837   3.469 -0.1385  0.0072  0.0072
 2447W        W18708  14.265  14.102   5.831  0.3156  0.1045 -0.0682
 2448W        W18709  13.307   7.883   2.964 -0.2725 -0.3760 -0.0019
 2449W        W18710  11.773  16.741  15.011 -0.1352  0.1329 -0.1460
 2450W        W18711   4.539  12.831   0.639 -0.2474 -0.0387 -0.3739
 2451W        W18712   4.745   2.434  12.373 -0.1361  0.0445  0.2144
 2452W        W18713  18.083   7.681   3.220  0.1882 -0.0976 -0.0441
 2453W        W18714   0.321  14.622  10.499 -0.0648 -0.0702  0.1331
 2454W        W18715  10.137  11.286   0.973 -0.1946  0.0266 -0.0723
 2455W        W18716   6.814   7.564   1.274  0.0172 -0.1513  0.0430
 2456W        W18717   0.014   5.972  13.046 -0.0519  0.0555 -0.1699
 2457W        W18718   9.224  11.579   3.571 -0.2216 -0.2021 -0.0379
 2458W        W18719   7.659   3.694   1.197 -0.0579 -0.0350  0.0511
 2459W        W18720  14.578   1.557   1.237 -0.3227 -0.0702 -0.0689
 2460W        W18721   9.143   7.000  14.207 -0.2188  0.2185 -0.0394
 2461W        W18722  13.186   3.938  16.276 -0.1173  0.4156 -0.1328
 2462W        W18723   3.703   0.554   2.027  0.2983 -0.1527 -0.2834
 2463W        W18724  15.106   6.445  14.989  0.1334 -0.0133  0.0379
 2464W        W18725  15.143   5.138   3.248  0.0936  0.0876  0.0383
 2465W        W18726   0.985  13.060   4.020 -0.3564 -0.0090 -0.2343
 2466W        W18727  16.654  14.603   4.978  0.2098  0.1388 -0.0760
 2467W        W18728   1.719   9.139   4.765 -0.0772  0.3985 -0.2430
 2468W        W18729  15.334   2.175  11.914 -0.0415  0.2497  0.1595
 2469W        W18730   0.581   7.212  11.907  0.0642 -0.0237  0.0290
 2470W        W18731  13.679   3.170  13.638  0.2745  0.1320 -0.4010
 2471W        W18732  13.804  16.219  11.991 -0.1017 -0.1904  0.1190
 2472W        W18733   5.142   4.837  15.003  0.3159 -0.1872 -0.3450
 2473W        W18734   5.953   2.454  16.088  0.0261 -0.1041 -0.1944
 2474W        W18735   0.112   6.446  13.154 -0.4746  0.2850 -0.1530
 2475W        W18736  14.137   9.124   3.172 -0.0815  0.1155  0.1840
 2476W        W18737  16.542  18.233   0.767 -0.3563  0.1490  0.1695
 2477W        W18738  15.205   6.821   0.708  0.2577 -0.2523  0.1391
 2478W        W18739   6.549  14.350   0.489  0.0889 -0.1781 -0.1767
 2479W        W18740   1.314   7.747  11.434 -0.1454 -0.1192  0.3090
 2480W        W18741  10.281  10.783  15.595  0.1835 -0.0100 -0.0557
 2481W        W18742  11.047  11.730   4.404  0.1060  0.1895 -0.0605
 2482W        W18743   2.338  10.416   4.343 -0.0031  0.1060  0.1153
 2483W        W18744   4.866   3.389   4.879 -0.0402  0.0708 -0.1202
 2484W        W18745   1.954  12.592   1.882  0.1094 -0.0499 -0.2411
 2485W        W18746  11.538  12.540  12.868 -0.0765 -0.2916  0.0794
 2486W        W18747   4.894  15.652   0.559  0.2084  0.1447 -0.2012
 2487W        W18748  10.671  13.349   3.296 -0.1417 -0.3041  0.1812
 2488W        W18749   3.594  14.133   2.892  0.2672 -0.1889  0.2237
 2489W        W18750   8.760  15.670  14.167 -0.0588  0.1489 -0.0590
 2490W        W18751  17.167  11.497   1.838 -0.1585  0.2601 -0.0745
 2491W        W18752  17.615  13.046  15.680 -0.0629  0.1726  0.2067
 2492W        W18753   6.570  15.335   1.008  0.0153  0.1307 -0.0525
 2493W        W18754  13.410  13.708   4.346 -0.2668  0.1662 -0.1113
 2494W        W18755   1.683   9.355  14.660  0.0404 -0.0103  0.1950
 2495W        W18756   9.214   4.496  11.495 -0.3160 -0.1682 -0.1811
 2496W        W18757   2.211  11.063   1.938  0.2307  0.3096 -0.1383
 2497W        W18758   3.127  11.087   5.051  0.0034  0.2478 -0.0787
 2498W        W18759  11.183  15.814   4.919 -0.0066  0.2870  0.0896
 2499W        W18760   6.332   9.109   4.011  0.1095  0.2210 -0.1927
 2500W        W18761   6.943   1.526  11.741 -0.0964 -0.1197 -0.1414
 2501W        W18762  13.101  12.415  13.689 -0.0203  0.0085 -0.1363
 2502W        W18763   5.837  10.118   2.598  0.0274 -0.2171 -0.0626
 2503W        W18764   0.218   5.946   0.599 -0.1817  0.0500 -0.1727
 2504W        W18765   0.508  14.744  14.772 -0.3944  0.0293  0.1975
 2505W        W18766  13.439  10.253  14.949  0.1358 -0.2471 -0.1612
 2506W        W18767   7.377  17.133  11.431 -0.1817  0.1689  0.1089
 2507W        W18768  13.503  13.589   3.331  0.2584 -0.0409  0.0133
 2508W        W18769   1.794   3.674  13.910 -0.1741 -0.2867 -0.1472
 2509W        W18770  18.020   2.040   4.876 -0.1213  0.0201 -0.0280
 2510W        W18771   9.992  15.279   3.810 -0.0044  0.0109 -0.1181
 2511W        W18772   0.898  17.547  15.833  0.0083 -0.2074 -0.2546
 2512W        W18773  18.370  16.584   0.859  0.4195 -0.2739 -0.0133
 2513W        W18774  14.674   7.985   4.438 -0.0627  0.3554 -0.1501
 2514W        W18775   3.186   9.999  14.707  0.0279  0.0405 -0.0290
 2515W        W18776  17.110   8.661   0.600  0.0542 -0.0720  0.0581
 2516W        W18777   0.538   5.220   2.532  0.1137  0.2089 -0.2552
 2517W        W18778  11.683   7.400  12.977  0.2583  0.4309 -0.3052
 2518W        W18779  15.546  16.775   1.922 -0.1668 -0.3053  0.0554
 2519W        W18780   6.640   2.378   3.954  0.1135 -0.0925 -0.3333
 2520W        W18781   0.649  15.606   4.834  0.2474  0.1905 -0.0696
 2521W        W18782  10.704   1.932   1.978  0.0458  0.0340 -0.0702
 2522W        W18783   6.278   1.380  10.433 -0.1750 -0.0330 -0.0194
 2523W        W18784  10.099   7.698   3.915  0.1028 -0.0151 -0.0271
 2524W        W18785   7.785  12.605   3.017  0.2728 -0.0505  0.0470
 2525W        W18786  15.507  10.299   5.067 -0.0361  0.3658 -0.1865
 2526W        W18787   3.323  15.737   1.337  0.2966  0.1016  0.3471
 2527W        W18788   6.058   6.844  12.629 -0.0524  0.1281 -0.2894
 2528W        W18789  16.590  12.406   3.176 -0.1217  0.1475 -0.2157
 2529W        W18790  11.704  10.562  11.533  0.0436  0.2419  0.3788
 2530W        W18791   2.622  10.783   5.072  0.0538  0.0723  0.1782
 2531W        W18792   2.064  13.077  16.191  0.0358  0.1027  0.0507
 2532W        W18793   6.468   5.544  11.584 -0.1625  0.0280  0.0684
 2533W        W18794  10.799   9.689   0.522 -0.4381  0.0293 -0.0648
 2534W        W18795   8.656  11.154   2.392  0.0774 -0.0643  0.3630
 2535W        W18796  12.705   7.755  13.268  0.2771 -0.0829  0.2646
 2536W        W18797  16.248  14.249   3.128 -0.0327 -0.1463  0.2837
 2537W        W18798   8.931   5.293  15.091 -0.0491  0.0061 -0.2116
 2538W        W18799  11.926  11.114   3.436  0.0061  0.2148  0.1359
 2539W        W18800  18.279   1.143   0.911  0.0042 -0.1059 -0.1560
 2540W        W18801  16.927   0.470  13.280 -0.1555 -0.3468 -0.1999
 2541W        W18802   8.432   1.363   3.781  0.2286 -0.2386 -0.1796
 2542W        W18803  11.695   0.212  12.679 -0.3169 -0.2217  0.1183
 2543W        W18804  16.226  14.960  11.721  0.1225  0.1322  0.0063
 2544W        W18805   7.338   5.898  13.349 -0.4341 -0.0506 -0.2677
 2545W        W18806   2.858   1.705   1.733 -0.3399  0.2970 -0.3449
 2546W        W18807  12.709   6.457  13.555  0.2189 -0.0827 -0.1940
 2547W        W18808   4.218   4.095   4.215  0.3495  0.0756  0.2294
 2548W        W18809   9.579   3.843   1.330  0.2370 -0.1550  0.3752
 2549W        W18810  10.834  15.319  11.594  0.4940  0.1059  0.1390
 2550W        W18811   2.257   1.284   2.818 -0.0670  0.2274  0.1997
 2551W        W18812   5.444   8.411   0.613 -0.0980 -0.0392 -0.0340
 2552W        W18813   9.282  13.138   1.899  0.0242  0.0854 -0.0039
 2553W        W18814   7.468   2.219  11.211 -0.1238 -0.4643  0.0112
 2554W        W18815  14.822  10.506   3.126 -0.1147  0.1536  0.3224
 2555W        W18816  15.813  13.637  16.188 -0.0636 -0.0482 -0.0444
 2556W        W18817  15.324   8.311   4.000 -0.1713  0.2794 -0.3986
 2557W        W18818   5.063   3.157   4.072  0.0478  0.1218  0.0631
 2558W        W18819   0.682  11.706  11.503 -0.1053 -0.3128  0.1084
 2559W        W18820   5.394   7.365  14.315  0.2330 -0.0678  0.0299
 2560W        W18821   2.517   8.887   2.917 -0.0793 -0.1866 -0.1820
 2561W        W18822  10.765   3.215  11.589 -0.0705  0.0099 -0.1593
 2562W        W18823   5.271   2.547  12.281  0.3679  0.2534  0.3404
 2563W        W18824   2.476   5.626   1.118  0.2861 -0.3749  0.0513
 2564W        W18825   0.133  13.768   2.334  0.1130  0.2430 -0.1718
 2565W        W18826  11.267   1.334  11.998 -0.0799 -0.0408 -0.1013
 2566W        W18827   7.571   3.270   3.101  0.0380  0.0565  0.0846
 2567W        W18828   5.401   4.652  11.807 -0.0938  0.1154 -0.1955
 2568W        W18829   7.624   1.220  15.913 -0.0568  0.2688 -0.0687
 2569W        W18830  13.457  17.509   3.309 -0.1959  0.0402  0.0782
 2570W        W18831   8.956   0.428  11.479  0.0662  0.1334 -0.2727
 2571W        W18832  15.694   3.641   5.244 -0.0051  0.0806  0.2713
 2572W        W18833   3.678   1.361  11.940 -0.0042  0.2381  0.2114
 2573W        W18834   1.716  13.616  13.174 -0.1548 -0.0022 -0.0939
 2574W        W18835   3.937   8.464  13.205 -0.0652 -0.1647 -0.0564
 2575W        W18836   4.048  18.224  12.571  0.0131  0.0367  0.0284
 2576W        W18837   6.263  11.974   4.729 -0.1775 -0.0346  0.0109
 2577W        W18838  15.560  14.466   6.021 -0.0136 -0.1877 -0.2449
 2578W        W18839  17.146   3.731  13.753  0.1345  0.3531  0.2034
 2579W        W18840  16.666  13.916   5.805  0.4319  0.1507 -0.2223
 2580W        W18841  13.746   5.205   0.054  0.0700 -0.3081  0.3189
 2581W        W18842   4.556   6.091  12.298 -0.2364  0.1258 -0.0398
 2582W        W18843  16.983  14.184   4.993  0.0952 -0.1234  0.1396
 2583W        W18844  11.055   1.474   2.613 -0.0266 -0.0762  0.0375
 2584W        W18845  11.552   5.789  13.109  0.1530 -0.0829 -0.1230
 2585W        W18846  14.740  12.821   5.082  0.0459  0.0042  0.1597
 2586W        W18847   4.744   0.473   5.222 -0.0841  0.1019 -0.2331
 2587W        W18848   9.835   8.526  13.716  0.1164  0.1924  0.0826
 2588W        W18849   4.546  10.226  13.616 -0.0175  0.0015 -0.0467
 2589W        W18850   7.331   7.722  14.748  0.0904 -0.2643 -0.1333
 2590W        W18851   2.476   6.820   2.373 -0.0171  0.0905  0.2229
 2591W        W18852  11.588  11.115  12.163 -0.0717 -0.3257  0.2359
 2592W        W18853  17.062  16.641   2.875  0.1074 -0.0625  0.2522
 2593W        W18854   3.132  10.473   0.933  0.0550  0.2259  0.0631
 2594W        W18855  12.342   5.440  11.716 -0.3453 -0.0698  0.1633
 2595W        W18856   5.388   5.202   0.338 -0.2413  0.1794  0.1531
 2596W        W18857  16.033   3.215   3.095  0.1495  0.0430  0.1051
 2597W        W18858   7.352   3.950   0.634 -0.1948 -0.1225  0.3613
 2598W        W18859   0.133  13.216  12.816  0.2159  0.1291 -0.0693
 2599W        W18860   5.120  11.630  13.949  0.2310 -0.2464  0.0633
 2600W        W18861   6.590   5.895  13.795 -0.2174 -0.3064 -0.1268
 2601W        W18862   2.008   7.245  14.552 -0.0264  0.1633  0.2189
 2602W        W18863   5.225   4.180  12.633 -0.2369 -0.2425  0.0184
 2603W        W18864   1.873   4.712   1.217  0.0699  0.1258  0.0655
 2604W        W18865  17.356   0.654  11.872 -0.0790  0.3064 -0.0854
 2605W        W18866  13.543  10.100   4.399  0.2079 -0.0804 -0.0970
 2606W        W18867  13.004   4.370  13.513  0.0259 -0.0306  0.1050
 2607W        W18868  10.311   1.600  12.219 -0.0448 -0.3504  0.1977
 2608W        W18869   9.419   8.581  11.283  0.1315 -0.1707 -0.1175
 2609W        W18870   5.734   8.645   1.110  0.1301  0.1478 -0.0729
 2610W        W18871   0.805   6.508   0.136  0.4625  0.0283 -0.1344
 2611W        W18872   0.720  12.858   0.196 -0.0548 -0.2807  0.1593
 2612W        W18873  16.854   8.334  11.657 -0.5777 -0.2259  0.1235
 2613W        W18874   4.587  18.343  12.337  0.1730 -0.1476  0.1086
 2614W        W18875   0.526   9.372   5.854 -0.2713 -0.0959  0.2234
 2615W        W18876   5.881  12.303   4.471 -0.0141 -0.3314 -0.0226
 2616W        W18877   5.922  16.070   0.703  0.1467  0.0365 -0.0245
 2617W        W18878   7.186   4.020   2.502 -0.1751 -0.0689 -0.0871
 2618W        W18879   6.847  10.568   2.552 -0.2259  0.0458  0.0403
 2619W        W18880   7.700  12.470   1.785 -0.2327  0.0708  0.2138
 2620W        W18881  17.004   6.065  13.077  0.1278 -0.1718 -0.2952
 2621W        W18882   7.646   8.522   2.793  0.2027 -0.0985 -0.2736
 2622W        W18883  13.407  15.634   0.070 -0.0831 -0.0931 -0.1941
 2623W        W18884   2.530  17.510   2.904  0.4411  0.0216 -0.0670
 2624W        W18885  15.125   4.302   4.371 -0.2027 -0.2399 -0.1941
 2625W        W18886   0.414  13.162   0.673 -0.3086 -0.3448 -0.0413
 2626W        W18887  10.025  14.266   3.928  0.1000 -0.6321 -0.0177
 2627W        W18888   0.556  13.312  12.328 -0.0687  0.3098  0.0686
 2628W        W18889  17.618   1.228   4.942 -0.1116 -0.0062 -0.1775
 2629W        W18890   2.036  13.700  14.066  0.0664  0.0607 -0.3359
 2630W        W18891   2.604  17.012  12.093  0.1114 -0.0278  0.0087
 2631W        W18892  12.762   8.383   5.403  0.0655  0.0928 -0.2454
 2632W        W18893   1.004   1.694   4.402 -0.1767  0.2567 -0.0395
 2633W        W18894   9.777   6.168   1.779 -0.1536 -0.2188  0.0356
 2634W        W18895   7.065  11.438   0.883  0.1217  0.2071  0.0126
 2635W        W18896  18.137   3.919  12.143 -0.1527  0.2291 -0.0190
 2636W        W18897   1.373   1.613   1.083  0.1149  0.0531  0.0702
 2637W        W18898   6.488   2.608   2.101  0.2207  0.1759 -0.0304
 2638W        W18899  17.770  12.079  14.179  0.3121  0.0807 -0.0871
 2639W        W18900  17.820   9.567  12.382 -0.1466 -0.0040 -0.0797
 2640W        W18901   4.768   5.544   4.569 -0.3040  0.4187 -0.1076
 2641W        W18902   1.616   5.891  13.468  0.0000 -0.1832 -0.0699
 2642W        W18903  16.584   8.071  12.773 -0.0855 -0.3506  0.1051
 2643W        W18904   7.829  17.192   0.615 -0.0181 -0.0891 -0.0158
 2644W        W18905   3.915   0.279   4.959  0.0327 -0.2542  0.0228
 2645W        W18906   7.708   3.690   1.693 -0.1254 -0.0563  0.1077
 2646W        W18907   6.338   6.155  15.777  0.1473 -0.2455 -0.3487
 2647W        W18908  17.231  17.380   1.336  0.0627  0.1071  0.0839
 2648W        W18909  11.051  12.505  14.710  0.1665 -0.2224 -0.0001
 2649W        W18910   1.751  13.012   3.644 -0.1219 -0.1470 -0.0117
 2650W        W18911  13.200  13.256   2.557  0.0247 -0.0203 -0.1310
 2651W        W18912   1.148   9.322   0.077 -0.1857 -0.0885 -0.1380
 2652W        W18913   1.010  10.527   1.566 -0.1795  0.2917  0.0776
 2653W        W18914   7.971   1.196   3.490  0.0222 -0.3456 -0.1728
 2654W        W18915   7.778   8.469  12.269  0.2417 -0.0424  0.1852
 2655W        W18916   8.700  10.753  14.559 -0.0847  0.0324  0.1087
 2656W        W18917   8.352  16.353   4.190  0.2080  0.1394 -0.1244
 2657W        W18918   6.593  18.027   4.643  0.1922 -0.2077 -0.2558
 2658W        W18919  10.415  15.617  11.323  0.0525  0.0458 -0.0146
 2659W        W18920  16.079  13.411   3.180 -0.0059 -0.1620  0.1429
 2660W        W18921  16.273   3.339   2.479  0.2565 -0.0842 -0.0941
 2661W        W18922   3.187   7.773  12.705  0.0831  0.3284  0.0712
 2662W        W18923   8.522   5.180  15.352 -0.0441  0.0594  0.2055
 2663W        W18924  18.053   4.047  14.614 -0.1288 -0.2988  0.2846
 2664W        W18925   2.463   2.701   4.900  0.4174 -0.0919 -0.1519
 2665W        W18926   3.397  15.086  14.641  0.2900  0.4776 -0.0468
 2666W        W18927   8.921  15.160  13.025 -0.0759 -0.1833 -0.1632
 2667W        W18928   7.434   1.256   5.473  0.1125  0.1508  0.1989
 2668W        W18929  17.155  11.936  11.801 -0.0949  0.0502  0.0638
 2669W        W18930   5.430   0.864  14.918  0.0192  0.0215 -0.2572
 2670W        W18931   0.843   8.472   3.160  0.1447 -0.0124  0.2780
 2671W        W18932   3.013   4.166   1.708  0.2392 -0.1652  0.3067
 2672W        W18933   9.131   1.377  15.703  0.0164 -0.0030  0.2163
 2673W        W18934  10.898   3.387   1.012  0.1652  0.0551  0.0050
 2674W        W18935  17.789  10.736  11.200  0.2540 -0.1313 -0.3455
 2675W        W18936  12.246   3.924   2.999 -0.2086 -0.1449  0.0950
 2676W        W18937  12.160   0.406  12.406  0.2796 -0.3331 -0.0190
 2677W        W18938  16.491   5.586   0.726  0.2666  0.1158 -0.0928
 2678W        W18939   4.173  14.507  13.164  0.2879 -0.1931 -0.0898
 2679W        W18940  16.304   9.333  12.996  0.1824  0.2778 -0.1326
 2680W        W18941  12.318   3.120  12.382 -0.2485  0.0432 -0.0329
 2681W        W18942  13.672  17.260  13.807 -0.2466  0.0034 -0.2503
 2682W        W18943   1.152  13.977  14.190 -0.3248  0.4887  0.0277
 2683W        W18944   8.818  17.041   2.787  0.4983 -0.1960 -0.0113
 2684W        W18945  18.356   0.115  11.841  0.2093 -0.0515 -0.0585
 2685W        W18946   0.919   6.928  12.320 -0.0752 -0.2159 -0.2145
 2686W        W18947  11.567   2.809   2.683 -0.1190 -0.0988  0.0033
 2687W        W18948   8.205  14.554   0.512 -0.1903  0.1080  0.1892
 2688W        W18949  12.174   0.780  13.373 -0.3003 -0.2938 -0.1376
 2689W        W18950   8.398   5.226   4.416 -0.1327 -0.0467  0.1102
 2690W        W18951  15.683  10.539   3.243 -0.0299  0.3692 -0.0393
 2691W        W18952   7.337  15.994   3.795  0.1990  0.5333  0.0728
 2692W        W18953   4.447   2.994   3.222 -0.1702 -0.1911  0.0015
 2693W        W18954   4.257  16.262  14.647 -0.0691  0.0849  0.0254
 2694W        W18955   6.433   1.707   2.177  0.0886 -0.1751  0.1123
 2695W        W18956  15.281   3.659  16.293 -0.0328  0.2091 -0.0567
 2696W        W18957   6.010   3.893   4.672 -0.2153  0.2176  0.0682
 2697W        W18958  14.728   7.554   0.497 -0.0387  0.0927  0.0587
 2698W        W18959  17.669  12.314  13.748 -0.1765  0.0684  0.2025
 2699W        W18960  17.414  15.558  13.164  0.1296 -0.0452 -0.0569
 2700W        W18961  11.447  16.327  13.101  0.1462  0.0168  0.0729
 2701W        W18962  18.213  17.645   5.327  0.1037  0.0356 -0.1369
 2702W        W18963   5.656   2.547  11.916 -0.0559 -0.0789  0.3636
 2703W        W18964   1.145  15.716   1.815  0.3633  0.1448  0.0115
 2704W        W18965   8.850   7.289   3.225  0.0778  0.3355 -0.1142
 2705W        W18966  11.841  12.004  12.577 -0.3575  0.0328  0.0156
 2706W        W18967   9.782  16.558  12.591  0.4864  0.1282  0.0982
 2707W        W18968   1.736  12.321   0.244  0.1289  0.1813  0.0037
 2708W        W18969   7.324  10.273   3.604  0.0132  0.0509 -0.2527
 2709W        W18970   3.234   6.032  11.926  0.0630 -0.0756  0.0485
 2710W        W18971  14.519   3.788  12.567 -0.2730 -0.2166  0.3458
 2711W        W18972   3.448   4.560   1.923 -0.3600 -0.1091  0.0772
 2712W        W18973   3.754  14.191  11.479  0.2432  0.0105 -0.2270
 2713W        W18974  10.072  17.316   1.539 -0.1263  0.2684  0.1410
 2714W        W18975   3.853  10.754   6.592  0.1983  0.1120 -0.0381
 2715W        W18976   7.542   2.040  12.190  0.1441 -0.3008 -0.1067
 2716W        W18977   4.599   2.824   4.913 -0.0160 -0.0162  0.0506
 2717W        W18978  11.136   3.205  12.108  0.0304  0.2057  0.4394
 2718W        W18979   3.901  17.373  11.890  0.2072 -0.1349 -0.1818
 2719W        W18980   7.955   5.930  15.320  0.1440  0.1011  0.0611
 2720W        W18981  10.254   1.655  13.442  0.2327  0.0182  0.1136
 2721W        W18982   8.942  16.237  12.947 -0.0192  0.0173  0.0317
 2722W        W18983  15.131   5.882   0.535 -0.1693 -0.0281  0.0064
 2723W        W18984   1.149   2.343  11.205  0.0478 -0.3377  0.1944
 2724W        W18985   7.021  17.026   0.859  0.3759  0.0373  0.1104
 2725W        W18986   1.359   2.369   0.618  0.0883 -0.1184 -0.1538
 2726W        W18987  13.287  15.702   3.368 -0.0238 -0.0425  0.1937
 2727W        W18988   0.334   3.141  12.576  0.0344  0.1662  0.0337
 2728W        W18989   8.549   7.917   1.515 -0.4039 -0.0267  0.4162
 2729W        W18990   1.132   8.351   0.535 -0.2645 -0.1678  0.3431
 2730W        W18991   3.706   8.312   0.287 -0.0656  0.2763  0.1867
 2731W        W18992   3.303   8.845   1.706 -0.4517 -0.1745  0.0869
 2732W        W18993   3.809   2.177   3.923 -0.3505  0.0749  0.0347
 2733W        W18994  12.910  15.817  15.612  0.1998  0.3304 -0.0092
 2734W        W18995  11.141   4.237  13.880  0.1509 -0.2327 -0.0045
 2735W        W18996   5.904   0.594  16.227 -0.1270  0.2135  0.1808
 2736W        W18997  15.563  10.702  14.500  0.3275  0.0636  0.0055
 2737W        W18998   6.775   4.021   3.484 -0.0312  0.0704 -0.0836
 2738W        W18999   7.311  16.829  13.300 -0.0277 -0.0708  0.1428
 2739W        W19000   8.358   9.672   2.360 -0.1020  0.2366 -0.0245
 2740W        W19001   1.587   0.782   1.289  0.0044 -0.0527 -0.3522
 2741W        W19002  15.784   9.567   0.811 -0.1414 -0.0092  0.1897
 2742W        W19003  13.411  18.291  11.474 -0.1278  0.2499  0.0157
 2743W        W19004   1.063   9.566  15.492  0.1175 -0.0794 -0.1029
 2744W        W19005   4.070   9.019   5.470  0.1342 -0.0364 -0.2016
 2745W        W19006  16.729   1.358   5.017 -0.2490  0.0707 -0.0095
 2746W        W19007   4.747  15.481  14.628  0.4183  0.0178 -0.1241
 2747W        W19008   2.407  10.325  14.676  0.0379  0.1362  0.3516
 2748W        W19009   5.800  10.110   4.391 -0.2419 -0.0854 -0.0849
 2749W        W19010   6.563   7.308  13.234 -0.2029 -0.1223 -0.0081
 2750W        W19011   5.223   2.115  12.550  0.0351 -0.2427 -0.1350
 2751W        W19012   4.730  14.773   3.093  0.0486 -0.1420 -0.1998
 2752W        W19013  11.994   0.990  15.808 -0.0442  0.0271 -0.1003
 2753W        W19014  11.849   9.455   0.042 -0.0375 -0.1092  0.2084
 2754W        W19015  11.369  17.436   0.114 -0.1121 -0.1020 -0.0906
 2755W        W19016   0.557   0.839   1.709  0.2260 -0.5178  0.7204
 2756W        W19017   7.227   7.361   4.780 -0.1047  0.0891 -0.0208
 2757W        W19018   8.106   3.904   1.863  0.2683  0.0663 -0.1674
 2758W        W19019  16.141   6.961   0.420 -0.0001 -0.1792 -0.0764
 2759W        W19020  17.640   4.420   4.279 -0.0254 -0.2366 -0.2384
 2760W        W19021   2.744   6.828   1.824  0.1933  0.1237 -0.2654
 2761W        W19022   1.170  18.076   0.715 -0.1016  0.1806 -0.1896
 2762W        W19023   5.686   3.928   1.227  0.0511 -0.2090  0.1378
 2763W        W19024   4.068   7.669   2.505  0.2374  0.3959  0.0870
 2764W        W19025   5.604   5.214  13.956 -0.1950 -0.2976  0.1701
 2765W        W19026  11.016  14.046  12.875  0.0757  0.1774 -0.0934
 2766W        W19027   4.822   4.909   1.368  0.0088 -0.0302  0.0763
 2767W        W19028  15.982   9.682   3.627  0.4906  0.0528  0.2252
 2768W        W19029   1.344  13.356   3.799 -0.1595  0.1485  0.1268
 2769W        W19030   3.781  11.394  12.972  0.4611 -0.0988 -0.1295
 2770W        W19031  16.194  13.740   3.893 -0.0383 -0.0832  0.3599
 2771W        W19032   4.716  17.907  12.014 -0.0402  0.0243 -0.0403
 2772W        W19033  13.714   2.803   0.339 -0.1815  0.2050 -0.1541
 2773W        W19034  12.351   4.318  13.352 -0.2594 -0.1711  0.0747
 2774W        W19035   5.865   5.047  14.431 -0.0275 -0.3073  0.0488
 2775W        W19036   5.613  17.485   1.165  0.1248  0.2894  0.0932
 2776W        W19037   9.948   7.883  14.193 -0.1947 -0.0527  0.0824
 2777W        W19038  17.356   3.726   2.729 -0.1766 -0.1627 -0.0392
 2778W        W19039   7.502   3.841  11.078  0.1535 -0.0217  0.2945
 2779W        W19040   5.349  10.802  14.690  0.1045  0.1679 -0.0112
 2780W        W19041  17.956  10.213  13.012  0.2130  0.0428  0.2332
 2781W        W19042   2.666  18.176  13.994 -0.1463  0.0861 -0.1820
 2782W        W19043  18.065  11.493  14.282 -0.0397 -0.2657  0.1189
 2783W        W19044   2.990   2.642   0.987  0.1384 -0.2280  0.2091
 2784W        W19045   8.359  15.145  15.346  0.0423 -0.1009  0.0090
 2785W        W19046  13.139  10.281  12.207  0.0327 -0.1653 -0.1485
 2786W        W19047  17.336  17.824   2.841  0.0268 -0.1941  0.3161
 2787W        W19048   1.353  14.379   1.769  0.4247 -0.2056  0.0854
 2788W        W19049   7.905  16.085   4.033 -0.0022 -0.1042  0.2804
 2789W        W19050   2.974   0.612  15.385  0.1857  0.2785 -0.3449
 2790W        W19051  13.777  14.697   5.302  0.1422  0.1743  0.0316
 2791W        W19052   9.631  16.728   3.729  0.0456 -0.1166 -0.4207
 2792W        W19053  18.294   2.724   5.951 -0.3932  0.2179  0.0546
 2793W        W19054  12.000   9.072   4.730  0.1105 -0.1605  0.2811
 2794W        W19055  17.497  13.218  16.124  0.0325  0.0572 -0.0541
 2795W        W19056  15.685   6.508  14.123 -0.0766  0.3612  0.0147
 2796W        W19057  12.818  12.651  14.326  0.3016 -0.1606 -0.0580
 2797W        W19058  17.286  11.239   5.390 -0.1067  0.2420 -0.0383
 2798W        W19059  11.134  17.282  12.160 -0.0126 -0.2156  0.0851
 2799W        W19060  10.303  14.390   1.803  0.5860 -0.1296 -0.0442
 2800W        W19061  10.787   1.722  12.554 -0.0336 -0.1471 -0.1600
 2801W        W19062   4.641  12.552  12.997 -0.0043  0.1521 -0.1572
 2802W        W19063   4.958   2.629   1.476  0.0747 -0.0858  0.0402
 2803W        W19064   0.683   5.101   0.961  0.0557  0.0672  0.1205
 2804W        W19065  12.946  11.685  12.189  0.0519  0.0547  0.1660
 2805W        W19066   2.771   6.321  14.592  0.3093  0.0372 -0.2745
 2806W        W19067  17.975   2.601  15.174 -0.0079 -0.0417 -0.2035
 2807W        W19068   2.866   4.780  10.748 -0.0845 -0.0336 -0.1855
 2808W        W19069   4.586   2.508  11.790 -0.0263  0.1301 -0.0023
 2809W        W19070  14.201   0.834  12.810 -0.1443  0.0432 -0.2073
 2810W        W19071   5.560  12.790   5.163 -0.3218  0.1086  0.1803
 2811W        W19072  10.371  12.145   1.276 -0.1436 -0.2612  0.0173
 2812W        W19073  18.214   8.096   4.109 -0.0249  0.0970 -0.2229
 2813W        W19074  12.140   2.369  15.327  0.0283 -0.0782 -0.0220
 2814W        W19075   9.347   7.846   1.180 -0.0101 -0.2216  0.1795
 2815W        W19076   1.717  15.066  13.835  0.2980  0.0656 -0.0369
 2816W        W19077   2.120   4.825  14.138  0.2721  0.0757 -0.1585
 2817W        W19078   8.951   9.004   1.890  0.0045 -0.1143 -0.0598
 2818W        W19079   4.100   2.046  14.055 -0.0268 -0.0920  0.1446
 2819W        W19080   0.214  12.583   1.938 -0.2295 -0.1052  0.1465
 2820W        W19081   0.609  17.429  12.324  0.0526 -0.0136  0.0094
 2821W        W19082  13.716  12.450  14.415  0.0173 -0.0071  0.2893
 2822W        W19083   5.485   1.749   4.451 -0.0369  0.0194 -0.0033
 2823W        W19084  14.388   2.151  11.751 -0.2219  0.0530  0.2325
 2824W        W19085   7.821   9.594   9.873  0.3746 -0.1122  0.0028
 2825W        W19086  13.544  10.686   0.336 -0.1649  0.1200 -0.1819
 2826W        W19087   9.197  10.742   3.900  0.2197  0.0936  0.1662
 2827W        W19088  15.519  14.605   4.192  0.0488  0.1488 -0.0005
 2828W        W19089   8.014   2.884   2.202 -0.0552 -0.0386 -0.1750
 2829W        W19090   2.082  17.591   1.477 -0.2013  0.0544 -0.1658
 2830W        W19091  13.812  11.672   1.868 -0.0901 -0.1095  0.3625
 2831W        W19092   6.746   7.059   1.161 -0.3694 -0.5346  0.0260
 2832W        W19093  12.733   3.177  15.322  0.2887 -0.1155  0.0622
 2833W        W19094  10.931  15.609   2.211 -0.1282 -0.0285 -0.3711
 2834W        W19095  16.084  17.263   5.294  0.0624  0.0564 -0.2600
 2835W        W19096   1.210   2.211  14.195 -0.0706 -0.3182  0.0412
 2836W        W19097  16.012   7.817   4.094 -0.0840  0.0237  0.0834
 2837W        W19098  14.480   0.751   3.156  0.0523 -0.0563 -0.3621
 2838W        W19099  16.374   8.311   5.352 -0.2589 -0.3056  0.0693
 2839W        W19100   6.513   6.293   3.821 -0.2309  0.1311  0.1366
 2840W        W19101  15.478  18.214  13.202  0.0206 -0.4238 -0.2765
 2841W        W19102   8.911  14.235  13.208  0.0558  0.0048  0.3570
 2842W        W19103  13.049   8.890  11.280 -0.1134  0.1600  0.1997
 2843W        W19104  11.401  12.159   4.339 -0.2011 -0.1610  0.1000
 2844W        W19105  16.198   1.368  14.592  0.2130 -0.1719 -0.1956
 2845W        W19106  10.070  12.043  16.274 -0.3449 -0.2223 -0.0790
 2846W        W19107  14.006  11.170   5.068  0.1128  0.1361 -0.1310
 2847W        W19108  13.425  12.976   6.053  0.0006  0.0684  0.1340
 2848W        W19109   0.450   2.502   5.062 -0.0108 -0.3812 -0.2889
 2849W        W19110   9.309   8.926   5.430 -0.2509 -0.1980  0.0194
 2850W        W19111   0.787   0.745  12.150  0.0966  0.0954  0.3072
 2851W        W19112  13.732  12.392  16.006 -0.0496 -0.1790 -0.0563
 2852W        W19113   2.575   8.990  12.231 -0.4287 -0.0158  0.0748
 2853W        W19114  16.403   2.556  14.488  0.3162 -0.1171  0.3078
 2854W        W19115  12.034   4.477   2.370  0.1291  0.1821 -0.2662
 2855W        W19116  15.487  14.098  13.974 -0.5580 -0.1330  0.0545
 2856W        W19117   3.965   9.505  11.115 -0.2525  0.0659 -0.0197
 2857W        W19118  17.602   7.846   5.384 -0.0456 -0.0889  0.1079
 2858W        W19119  10.954  16.098  11.785  0.1092  0.0187  0.0971
 2859W        W19120  16.135   6.585  11.280 -0.1302 -0.2621 -0.0198
 2860W        W19121  12.993  14.437   5.141 -0.0542  0.0708 -0.0080
 2861W        W19122  17.331   9.294  12.313  0.1020  0.1118  0.0998
 2862W        W19123  12.602   4.505  14.277  0.1373  0.3843 -0.1901
 2863W        W19124   2.202   2.146  13.328 -0.0591  0.1016  0.2046
 2864W        W19125  13.384   7.281   5.259  0.1416 -0.3282  0.3794
 2865W        W19126   0.979  14.087   3.054  0.3053 -0.1120  0.0274
 2866W        W19127  11.211   1.334  10.767  0.1535 -0.4100  0.0330
 2867W        W19128  17.137  16.448   0.587  0.0915 -0.1729  0.3334
 2868W        W19129  17.786  15.660   1.521 -0.1949 -0.0797  0.0714
 2869W        W19130   9.679  14.934  15.642 -0.1453 -0.2645 -0.1748
 2870W        W19131  11.581   5.974   4.009 -0.0712 -0.0644 -0.0751
 2871W        W19132  12.199  17.379   2.980  0.1403 -0.0439  0.1965
 2872W        W19133   1.413   4.748   2.413 -0.0955  0.0387  0.1123
 2873W        W19134   7.590   4.001   3.587  0.0464 -0.2188 -0.1830
 2874W        W19135  15.529   8.643  14.952 -0.0884  0.0896 -0.3454
 2875W        W19136   2.486  15.418  14.334  0.3131  0.0256 -0.3236
 2876W        W19137  16.781   0.807  13.657  0.2837 -0.3442 -0.0549
 2877W        W19138   9.135  15.996   1.830  0.1912  0.1032  0.2278
 2878W        W19139  12.900   0.719  16.162 -0.0224  0.1178  0.1197
 2879W        W19140  11.247  10.876  15.380 -0.0679  0.1340 -0.1398
 2880W        W19141  12.583   3.509   3.270  0.3520  0.2302 -0.0576
 2881W        W19142  11.189  15.732  13.668  0.1891 -0.1657  0.0152
 2882W        W19143   5.500  17.970   0.034 -0.1611 -0.0686 -0.2340
 2883W        W19144   5.627  15.358   2.321 -0.0019 -0.1320 -0.3745
 2884W        W19145  14.800   9.611   3.008  0.3151 -0.2643  0.1082
 2885W        W19146  10.135   4.276   2.020 -0.1975 -0.0969 -0.1747
 2886W        W19147   5.847   0.282   3.466 -0.1373  0.3198 -0.3121
 2887W        W19148  15.766  11.521  11.456  0.2728 -0.0239  0.1583
 2888W        W19149   1.008  14.379  11.206 -0.1041 -0.0662 -0.0399
 2889W        W19150  15.717  16.651  12.326  0.0536  0.0179 -0.2681
 2890W        W19151   0.174  11.698  11.763 -0.1580  0.0890 -0.1826
 2891W        W19152  17.624  11.842  15.197  0.0264 -0.1658 -0.0977
 2892W        W19153   1.083  10.127  13.215 -0.0071  0.3202 -0.0163
 2893W        W19154   7.466   8.546  14.256  0.1031  0.0558  0.0868
 2894W        W19155  10.257  17.214  14.432 -0.3743 -0.1001 -0.0528
 2895W        W19156  17.737   5.144   5.568 -0.1733  0.1278 -0.1455
 2896W        W19157   3.932   4.620   2.706 -0.1076 -0.2292 -0.4841
 2897W        W19158  13.056  16.440  12.292  0.0200 -0.2065 -0.2820
 2898W        W19159  17.046  12.774  14.516 -0.0230 -0.2383  0.0234
 2899W        W19160   1.961   5.249  16.162 -0.1347  0.1270  0.1722
 2900W        W19161  14.675   8.647  14.395 -0.3321  0.1793  0.1768
 2901W        W19162  11.403   2.337   2.678  0.1980  0.2679  0.0118
 2902W        W19163  14.170   0.633   5.422 -0.2304  0.0511  0.1207
 2903W        W19164  13.222   5.928  16.038  0.1903  0.0436  0.1181
 2904W        W19165   8.999  13.310   0.309  0.2593 -0.1546 -0.0278
 2905W        W19166   0.226   4.662  12.895 -0.0625 -0.2085  0.1175
 2906W        W19167  16.155  14.611  16.204  0.0467  0.0193 -0.0522
 2907W        W19168   8.164  18.267  14.668 -0.0083 -0.3163  0.1287
 2908W        W19169  13.418  10.374   3.954  0.1303  0.1517 -0.2077
 2909W        W19170   2.851  15.132   3.160  0.0288 -0.0600 -0.1854
 2910W        W19171   9.316   4.599  12.700  0.1592  0.1987  0.0621
 2911W        W19172   3.915  13.882  14.352 -0.0537 -0.0705  0.0020
 2912W        W19173   4.293  17.046  13.858 -0.0952  0.1378 -0.1295
 2913W        W19174   2.978  16.469   1.773 -0.0607  0.0950 -0.0926
 2914W        W19175  17.994  15.798   2.820 -0.0886  0.0420 -0.0861
 2915W        W19176   0.407  16.395  11.948 -0.0642 -0.3247  0.0157
 2916W        W19177  14.801   3.447   2.869  0.0395 -0.0066 -0.3698
 2917W        W19178   9.911  10.669  13.821  0.1525  0.2697 -0.2468
 2918W        W19179   3.260   6.747   4.348  0.1286  0.2139 -0.0132
 2919W        W19180   0.183  13.350  15.693  0.1353 -0.2333  0.1411
 2920W        W19181   8.931   3.386  15.000  0.1983  0.0314 -0.2206
 2921W        W19182   6.365   1.727  13.632  0.3647  0.2254  0.0114
 2922W        W19183   4.970  17.493  11.523 -0.0601 -0.1007  0.0952
 2923W        W19184   0.692   0.612   3.745 -0.1504 -0.0171 -0.0240
 2924W        W19185  14.550   2.712   0.613  0.0301  0.1521 -0.0646
 2925W        W19186  12.687   4.154  13.916  0.1618 -0.0831  0.3248
 2926W        W19187   2.281   0.803   2.469 -0.3152  0.5062 -0.0163
 2927W        W19188   4.538  16.475   1.096 -0.2497  0.1146 -0.1276
 2928W        W19189   8.748   4.360   1.138 -0.0861  0.2621  0.0225
 2929W        W19190  13.153  12.672  15.154  0.2441 -0.0782  0.2127
 2930W        W19191  16.413   6.605  13.498  0.0221 -0.0905  0.1495
 2931W        W19192   9.458   2.421   5.345 -0.0788 -0.2620  0.2017
 2932W        W19193  14.604  16.339   4.569 -0.0080 -0.1504  0.2523
 2933W        W19194   7.884   7.465   5.231  0.0880  0.1630 -0.0764
 2934W        W19195  10.711   5.868   4.346 -0.1627 -0.0331 -0.0433
 2935W        W19196  12.547   1.330   2.828 -0.0373  0.2144  0.2199
 2936W        W19197  10.014   1.280   3.682  0.0774 -0.0280  0.0332
 2937W        W19198   8.373  10.251  16.272  0.0971  0.1645 -0.0487
 2938W        W19199  18.373   4.468  14.790  0.0450 -0.0078 -0.2517
 2939W        W19200   4.385  18.099  14.846 -0.1341 -0.2438  0.1335
 2940W        W19201   7.047   4.804   0.439  0.2981  0.1411 -0.1187
 2941W        W19202   7.465  17.256   0.917  0.2537  0.0210 -0.2712
 2942W        W19203  10.982   9.056  13.213 -0.1299  0.2431  0.0460
 2943W        W19204  13.148  11.496  13.816  0.3264 -0.1584  0.1543
 2944W        W19205  14.569   0.801   2.677  0.0355  0.0561 -0.0027
 2945W        W19206  14.390   0.824   1.134 -0.3058 -0.0670 -0.1909
 2946W        W19207   4.061  15.033  13.780  0.0722  0.1553  0.4286
 2947W        W19208   1.046   5.796   4.279  0.2728  0.2495 -0.2253
 2948W        W19209   3.559   4.297   2.642 -0.3234  0.1128 -0.0220
 2949W        W19210  13.813   3.836  11.259  0.1133  0.3600  0.1821
 2950W        W19211   9.590   8.625   5.702 -0.1434  0.0488  0.1691
 2951W        W19212   4.062   1.096   0.261 -0.0301  0.2338 -0.1675
 2952W        W19213  15.894  11.604   4.139 -0.1455 -0.0243 -0.0201
 2953W        W19214   5.149   4.998  12.602 -0.2265  0.0034 -0.0650
 2954W        W19215  10.238   7.697  11.673 -0.1586  0.1582  0.2789
 2955W        W19216  14.678   5.538  15.133 -0.0024  0.1189  0.2212
 2956W        W19217  10.703   3.801  16.147  0.0100  0.0393  0.3449
 2957W        W19218   2.970  11.563  12.589 -0.1208  0.1098  0.2247
 2958W        W19219   8.587  13.561  14.042  0.0667 -0.0822 -0.0684
 2959W        W19220   0.209   7.861   0.436  0.0369 -0.1769  0.3948
 2960W        W19221  12.592   2.464  14.444  0.2449  0.2085 -0.0028
 2961W        W19222   2.412  12.889  15.925  0.3508 -0.3141 -0.3772
 2962W        W19223   2.162   9.547  15.981 -0.4832 -0.3375 -0.1727
 2963W        W19224  13.682   8.450  12.775  0.0536  0.1386 -0.2015
 2964W        W19225   7.944   6.821  11.598  0.1436  0.3581  0.1343
 2965W        W19226  15.563  10.627  15.251  0.2740  0.1057 -0.0690
 2966W        W19227   5.466   8.768   3.559 -0.0991 -0.2629  0.0202
 2967W        W19228  12.739   2.833   4.474 -0.2034  0.2916  0.3591
 2968W        W19229  11.730  16.553   5.166 -0.1217  0.2436  0.2238
 2969W        W19230   9.603  13.234  13.013  0.0331 -0.1695  0.3236
 2970W        W19231   7.561  13.919  11.333  0.1054  0.1224  0.3411
 2971W        W19232   0.859   7.171  14.739  0.2880 -0.1065 -0.1408
 2972W        W19233  16.891  13.173  11.876 -0.1975  0.0878 -0.0400
 2973W        W19234  12.246  13.993  11.021 -0.1158  0.0316 -0.0863
 2974W        W19235  15.013   0.993   2.446  0.1840  0.1835 -0.2979
 2975W        W19236  14.374   7.629  11.421  0.1404  0.1205  0.2434
 2976W        W19237   6.842  11.415  13.509  0.0776 -0.1059 -0.1526
 2977W        W19238  18.069  16.178   0.725  0.1686  0.1700 -0.1217
 2978W        W19239  12.097  17.631  15.138  0.2752 -0.0885 -0.1852
 2979W        W19240  10.481   6.083   5.763 -0.0902  0.1049  0.0473
 2980W        W19241  17.803   8.910  14.460  0.0811 -0.3954  0.1036
 2981W        W19242  17.651  12.373  15.055 -0.1213 -0.3568  0.2751
 2982W        W19243  13.781  13.287  14.386 -0.0251 -0.0138 -0.0420
 2983W        W19244  10.112  13.157   2.370 -0.1967 -0.0661  0.0826
 2984W        W19245  17.872   0.307  14.356 -0.2616  0.1940 -0.0404
 2985W        W19246  14.260  18.305  12.306  0.3759  0.0430 -0.2683
 2986W        W19247   4.968   2.612  14.483  0.1938 -0.0194  0.0844
 2987W        W19248  12.495   6.648  11.272 -0.0965  0.1883  0.0358
 2988W        W19249  11.011  12.155  14.358  0.2641 -0.0538 -0.0735
 2989W        W19250   0.753   0.614   5.268 -0.3558 -0.1987 -0.2057
 2990W        W19251  16.063  16.396  14.698 -0.3002 -0.0292  0.0407
 2991W        W19252   4.812   8.028   1.544 -0.0675 -0.0578 -0.1955
 2992W        W19253   1.382   9.125   5.571  0.4064 -0.2632 -0.0826
 2993W        W19254  12.311   2.853  15.129 -0.0372 -0.1211 -0.1620
 2994W        W19255   1.448  10.647   3.321  0.2908 -0.0239  0.1347
 2995W        W19256   8.917   6.646   0.971 -0.0368 -0.0627  0.0838
 2996W        W19257   5.580  10.489   4.174  0.0974  0.1160  0.2944
 2997W        W19258  14.673   7.999   0.294  0.1857 -0.0766 -0.0524
 2998W        W19259   4.211   7.092  12.945 -0.0111  0.2848  0.1227
 2999W        W19260  11.151  16.086  15.671 -0.0987  0.1860 -0.0043
 3000W        W19261   3.348   8.288  13.410 -0.1979  0.0375  0.0161
 3001W        W19262  12.483  10.833  13.713 -0.1966 -0.2179  0.0111
 3002W        W19263  10.317   7.355   5.353 -0.1497  0.1476 -0.2318
 3003W        W19264   7.369   4.245  14.578 -0.3749 -0.0324 -0.0955
 3004W        W19265  17.390   4.630   2.546 -0.1384 -0.0469 -0.0308
 3005W        W19266   1.691   7.680  12.961  0.2060 -0.0052 -0.1728
 3006W        W19267  13.187   2.941  13.453 -0.0270 -0.3908  0.0763
 3007W        W19268   6.643  14.234   3.608 -0.3187  0.1411 -0.1008
 3008W        W19269   4.641  10.151   4.918  0.0263  0.1632  0.1694
 3009W        W19270   6.331  15.504   2.208 -0.0817 -0.0507  0.0585
 3010W        W19271   7.519  11.162   4.331 -0.0300  0.0123 -0.1559
 3011W        W19272  17.745  17.399  14.506 -0.2526 -0.0555  0.1791
 3012W        W19273   0.757  14.929  11.855  0.1366 -0.0933 -0.0016
 3013W        W19274   0.093   8.925  11.806 -0.0083  0.0695  0.0504
 3014W        W19275  15.961   4.742  11.999  0.1864 -0.3148 -0.1120
 3015W        W19276  11.300   3.506   3.632  0.1276 -0.1745  0.0969
 3016W        W19277   1.049  11.703   0.621 -0.0598 -0.1210  0.3530
 3017W        W19278  11.961  13.327  11.726 -0.0470 -0.1432 -0.1686
 3018W        W19279   6.414   7.882   1.411 -0.0101  0.3380 -0.0266
 3019W        W19280   7.759  17.379  15.245  0.3069 -0.0863 -0.1118
 3020W        W19281   1.780  10.791  14.120 -0.0820  0.0422 -0.0189
 3021W        W19282   6.163  15.021   3.279  0.2775  0.0139 -0.1164
 3022W        W19283   2.947   2.926  15.754  0.0017 -0.1965  0.2303
 3023W        W19284   6.747  15.380   2.077 -0.1757 -0.0762  0.3691
 3024W        W19285  11.600  14.085   1.223 -0.0095 -0.0022 -0.1216
 3025W        W19286   0.878   5.729   3.082 -0.2108  0.0252 -0.0687
 3026W        W19287   6.121   8.145  13.369  0.0319  0.0097  0.0290
 3027W        W19288   8.498   2.985   0.187  0.2474  0.1320  0.2846
 3028W        W19289   7.535  17.503  11.744  0.1505  0.2760 -0.2089
 3029W        W19290   6.692   8.028  16.294 -0.1233 -0.0344 -0.0429
 3030W        W19291   8.909   5.059  12.001 -0.0024  0.0834 -0.1750
 3031W        W19292   3.776  15.746   2.840  0.0069  0.3545  0.0328
 3032W        W19293   9.508  11.309   3.965 -0.1583  0.0545  0.1639
 3033W        W19294   6.113  13.157   0.954  0.0862 -0.0645  0.3120
 3034W        W19295   4.655   4.139   0.066  0.0039 -0.3124 -0.2317
 3035W        W19296  10.110   9.157   0.589  0.0949  0.1281 -0.0400
 3036W        W19297  13.561  18.360  14.400 -0.0419 -0.0421 -0.0728
 3037W        W19298  10.462  12.407   0.014 -0.2897 -0.0702  0.0884
 3038W        W19299   9.059   8.185   0.270 -0.2784 -0.1482  0.0329
 3039W        W19300   1.561  13.658  14.366  0.0768  0.1711 -0.2606
 3040W        W19301  17.834  12.938  15.231 -0.0509 -0.1449  0.0461
 3041W        W19302  10.004  13.212   5.704  0.0445 -0.1339 -0.0077
 3042W        W19303  13.121   9.089   2.918  0.0169  0.3371  0.0660
 3043W        W19304   2.084  17.770  14.721  0.0749 -0.0100 -0.3149
 3044W        W19305  13.299   8.556  14.999 -0.0012 -0.0080 -0.0640
 3045W        W19306  15.865  12.460  13.716  0.1134  0.0536 -0.0217
 3046W        W19307   9.816   0.955   4.108  0.2288  0.3272 -0.4401
 3047W        W19308   5.454   4.662   1.557  0.1720  0.1608 -0.0567
 3048W        W19309   3.037   9.024  12.870 -0.0043  0.0538 -0.2647
 3049W        W19310   9.371  14.759   0.699  0.0106  0.0091 -0.0446
 3050W        W19311   6.182  12.770   1.338 -0.1344  0.1250  0.1630
 3051W        W19312  12.208   6.273   3.542  0.0324  0.0467 -0.1859
 3052W        W19313  13.407   3.355  15.457  0.5062  0.0573 -0.1273
 3053W        W19314  10.956   1.472  15.325 -0.0416 -0.2383 -0.0708
 3054W        W19315   3.434   1.279   1.081 -0.2813  0.1146  0.3805
 3055W        W19316   4.955  11.143   1.145 -0.0091  0.1353  0.3084
 3056W        W19317  10.824   5.463  13.774  0.3222 -0.0620 -0.1029
 3057W        W19318   6.098  13.478  15.751  0.1082  0.0925  0.0437
 3058W        W19319  15.540  16.433   5.424 -0.2562  0.1792 -0.0388
 3059W        W19320   4.288  13.433  11.649 -0.1092  0.1615 -0.1258
 3060W        W19321  14.862  14.902  13.411  0.0537  0.0063 -0.0008
 3061W        W19322   7.147  17.782  12.109  0.0182 -0.0636 -0.0039
 3062W        W19323   0.923   7.921   2.272 -0.1334 -0.1213 -0.1280
 3063W        W19324   9.908   9.878   4.444  0.1262  0.0938 -0.1098
 3064W        W19325  10.725   0.233   4.169 -0.2068  0.0275 -0.0085
 3065W        W19326   9.330   0.884   5.928  0.1151  0.3652  0.2459
 3066W        W19327  17.269  16.050  15.583  0.0321  0.0104 -0.1449
 3067W        W19328   0.455   2.181  12.486  0.0529 -0.0573 -0.1881
 3068W        W19329   5.984  14.356  14.754  0.0688 -0.1994  0.0387
 3069W        W19330   1.142   9.592  13.778 -0.0982 -0.1071 -0.0453
 3070W        W19331   4.445  14.434   0.909 -0.0908  0.0289  0.3636
 3071W        W19332   8.208   3.954  12.220 -0.5915 -0.1654  0.1051
 3072W        W19333   3.667   0.806   0.958 -0.2464  0.3050  0.2449
 3073W        W19334  10.583  10.252   1.334  0.0654 -0.0307 -0.1234
 3074W        W19335   4.758   6.565  15.240  0.0337  0.0695  0.1541
 3075W        W19336  16.133   7.712  12.979  0.1535 -0.0732  0.0426
 3076W        W19337  13.550  10.094   1.278 -0.2091  0.0836  0.0190
 3077W        W19338  17.610   2.449   0.300  0.2167 -0.1835 -0.1494
 3078W        W19339   7.553  11.692   1.420  0.2941 -0.1945 -0.1928
 3079W        W19340   3.449   2.642  11.458  0.0563 -0.0174  0.3520
 3080W        W19341   7.923  10.231  13.176  0.0300 -0.0153  0.1982
 3081W        W19342  10.081  17.075  13.041 -0.1215 -0.0535 -0.2387
 3082W        W19343   1.353   9.733  12.904  0.2169  0.1017 -0.0288
 3083W        W19344   7.875   7.975   5.228 -0.1892 -0.2361 -0.1304
 3084W        W19345  15.003   8.898   2.320  0.0975 -0.0509 -0.2063
 3085W        W19346  10.906  11.676   2.125  0.2148 -0.0160  0.1939
 3086W        W19347  16.293  11.175   3.497  0.0472  0.2594  0.3869
 3087W        W19348  10.498  12.819   2.452 -0.2809  0.0497  0.3873
 3088W        W19349   8.681  17.038  16.289 -0.3206 -0.1283 -0.3261
 3089W        W19350   8.016   8.970   4.144  0.0431  0.1685 -0.0002
 3090W        W19351   2.340   6.186  14.142 -0.1506 -0.0372 -0.2249
 3091W        W19352   0.226  15.158  12.672 -0.3544  0.0921 -0.0964
 3092W        W19353   2.718   2.271  13.981 -0.2903  0.0390  0.3286
 3093W        W19354  16.861  12.534  15.861 -0.1706  0.0838 -0.3324
 3094W        W19355   5.735   4.583  15.661  0.0871  0.1835  0.1165
 3095W        W19356  16.324  12.894   0.866 -0.1262  0.1291  0.0350
 3096W        W19357   2.773   9.818   3.840  0.0307 -0.0793 -0.1174
 3097W        W19358   9.667   9.390  15.467  0.2972 -0.3986 -0.0900
 3098W        W19359  17.780   3.994  15.511  0.0565 -0.0618  0.0867
 3099W        W19360  16.941   4.995  11.862 -0.1468  0.2087 -0.2840
 3100W        W19361  18.000   6.125   5.599  0.0876  0.1465 -0.1307
 3101W        W19362  17.805   4.899   4.158 -0.3054  0.1211 -0.0994
 3102W        W19363   4.661   6.384  13.600 -0.0577 -0.2836  0.1330
 3103W        W19364   7.222  15.469  16.135 -0.1441  0.1263  0.0209
 3104W        W19365   4.988  14.644   1.013  0.2699  0.1858 -0.1637
 3105W        W19366  10.221  11.769  13.885  0.2639  0.2452  0.6269
 3106W        W19367  16.916   0.145   2.602  0.0682  0.0130 -0.1102
 3107W        W19368   3.500   3.696  15.029 -0.1426 -0.0899  0.0008
 3108W        W19369  15.408  17.575  14.575 -0.3847  0.0249 -0.0111
 3109W        W19370   1.164   1.736   3.148 -0.1655  0.0997  0.0880
 3110W        W19371  17.521   6.609   3.762  0.1640 -0.0918 -0.0316
 3111W        W19372  17.851   0.508   3.263  0.1160  0.0203  0.3906
 3112W        W19373   5.125   4.848   1.968  0.0682 -0.0046 -0.0339
 3113W        W19374   5.842   3.136  11.283 -0.1328  0.1323  0.1426
 3114W        W19375  17.657  11.533  15.851  0.1741  0.1876 -0.2031
 3115W        W19376  15.346  10.402   0.626  0.1950  0.0616 -0.4188
 3116W        W19377   3.523  11.655  12.598 -0.0435 -0.1048 -0.0461
 3117W        W19378   1.474   4.370   1.034 -0.2066 -0.1732 -0.0992
 3118W        W19379  15.852   1.853   3.480 -0.0744 -0.3594 -0.3234
 3119W        W19380   0.217   0.248  15.488  0.2037  0.0810 -0.1832
 3120W        W19381   4.280  16.446   3.562 -0.2590 -0.2592 -0.1699
 3121W        W19382   0.462  10.076  12.250  0.1490  0.0177 -0.1228
 3122W        W19383  16.296   9.647   0.810 -0.0944 -0.5444  0.0160
 3123W        W19384   3.388   6.637  13.452  0.1170  0.2660  0.2772
 3124W        W19385   6.804  17.545  14.970  0.0852  0.0415  0.3605
 3125W        W19386  16.895   5.516   1.808 -0.0054  0.2963 -0.1566
 3126W        W19387  12.510   8.581  13.316 -0.2637  0.0740  0.2455
 3127W        W19388   0.515   0.022  11.831  0.1791  0.1816 -0.2845
 3128W        W19389  13.658   3.453   5.482  0.3008 -0.3008  0.1393
 3129W        W19390  12.435  12.279   1.960  0.0091  0.1685  0.1285
 3130W        W19391  17.685   4.953  11.317  0.1805  0.1590 -0.1294
 3131W        W19392  12.807  17.048  16.201 -0.1664 -0.1693 -0.0667
 3132W        W19393   6.103   6.741   3.299 -0.0851  0.0719 -0.3853
 3133W        W19394   7.104   2.490   1.035 -0.2475  0.1054  0.1305
 3134W        W19395   0.377   2.415  13.814  0.1455  0.0878 -0.1620
 3135W        W19396  17.262   2.433   3.707  0.2148  0.0942  0.2711
 3136W        W19397  16.125  11.714   2.410 -0.3006 -0.1682 -0.4575
 3137W        W19398   0.618   8.832  11.666 -0.0353  0.0375 -0.6595
 3138W        W19399  16.336  17.135  14.430 -0.1460  0.1982  0.1693
 3139W        W19400   3.588  12.120  15.925 -0.3963 -0.3235 -0.3763
 3140W        W19401   7.792   5.559   3.013 -0.0309 -0.0690 -0.1402
 3141W        W19402   7.246  17.090  14.182 -0.1074 -0.3731  0.0211
 3142W        W19403  13.966   2.700  14.156  0.1495 -0.0697 -0.1378
 3143W        W19404  14.382  12.192   5.496 -0.1478 -0.1038 -0.4941
 3144W        W19405  15.063   2.908   3.057  0.0157 -0.0520 -0.4144
 3145W        W19406  10.618  16.034   0.319 -0.1849 -0.0056  0.2206
 3146W        W19407  14.165   1.555  15.623 -0.0571  0.1325 -0.0216
 3147W        W19408  10.345  14.349   0.926  0.2005 -0.1563 -0.0695
 3148W        W19409   1.467  16.190  16.107 -0.1200  0.2170 -0.1212
 3149W        W19410   6.653  15.865   3.372 -0.0866 -0.2069  0.1116
 3150W        W19411   6.666   9.864   2.017 -0.0387  0.0733  0.0563
 3151W        W19412   6.816   5.744  11.977  0.1835  0.0013  0.1137
 3152W        W19413  17.836  16.073  14.397 -0.0752 -0.1857 -0.0420
 3153W        W19414   4.397   4.923   2.756  0.1140 -0.1571 -0.0603
 3154W        W19415   2.699  11.146  12.775  0.0161  0.1909 -0.3966
 3155W        W19416   4.486  17.570   4.816  0.0654 -0.2073 -0.0797
 3156W        W19417  18.281   2.533  15.698  0.1254 -0.0810  0.1098
 3157W        W19418  10.143   1.017  13.095  0.1720 -0.4463 -0.0365
 3158W        W19419   1.662   6.416  13.380 -0.0638  0.3025 -0.1459
 3159W        W19420   8.703  13.548   3.949 -0.0042 -0.0164  0.0942
 3160W        W19421  14.767  13.107  12.398 -0.0278  0.0335  0.0751
 3161W        W19422  13.322   0.114   3.034 -0.0678 -0.1082  0.0071
 3162W        W19423   5.817  15.205  16.038  0.3630 -0.1090 -0.3057
 3163W        W19424   6.606   6.942  12.792 -0.1981  0.0584  0.1213
 3164W        W19425   9.906  12.202   2.036 -0.1912  0.1360 -0.4811
 3165W        W19426  17.567   1.070   0.079 -0.2221  0.1087 -0.2346
 3166W        W19427   5.612   8.789  12.342 -0.2780 -0.3394  0.4219
 3167W        W19428  16.698   9.374  14.030 -0.0552  0.0360  0.1429
 3168W        W19429  14.058   7.970   1.128 -0.0622 -0.2448  0.3168
 3169W        W19430   7.578  12.174  12.765  0.2671 -0.2377 -0.0651
 3170W        W19431  11.719  17.356  14.353  0.0633  0.1791 -0.1103
 3171W        W19432   7.139   3.162   0.409 -0.0742 -0.2270 -0.2074
 3172W        W19433   6.769  11.004   2.801 -0.2944 -0.0160 -0.0637
 3173W        W19434  16.855   3.316  12.830  0.3539  0.3082  0.2690
 3174W        W19435  13.047  14.236   1.448  0.0964 -0.0070 -0.0806
 3175W        W19436   7.153   3.276  13.028 -0.2038  0.3078  0.0806
 3176W        W19437  11.211   1.995  15.884 -0.2625 -0.0176 -0.0592
 3177W        W19438   4.709   0.462   1.356 -0.0215 -0.0134  0.1158
 3178W        W19439   6.500  12.654   0.503  0.3012  0.1086  0.1414
 3179W        W19440   2.577   5.402  13.232  0.3048 -0.1930  0.1638
 3180W        W19441  17.152  13.932   5.581 -0.1393  0.1563  0.0745
 3181W        W19442  15.033  14.591   4.575 -0.6251  0.3038  0.4314
 3182W        W19443   4.232  11.098   5.363  0.2490 -0.0079  0.1520
 3183W        W19444   4.850   5.707   0.639 -0.0123 -0.1093 -0.0907
 3184W        W19445   6.054  18.370   1.589 -0.2814  0.2312  0.0615
 3185W        W19446   7.354  11.694  12.756 -0.2189  0.0818 -0.0245
 3186W        W19447   1.012   5.359  14.709 -0.0332 -0.4591 -0.1966
 3187W        W19448  16.283   1.861   1.788  0.2845  0.0528 -0.0244
 3188W        W19449   0.973  10.524   3.536 -0.0310 -0.1541  0.0154
 3189W        W19450   6.977   1.302   1.454 -0.2898  0.2797  0.0359
 3190W        W19451  12.950   7.319  13.474  0.0413 -0.1380  0.1202
 3191W        W19452  18.209  11.325  11.841 -0.0418 -0.3096  0.0069
 3192W        W19453   4.482   8.941   2.019 -0.4189 -0.0522  0.1020
 3193W        W19454  11.594   4.815   0.320 -0.0707 -0.1288  0.2413
 3194W        W19455   3.082   8.415   5.174  0.3273  0.1026  0.0458
 3195W        W19456  10.173  13.159   5.257  0.1434  0.2031  0.0680
 3196W        W19457   4.745  12.170  14.594 -0.0114 -0.2398  0.1625
 3197W        W19458   4.188   2.132   4.271  0.1613  0.1732 -0.0311
 3198W        W19459   1.105   3.560  15.600  0.0098 -0.1108  0.1025
 3199W        W19460   0.069   1.892   5.084 -0.0101 -0.0768  0.0873
 3200W        W19461  18.207   1.204   2.970  0.3340  0.0666  0.0693
 3201W        W19462   0.242   1.701   3.800 -0.2505  0.1975  0.0921
 3202W        W19463  12.775  12.925   3.305  0.3414 -0.2855 -0.0668
 3203W        W19464   7.309   7.884  11.498 -0.0233 -0.0680  0.0296
 3204W        W19465   5.407  17.338   5.608  0.0758  0.0010  0.0950
 3205W        W19466   6.808   1.691  12.414  0.0614  0.1159 -0.1328
 3206W        W19467   1.134   4.947  14.473 -0.1424  0.0844 -0.1610
 3207W        W19468   5.598  13.622   5.133  0.2660  0.0214 -0.1936
 3208W        W19469   6.181   0.123   4.380 -0.1329  0.0584  0.1373
 3209W        W19470   5.085  15.905   3.572  0.1331  0.1709 -0.0845
 3210W        W19471  12.270  10.933   1.505  0.1245 -0.1684  0.0283
 3211W        W19472  14.095   5.074  12.823 -0.0584 -0.0932 -0.0340
 3212W        W19473   5.485   8.066  15.311 -0.1792  0.0306  0.1709
 3213W        W19474  14.412   3.513  12.992  0.0161  0.0589  0.1645
 3214W        W19475  14.923  13.214   4.277 -0.1801 -0.0602 -0.2569
 3215W        W19476  13.403   2.058  14.860  0.1351  0.0339  0.1506
 3216W        W19477  12.856  16.243   4.337  0.0977  0.2481  0.0879
 3217W        W19478  11.244   6.291   0.849 -0.2908  0.2467  0.2595
 3218W        W19479  13.303   5.719   5.836 -0.1401  0.2318 -0.1396
 3219W        W19480   8.735   0.503   3.873 -0.0588 -0.2138  0.0137
 3220W        W19481   6.738   7.511  16.144 -0.1517 -0.1777 -0.1711
 3221W        W19482  11.559   6.988  13.917  0.0308 -0.0044 -0.0055
 3222W        W19483  15.102  13.004   2.065  0.2246  0.0436  0.0943
 3223W        W19484   7.354   9.968  12.401 -0.3216  0.1651  0.1901
 3224W        W19485  10.877  17.827   6.048 -0.0534  0.1600 -0.1287
 3225W        W19486   9.847   9.986   5.412 -0.0794  0.2441  0.0302
 3226W        W19487  11.210  15.175   2.693 -0.1077  0.1288 -0.2537
 3227W        W19488   6.888  11.550   0.442  0.1079  0.0731 -0.3744
 3228W        W19489  14.041   9.820   1.122 -0.3358 -0.1780 -0.1536
 3229W        W19490   8.526   2.166   1.778 -0.3598 -0.0149  0.2758
 3230W        W19491  11.042  10.708   3.665 -0.0231  0.1562 -0.1843
 3231W        W19492  18.383   9.545  11.417  0.0514 -0.1793  0.3505
 3232W        W19493  15.964  11.006   3.933  0.0243 -0.3103 -0.0285
 3233W        W19494  11.049   5.742   2.229 -0.0998  0.0185  0.4738
 3234W        W19495   5.835   9.452  12.227  0.1879 -0.0147  0.1136
 3235W        W19496  11.215   1.521   2.119 -0.0936 -0.0138  0.0012
 3236W        W19497   3.697  12.115  11.454  0.0510  0.2269  0.2082
 3237W        W19498  14.361  14.961   2.373  0.0226  0.2250 -0.1223
 3238W        W19499  16.193   4.986   2.728  0.2286 -0.3325 -0.2087
 3239W        W19500  12.182   2.094   2.836 -0.0839 -0.0485  0.0885
 3240W        W19501  13.692   4.394  15.043  0.1686  0.2656 -0.0694
 3241W        W19502  10.450  10.804   2.381 -0.1090  0.0281  0.0063
 3242W        W19503   5.622  12.783   0.220  0.0022 -0.4334  0.1792
 3243W        W19504  13.866   7.842   2.978 -0.0468 -0.2736 -0.0635
 3244W        W19505  17.010   7.870  14.102 -0.1314  0.3109  0.0269
 3245W        W19506   2.059   2.933  15.825  0.1049 -0.1929  0.1427
 3246W        W19507   8.919   1.380  13.022  0.1845 -0.1648  0.1448
 3247W        W19508  15.228   6.212  11.394 -0.3187  0.2228 -0.0097
 3248W        W19509   5.722   6.320  14.136  0.2343  0.0885  0.2046
 3249W        W19510   2.544   0.418   0.347  0.0863 -0.0641  0.1287
 3250W        W19511   0.595  13.094  13.720 -0.0508 -0.0982 -0.0715
 3251W        W19512  11.998  17.800   2.130 -0.2762  0.1381  0.2071
 3252W        W19513   7.495   5.366   1.840 -0.1086 -0.1728  0.1303
 3253W        W19514  13.978  13.341   4.633  0.2793  0.1688  0.0785
 3254W        W19515  11.426   0.832   3.881  0.1133  0.0077  0.1959
 3255W        W19516  13.335   7.201  12.526  0.0827  0.0660 -0.0500
 3256W        W19517  16.189  16.497  12.493 -0.0611  0.0158  0.0252
 3257W        W19518  14.305  12.992   2.378 -0.1076  0.0947  0.3772
 3258W        W19519  13.971   1.830   6.418  0.1143  0.2031 -0.0597
 3259W        W19520   9.997  13.113   0.502 -0.1053  0.1505  0.1321
 3260W        W19521  11.156   7.370  11.095  0.0065  0.4942 -0.2475
 3261W        W19522   6.540   4.677   4.848  0.0646 -0.1845  0.0554
 3262W        W19523  16.503   5.126  15.914  0.2402  0.0678  0.1196
 3263W        W19524   5.494   4.712  13.786  0.3427 -0.0549 -0.3450
 3264W        W19525   6.583  13.750  14.356  0.2243 -0.1585  0.0277
 3265W        W19526   1.515  14.481  15.559 -0.2496 -0.3413  0.1015
 3266W        W19527  17.119  13.322  14.129  0.1472 -0.1118 -0.2554
 3267W        W19528   8.807   7.014  11.150 -0.1417  0.1241 -0.2224
 3268W        W19529   9.519  15.941  11.213  0.1669 -0.5685 -0.1674
 3269W        W19530  14.872  17.156   3.208  0.1645 -0.0322  0.2603
 3270W        W19531  14.677  10.532  14.432 -0.3666  0.2486  0.2116
 3271W        W19532  10.390   8.480  16.091  0.0866 -0.2217 -0.2269
 3272W        W19533   4.541   4.174  15.908 -0.0522  0.0845 -0.0815
 3273W        W19534   5.554   0.315  14.872  0.0928  0.3673 -0.3547
 3274W        W19535  13.174   6.595   3.973 -0.4672 -0.1568 -0.0049
 3275W        W19536   0.980  14.616   5.497  0.1915 -0.1203 -0.1692
 3276W        W19537   0.987  13.052   0.575  0.0365 -0.1351 -0.0558
 3277W        W19538   5.172   7.709  13.488 -0.1579  0.2288  0.2776
 3278W        W19539   7.884   4.972  12.729  0.1206  0.0131 -0.2633
 3279W        W19540   5.080  12.480  14.246 -0.1505 -0.0504 -0.1105
 3280W        W19541  13.450  13.409  11.278 -0.1481  0.1081 -0.1629
 3281W        W19542   4.586   1.746  13.308 -0.2493 -0.0833 -0.0661
 3282W        W19543   1.522  12.980   5.186 -0.2900  0.0315 -0.2439
 3283W        W19544   7.503  17.616   6.052  0.0002  0.4703 -0.1686
 3284W        W19545  14.645   6.569  12.913  0.1834 -0.1398  0.1266
 3285W        W19546  12.536  12.108  12.049 -0.0154 -0.0416  0.2432
 3286W        W19547   4.511  13.046  15.133 -0.1950 -0.0153 -0.2356
 3287W        W19548   8.110   9.538   0.433 -0.1594  0.0023 -0.2753
 3288W        W19549  16.750   9.404  15.796 -0.1259 -0.0664 -0.0365
 3289W        W19550  17.888   9.791  13.860  0.1815 -0.0278 -0.0272
 3290W        W19551  16.058   6.726  15.162 -0.1837  0.3063 -0.1799
 3291W        W19552   3.291   7.918   3.542 -0.2625  0.1237  0.2946
 3292W        W19553  13.648   9.022   2.255  0.3379  0.3982 -0.0798
 3293W        W19554   2.007  13.632  16.243  0.0316  0.1838 -0.3993
 3294W        W19555   1.607  17.170   1.629  0.0175  0.3598  0.0652
 3295W        W19556  18.301   3.801  13.257 -0.0530 -0.0382  0.0294
 3296W        W19557  18.272  11.438   2.545 -0.2534  0.2844  0.2318
 3297W        W19558   9.263  12.088   4.458  0.3360 -0.2758  0.0300
 3298W        W19559  15.262   1.763  14.195  0.0482 -0.2340 -0.0618
 3299W        W19560   4.298   5.709   4.351 -0.0073  0.0291  0.2657
 3300W        W19561  15.047  14.301   0.143  0.1345  0.0151 -0.2109
 3301W        W19562  13.621   5.208   1.223 -0.3122  0.0245  0.2343
 3302W        W19563  15.382  11.908  15.811 -0.0171 -0.0380 -0.0226
 3303W        W19564   2.843  10.577   4.218  0.2039  0.3610  0.0930
 3304W        W19565  11.960  15.157   2.785 -0.2456  0.0239  0.0032
 3305W        W19566  14.300  17.670  12.350  0.0714  0.1183  0.1577
 3306W        W19567  13.759  13.286   0.233 -0.0533  0.0900 -0.0972
 3307W        W19568  11.494   0.914  15.897  0.1933 -0.0382 -0.0303
 3308W        W19569  15.533   7.455   5.649 -0.1260  0.0805  0.1283
 3309W        W19570  11.999  11.642   0.348  0.1709  0.0248 -0.2231
 3310W        W19571   9.356   8.154   3.079 -0.0509  0.3179 -0.1975
 3311W        W19572  14.646  16.403  15.572  0.2250  0.2304 -0.2616
 3312W        W19573  12.589   1.536  13.790  0.2034 -0.0750 -0.0204
 3313W        W19574  16.902  16.021   3.984  0.2093  0.2112  0.3363
 3314W        W19575  13.133   3.848   1.345  0.0918 -0.2797  0.1370
 3315W        W19576   5.954   2.297   0.280  0.3002 -0.0982  0.0681
 3316W        W19577   3.657   7.945   2.660  0.0357 -0.1372 -0.0027
 3317W        W19578   5.951  11.062  11.035  0.0502  0.1334 -0.2012
 3318W        W19579  17.787   3.449   1.065  0.3841  0.1616  0.0837
 3319W        W19580   8.758  10.932   5.072 -0.4487 -0.5201 -0.0895
 3320W        W19581  13.052   1.049  11.450 -0.0445  0.3666  0.2017
 3321W        W19582   2.516  15.662   1.591  0.0506  0.3801  0.2966
 3322W        W19583  15.849   9.753  14.188 -0.1397 -0.2141 -0.0181
 3323W        W19584   8.811  14.988   4.687 -0.1729 -0.1305  0.0182
 3324W        W19585  13.849  14.939  13.329  0.2586  0.0962 -0.2270
 3325W        W19586  15.362   4.696   1.726  0.1234  0.1288  0.1077
 3326W        W19587   0.970  13.737  11.465 -0.2686  0.0327 -0.1882
 3327W        W19588   2.097  13.932   5.238 -0.1971  0.1918 -0.0105
 3328W        W19589  12.022   5.857  14.056 -0.0733  0.2126 -0.0826
 3329W        W19590  17.210  13.017   3.728 -0.2848  0.0556  0.0180
 3330W        W19591  12.663   1.478  11.651  0.0362 -0.1166 -0.1762
 3331W        W19592   8.090  16.302  11.585 -0.2185  0.3623 -0.1607
 3332W        W19593  11.934   5.575  11.319  0.2629 -0.2467  0.0805
 3333W        W19594   8.297   9.399   4.112  0.0867  0.0955  0.3450
 3334W        W19595  16.582  12.084  14.898 -0.4106  0.1257 -0.0792
 3335W        W19596  11.960  17.752   5.631  0.1952  0.6179  0.1489
 3336W        W19597  11.896   6.806  11.415  0.3752  0.4559  0.3795
 3337W        W19598   8.900  10.212   3.979 -0.0124 -0.4067 -0.0995
 3338W        W19599   1.812  14.433   5.325 -0.0275 -0.2707  0.1284
 3339W        W19600  15.497  17.918   1.558  0.2110  0.4132  0.1187
 3340W        W19601  12.185   1.229  14.580  0.1651 -0.0004 -0.0270
 3341W        W19602   5.695  13.139   4.805  0.1859 -0.3654 -0.3163
 3342W        W19603  13.489   6.376   2.959  0.1306  0.0216 -0.0724
 3343W        W19604   2.530   3.164   5.561 -0.1310  0.0626  0.0633
 3344W        W19605   1.976  14.630   5.830  0.3243 -0.0629 -0.1436
 3345W        W19606   0.111   3.741   3.543 -0.1013 -0.1500 -0.2902
 3346W        W19607   7.219   8.366   3.199 -0.2252  0.0587  0.1069
 3347W        W19608  10.230   4.503   1.149 -0.3457  0.3016  0.1223
 3348W        W19609   0.360   3.323   2.713 -0.2789  0.1595  0.1870
 3349W        W19610  11.394   1.991   2.214  0.1457  0.0783  0.2338
 3350W        W19611   6.953   5.934   0.201  0.2292 -0.0397  0.1080
 3351W        W19612   7.366  16.253  15.178 -0.0939 -0.0350  0.3803
 3352W        W19613   1.141   4.938   5.573  0.1099 -0.0707 -0.2587
 3353W        W19614  15.031  12.627  13.824 -0.1958 -0.1089  0.0837
 3354W        W19615   1.252   9.967  15.890 -0.2939  0.0225  0.4103
 3355W        W19616   5.447  16.616   4.918  0.0686  0.0768  0.1281
 3356W        W19617   6.605  18.217   3.747  0.3365 -0.0511  0.1546
 3357W        W19618  10.228  13.022   4.407 -0.2193 -0.0455 -0.1877
 3358W        W19619  16.043   8.805   3.056 -0.1125  0.1616 -0.0464
 3359W        W19620  14.174   5.556   3.022 -0.2316 -0.1748  0.1334
 3360W        W19621   5.755  13.237   2.091  0.0764  0.1284  0.2068
 3361W        W19622   8.690  13.810  12.947 -0.2280 -0.3223  0.0353
 3362W        W19623   0.046   8.485  14.392 -0.0599  0.1294 -0.1349
 3363W        W19624  15.052   2.515   5.009 -0.1210  0.1869  0.0764
 3364W        W19625  14.231   5.846   3.881 -0.4288 -0.1190 -0.1497
 3365W        W19626  11.962   8.121   5.007 -0.0354 -0.4620 -0.1531
 3366W        W19627  16.547   3.457   1.351 -0.2430  0.1151 -0.0989
 3367W        W19628  11.159  13.278   0.855  0.3333 -0.0781 -0.1364
 3368W        W19629  12.490   8.463  15.682  0.0029  0.1591 -0.2501
 3369W        W19630   8.553   5.048   2.712 -0.2106 -0.1177 -0.1910
 3370W        W19631   9.967   4.396   0.099  0.2420 -0.2299  0.0473
 3371W        W19632  10.482  10.819  12.031 -0.2477 -0.0338  0.0338
 3372W        W19633   2.507   7.408  12.086 -0.0127  0.1229 -0.2849
 3373W        W19634  16.233   1.376  12.320  0.2582 -0.1221  0.0202
 3374W        W19635  10.772  17.317   6.345  0.1850 -0.2623  0.0146
 3375W        W19636  16.589   1.596  11.734  0.1692 -0.3293 -0.1384
 3376W        W19637   5.670   8.610   3.073  0.1357 -0.0757 -0.0450
 3377W        W19638   0.841   3.742   1.188  0.0891  0.0970 -0.1011
 3378W        W19639   8.687   5.253  11.070 -0.1311  0.0091 -0.0259
 3379W        W19640   4.909  11.159   2.381  0.2187  0.1184  0.0905
 3380W        W19641  11.802   3.254   3.592  0.0703  0.0969  0.2342
 3381W        W19642   3.806   5.717  12.931  0.1296  0.1571 -0.1259
 3382W        W19643  12.849  17.311   5.147 -0.0590 -0.0658 -0.1824
 3383W        W19644   6.001   7.064   2.490 -0.1860  0.0641  0.4238
 3384W        W19645   2.784  10.840  14.170 -0.1872  0.0417 -0.1108
 3385W        W19646  14.313   1.257   1.956 -0.3753 -0.3507 -0.2160
 3386W        W19647   5.577  12.599  14.494 -0.1046  0.0987  0.0971
 3387W        W19648   8.826   5.254  16.138 -0.0971  0.4192 -0.0508
 3388W        W19649   8.271  12.680   0.633  0.2791 -0.0764 -0.0522
 3389W        W19650   8.878   1.043  11.299  0.2461  0.3585 -0.2325
 3390W        W19651   0.588  13.574   2.340  0.0513 -0.2364 -0.1536
 3391W        W19652   9.456   0.702   3.213 -0.2001  0.0965 -0.0447
 3392W        W19653   8.485   9.313  10.759 -0.2139 -0.2727 -0.2285
 3393W        W19654   6.557  16.873  12.525 -0.2320 -0.0119  0.0856
 3394W        W19655  16.457   1.150   1.189  0.1141  0.2407  0.1351
 3395W        W19656   3.788  14.687   5.163  0.1292  0.1254  0.1208
 3396W        W19657   7.006   5.528  15.915  0.1975  0.2063  0.3576
 3397W        W19658   2.569  12.849  15.157  0.2410  0.1861  0.1579
 3398W        W19659  14.074  12.512   3.561 -0.0378 -0.0380  0.3938
 3399W        W19660   4.105   7.260  13.455 -0.0548 -0.1721  0.3320
 3400W        W19661  17.648  16.146  13.915 -0.0465 -0.2201  0.1560
 3401W        W19662  18.003  12.701  13.579  0.2176 -0.2077  0.2547
 3402W        W19663  11.687   9.229   3.290  0.1106  0.1848 -0.1181
 3403W        W19664   2.093  10.710   1.565 -0.1552 -0.0262 -0.1233
 3404W        W19665  11.137   6.103  13.000 -0.1847  0.0111 -0.1217
 3405W        W19666   3.177   7.113  13.464 -0.1192 -0.0495 -0.1652
 3406W        W19667   3.550  11.040  13.843  0.0474  0.3217  0.1850
 3407W        W19668  12.446   3.294  14.114 -0.0422  0.3783 -0.0637
 3408W        W19669   7.118  13.978   2.341 -0.0587  0.4362  0.1140
 3409W        W19670   0.111  15.763   0.862 -0.2803 -0.0784  0.0082
 3410W        W19671   8.966  11.012  15.707 -0.0429 -0.0194 -0.2971
 3411W        W19672  10.494  10.395  12.404 -0.1532 -0.0286  0.1675
 3412W        W19673   9.768  17.406   2.863 -0.2786 -0.2476 -0.2680
 3413W        W19674  13.548   4.729   1.324  0.1476 -0.4388 -0.0408
 3414W        W19675   7.270  10.186  11.910 -0.1145 -0.2491  0.1759
 3415W        W19676   4.331  12.572   2.043 -0.0515  0.3221 -0.0418
 3416W        W19677   0.409   0.863   0.818  0.0040 -0.1139  0.0408
 3417W        W19678   2.796   6.574  11.370  0.0178 -0.2167  0.1016
 3418W        W19679   8.248   9.983   3.203  0.3020  0.1156 -0.0353
 3419W        W19680  12.419  12.058   5.276 -0.1178  0.3736  0.0499
 3420W        W19681   6.977  17.241  13.239  0.1490  0.1263 -0.1870
 3421W        W19682  17.944   1.189   3.999  0.1976  0.0140  0.0010
 3422W        W19683   6.501   7.631  15.290 -0.0907  0.0479  0.0373
 3423W        W19684   2.684  18.386   5.477 -0.3473  0.1379 -0.2166
 3424W        W19685  17.825   6.132  11.371  0.0207 -0.0924  0.3367
 3425W        W19686   5.890   2.159   1.623  0.1396 -0.1550  0.2812
 3426W        W19687   8.949   4.705   5.559  0.1118 -0.1767  0.0657
 3427W        W19688  17.953  12.707  14.758 -0.0989 -0.1791 -0.0329
 3428W        W19689  15.536  17.251   2.670 -0.3325  0.0908  0.1862
 3429W        W19690  15.441   4.359  15.352  0.1657 -0.2573 -0.2155
 3430W        W19691  14.914   7.022  13.020 -0.1347  0.0764 -0.1074
 3431W        W19692  17.507   9.804  15.751 -0.1058  0.0377 -0.1172
 3432W        W19693  14.042  13.343  15.982 -0.0650  0.2069 -0.0608
 3433W        W19694  10.852   8.299  11.520 -0.0237  0.4816 -0.1939
 3434W        W19695   7.449  16.830  11.819  0.1702 -0.1337 -0.0830
 3435W        W19696  11.653  16.879   4.231  0.0130 -0.1023  0.1056
 3436W        W19697   2.479   3.404  12.224 -0.0535  0.0089  0.0928
 3437W        W19698   8.103   3.244   0.216  0.3551 -0.1633  0.1184
 3438W        W19699   7.599  15.290   5.297  0.0227 -0.3949  0.3116
 3439W        W19700  12.053  17.585  13.466 -0.0217 -0.0553  0.3000
 3440W        W19701   0.587   5.350   3.042  0.0945  0.1328  0.3558
 3441W        W19702  16.644   1.525   3.782 -0.0854  0.3837 -0.1783
 3442W        W19703   4.334  17.497  12.974 -0.0960  0.0975  0.1757
 3443W        W19704  12.043   6.296   1.699 -0.1160  0.1424 -0.1424
 3444W        W19705   2.696   6.164   1.460 -0.0746  0.1642  0.1760
 3445W        W19706   1.914   2.572  13.286 -0.0484 -0.1087 -0.0767
 3446W        W19707  16.886   8.302   5.283  0.2167 -0.1066  0.1523
 3447W        W19708  17.234   9.928  12.470  0.0634  0.5082 -0.1080
 3448W        W19709  17.430  14.024   0.639 -0.1099  0.0315 -0.1968
 3449W        W19710  12.635   3.278   1.849 -0.0091  0.1869  0.0984
 3450W        W19711  15.871  12.885  15.097  0.0682  0.0986  0.2043
 3451W        W19712   7.578   5.504   4.521  0.1582 -0.2554 -0.3458
 3452W        W19713   0.733  11.811  15.722 -0.0633 -0.0112 -0.0324
 3453W        W19714  17.667   1.703   3.826 -0.2641 -0.3972  0.0890
 3454W        W19715   2.862   3.566   5.507  0.0608  0.0779 -0.0904
 3455W        W19716  13.880  17.544   1.457  0.2564 -0.1523  0.4057
 3456W        W19717   3.227  12.938   4.268 -0.2892 -0.1589 -0.0328
 3457W        W19718   2.796  12.274   3.476  0.0961  0.1904 -0.0822
 3458W        W19719   0.789  10.935   1.628  0.3186  0.0994  0.1076
 3459W        W19720   6.017   0.575   0.933 -0.0298 -0.3999  0.1758
 3460W        W19721  16.466  16.146  14.866  0.1892  0.0273 -0.3051
 3461W        W19722   0.514  12.445  14.557 -0.0498  0.0210  0.2529
 3462W        W19723  11.947   4.907  12.517  0.0233 -0.0388 -0.2023
 3463W        W19724   9.447  14.193  13.190  0.1877 -0.1851  0.0999
 3464W        W19725  15.230  15.878  14.074  0.1975 -0.1351 -0.0782
 3465W        W19726   7.907  12.434   0.385 -0.2939  0.0929 -0.0660
 3466W        W19727   3.332   8.306   1.979  0.0835 -0.3068 -0.0401
 3467W        W19728   8.992   4.042   4.152 -0.0838 -0.1615  0.0532
 3468W        W19729   2.341   0.838  14.938 -0.0438 -0.0547  0.2877
 3469W        W19730   9.111   1.500  15.229 -0.3275 -0.5070 -0.1900
 3470W        W19731  11.383   9.056   6.072 -0.1865  0.0107  0.0998
 3471W        W19732   1.967   3.612   3.528 -0.1645  0.1936 -0.1369
 3472W        W19733  15.788  17.237   1.647  0.0031 -0.2651 -0.4887
 3473W        W19734  14.771   3.380  13.255 -0.3334  0.0071 -0.1455
 3474W        W19735  16.832   5.486  14.466 -0.1843 -0.0914 -0.1928
 3475W        W19736  11.430   9.911   3.003 -0.2712  0.0152 -0.4747
 3476W        W19737   5.660   0.570  14.489 -0.1913 -0.3658  0.3817
 3477W        W19738  13.484   4.048   2.940 -0.3780  0.2076 -0.2264
 3478W        W19739  16.843  14.794   6.196  0.0162 -0.1303  0.3224
 3479W        W19740   1.572   6.212  15.288  0.0628 -0.1601  0.0170
 3480W        W19741  10.575   5.438   0.114 -0.0599 -0.1527  0.1084
 3481W        W19742   9.554   9.770  14.219  0.1378  0.3401  0.2498
 3482W        W19743  14.401   4.419  12.023 -0.1114  0.1544  0.0211
 3483W        W19744   0.272   7.834  13.155  0.1542  0.0575  0.0508
 3484W        W19745  17.515  13.987  11.686  0.1549 -0.1159 -0.1573
 3485W        W19746   8.482  14.951   1.059  0.4670  0.2903 -0.1466
 3486W        W19747  16.909   3.763  15.377 -0.1281 -0.0170 -0.1176
 3487W        W19748   6.650  13.677   3.555  0.2600  0.0521  0.2492
 3488W        W19749  13.235   3.909   1.884 -0.2799  0.3769 -0.0118
 3489W        W19750   9.226   3.963  16.261 -0.2678  0.0805  0.0841
 3490W        W19751  14.934   1.165  13.512 -0.0914  0.0981 -0.1656
 3491W        W19752   1.801  15.351   3.678 -0.0042  0.0769 -0.2296
 3492W        W19753   1.831   1.887   3.859  0.1114  0.0801  0.0728
 3493W        W19754   2.303   7.199  16.183  0.1092  0.2349  0.0269
 3494W        W19755  18.335   2.593  16.172  0.5490  0.0726  0.2564
 3495W        W19756   3.069  12.524  15.211 -0.0424 -0.0063 -0.1221
 3496W        W19757   8.024  12.227  15.524  0.0390 -0.2439  0.4195
 3497W        W19758   0.195  18.280   3.385 -0.0779  0.0621  0.0545
 3498W        W19759   6.186   6.842  11.035  0.0402 -0.0363 -0.0641
 3499W        W19760   6.459   1.259   3.508  0.0133 -0.1301  0.3385
 3500W        W19761  12.372   5.727   1.021  0.0288  0.2476  0.2647
 3501W        W19762   6.340   5.391   4.314 -0.0567  0.1270  0.1498
 3502W        W19763   8.884  10.812   3.259 -0.1568 -0.2208 -0.1500
 3503W        W19764  15.557   6.294   2.387  0.1951  0.1811  0.2756
 3504W        W19765  16.554  14.321  15.453 -0.1888 -0.3816  0.2387
 3505W        W19766   7.392   7.726   4.453  0.2381  0.0024 -0.1974
 3506W        W19767  14.954   9.663   6.080 -0.2563 -0.0960 -0.0697
 3507W        W19768  14.539   0.270   5.401  0.0424 -0.1499  0.1070
 3508W        W19769   3.753  16.342  12.197 -0.0608 -0.0827  0.0363
 3509W        W19770   2.079  10.270   5.099 -0.2315 -0.3437 -0.1215
 3510W        W19771  18.367   1.320   0.049 -0.0276 -0.0607 -0.1122
 3511W        W19772   9.286  15.051  11.894  0.1398  0.1549 -0.1890
 3512W        W19773   0.078   5.026   0.285  0.1469  0.0399  0.0867
 3513W        W19774  16.516   2.516   0.921 -0.0331  0.1729 -0.2283
 3514W        W19775   7.440   5.504  14.854 -0.0759  0.2613 -0.1961
 3515W        W19776   1.590   8.674  15.229 -0.0553  0.0871  0.1339
 3516W        W19777   5.421  11.623  14.374 -0.2603  0.1680 -0.0754
 3517W        W19778  18.141  13.862   1.629  0.1669 -0.2167 -0.0922
 3518W        W19779  13.113  16.367   0.552 -0.2122 -0.3290 -0.0207
 3519W        W19780   4.168  15.489   3.068  0.0997 -0.2523 -0.1983
 3520W        W19781   2.252   0.647  13.213  0.0115 -0.0754 -0.0888
 3521W        W19782  13.649  12.998   2.134 -0.0091 -0.0046 -0.0951
 3522W        W19783  13.591  12.805   0.347 -0.2606  0.0481 -0.3776
 3523W        W19784   4.962   0.732   1.724 -0.2152  0.0588 -0.1254
 3524W        W19785  11.745  13.332  12.705 -0.2244  0.0749  0.0434
 3525W        W19786   8.558   7.787  13.276 -0.0629  0.1384  0.2540
 3526W        W19787  13.431   9.049  15.133 -0.1360 -0.1198  0.0024
 3527W        W19788   6.006  18.378   1.077 -0.0350  0.0524  0.0651
 3528W        W19789  11.620  11.042  11.514  0.1210  0.1716 -0.2375
 3529W        W19790  16.577  10.918   1.254  0.0830  0.1666  0.1406
 3530W        W19791   0.264   6.469  15.165 -0.0594 -0.0663 -0.1299
 3531W        W19792   7.033   0.940   2.328  0.1560  0.0381  0.2147
 3532W        W19793  11.869   0.460   5.449  0.1735 -0.1120 -0.1898
 3533W        W19794  11.558   1.377   2.729 -0.1411  0.3890 -0.1481
 3534W        W19795  17.726   4.738  11.779  0.0616 -0.3601  0.2920
 3535W        W19796   8.894   4.821  12.527  0.1272  0.0261  0.1239
 3536W        W19797   1.782   6.955  14.939  0.0256  0.3755  0.1509
 3537W        W19798   5.386  15.186  13.848 -0.1633  0.1711 -0.1182
 3538W        W19799   3.108   5.854  16.237  0.2498  0.1426  0.0692
 3539W        W19800   1.741   0.841  13.217 -0.0792 -0.1679  0.2675
 3540W        W19801   2.229   8.665  12.377 -0.0299 -0.1285  0.1781
 3541W        W19802  11.323  10.905  13.378  0.1045 -0.0765  0.0447
 3542W        W19803   5.894   7.455  14.307  0.1223  0.1423 -0.0338
 3543W        W19804   3.486  11.808  13.258 -0.1471  0.3608 -0.0228
 3544W        W19805  15.303   9.731   3.784 -0.1014  0.0079  0.1423
 3545W        W19806   4.298   8.970   3.886 -0.2596 -0.1810 -0.1775
 3546W        W19807   4.419   9.392  11.060 -0.2843  0.5335 -0.1299
 3547W        W19808  18.118  16.748   3.335 -0.0124  0.2040  0.1691
 3548W        W19809   0.556  14.409   5.533  0.4000 -0.1785 -0.0929
 3549W        W19810  16.209   6.439   3.669 -0.2405  0.1118 -0.0859
 3550W        W19811  15.065  13.922   3.017  0.2586 -0.0928 -0.0362
 3551W        W19812   3.117  18.178  12.758  0.1363 -0.0736 -0.0110
 3552W        W19813   9.449   5.050  14.266  0.0529  0.1703 -0.0446
 3553W        W19814   1.395  15.782   0.154  0.1353  0.1827 -0.0307
 3554W        W19815   0.060   4.430  12.427  0.3006  0.1839 -0.4948
 3555W        W19816  14.025   5.956  14.703 -0.1650 -0.0405  0.0266
 3556W        W19817  13.267  10.621   5.123  0.1796  0.0101 -0.2702
 3557W        W19818   2.911   3.410  15.835 -0.1626  0.1471 -0.1489
 3558W        W19819   4.218   2.892   3.668 -0.2735  0.0287  0.0082
 3559W        W19820  17.886  11.074  10.849 -0.1619 -0.1186 -0.0368
 3560W        W19821  12.091  10.460   0.025  0.0130  0.4438 -0.0826
 3561W        W19822  16.382  14.194   5.362  0.2012  0.1353  0.0074
 3562W        W19823   4.995   9.616  12.488 -0.3622 -0.0858 -0.0204
 3563W        W19824  12.198   0.723  15.437 -0.0525  0.0512 -0.0252
 3564W        W19825   0.359   5.166   3.933 -0.1535 -0.0205  0.1799
 3565W        W19826  14.788  14.117  15.221  0.0670  0.0319 -0.2534
 3566W        W19827   0.162   9.992  15.390 -0.4729  0.3187  0.0680
 3567W        W19828  13.278   1.579  12.272  0.1074 -0.1153 -0.1834
 3568W        W19829  18.019   9.257  13.764  0.0006 -0.0498  0.3796
 3569W        W19830   3.007   9.655  15.603 -0.2088 -0.1101 -0.2325
 3570W        W19831  11.046  17.623  11.735  0.1744  0.0047  0.3521
 3571W        W19832  11.586   3.506   1.579  0.1380  0.1038  0.0712
 3572W        W19833  15.503  17.388   4.598 -0.2209  0.0694  0.2223
 3573W        W19834   1.390   3.173   5.021 -0.3115 -0.1259  0.2307
 3574W        W19835  13.385  14.357  12.508  0.4679 -0.0870  0.2792
 3575W        W19836  10.072   9.698   1.949  0.3782  0.0706  0.0443
 3576W        W19837  12.794   0.930  14.860 -0.1187 -0.2519 -0.2073
 3577W        W19838  16.799   2.682   0.051 -0.0050 -0.1389 -0.1311
 3578W        W19839   9.489  18.151  15.238  0.0435  0.0118 -0.2206
 3579W        W19840  14.963   8.460  13.457 -0.2072 -0.0544  0.2089
 3580W        W19841  15.033   7.271   3.242  0.0489 -0.1129  0.0435
 3581W        W19842   5.454   2.385  14.796 -0.3115 -0.1031 -0.0629
 3582W        W19843  16.229   3.612  14.569 -0.0072  0.5042  0.3661
 3583W        W19844  13.589  16.783  16.283  0.1944 -0.1812 -0.1230
 3584W        W19845   0.002  18.071   4.725 -0.1384 -0.1432  0.0951
 3585W        W19846   4.499   7.468   0.158 -0.1767  0.1606  0.0662
 3586W        W19847   2.994   2.793   1.841 -0.0430  0.1395 -0.0121
 3587W        W19848  17.487   9.539  11.518  0.1035 -0.2132  0.0976
 3588W        W19849  12.080   4.185   3.905  0.1587  0.1128 -0.0762
 3589W        W19850  12.594   8.028   2.092 -0.0025 -0.0998  0.3555
 3590W        W19851   4.993  10.408  11.704  0.2808  0.2408 -0.0821
 3591W        W19852   4.507  14.423   5.329  0.1703  0.0644  0.0908
 3592W        W19853   3.692  14.141  13.960  0.2264  0.1853  0.1048
 3593W        W19854  17.828  13.296  14.795  0.3944  0.3364 -0.2408
 3594W        W19855   2.528  13.627  13.359  0.1170  0.1818 -0.1761
 3595W        W19856   4.270  11.224  11.538 -0.2555 -0.1111  0.1079
 3596W        W19857  12.408   9.533  12.022  0.0339  0.2049  0.0682
 3597W        W19858  15.324   5.033   3.889 -0.1144 -0.4299 -0.0192
 3598W        W19859   6.467   6.458   1.557  0.0516  0.1889 -0.1151
 3599W        W19860  17.406   0.177   1.367 -0.1816  0.1831 -0.4090
 3600W        W19861   2.245   7.225  11.262 -0.2429 -0.3721 -0.2818
 3601W        W19862   1.642  16.068   2.347 -0.0238 -0.2810  0.1498
 3602W        W19863  10.390   5.146  14.397 -0.0815  0.0952 -0.2085
 3603W        W19864  10.745   2.572   4.058  0.1367 -0.2839 -0.1492
 3604W        W19865  11.270  11.787  13.396 -0.0336  0.0152 -0.1117
 3605W        W19866   5.995  16.566   2.346  0.1475  0.1129  0.0912
 3606W        W19867   8.579   6.932  14.098 -0.1314  0.2045  0.2139
 3607W        W19868  13.117  11.625  16.046 -0.0591  0.3395 -0.3094
 3608W        W19869  13.194  11.497   4.467 -0.0151 -0.1776 -0.1566
 3609W        W19870   9.878   2.020  13.077  0.3867 -0.1885 -0.2977
 3610W        W19871   9.624  17.588  15.518  0.1692  0.2129 -0.2084
 3611W        W19872  11.275  15.296   1.170 -0.1374  0.1237  0.1373
 3612W        W19873  12.913  16.240  12.933  0.1895  0.0504 -0.0100
 3613W        W19874   5.960   7.139   1.998  0.0250  0.0801 -0.0447
 3614W        W19875  15.473   7.029   4.434 -0.2418 -0.1628  0.1145
 3615W        W19876  13.664  10.178  12.952  0.1320  0.1703  0.1273
 3616W        W19877   3.439  16.355   2.117 -0.1066  0.1058 -0.0057
 3617W        W19878   4.009  15.985  12.367 -0.2345  0.1472 -0.0144
 3618W        W19879  16.615   1.628   4.592  0.2055  0.2149  0.1014
 3619W        W19880   0.591  11.582  14.303 -0.0764  0.3129 -0.1411
 3620W        W19881   2.530  16.845   1.509  0.2226 -0.0324 -0.3867
 3621W        W19882   9.010   8.114   0.799  0.1501  0.0363 -0.0149
 3622W        W19883  13.184   8.783   4.023 -0.1783 -0.0738  0.1595
 3623W        W19884  13.526  11.564   3.819 -0.1862  0.1402 -0.1985
 3624W        W19885   3.238   5.676   3.056 -0.2039  0.0145 -0.0577
 3625W        W19886   0.242  10.892   4.916  0.0224  0.1706 -0.2183
 3626W        W19887  14.678  13.639   4.484 -0.0458 -0.1970 -0.0686
 3627W        W19888  10.950   7.630   3.933 -0.2161  0.1566 -0.1062
 3628W        W19889  11.664  10.739  14.395 -0.0555  0.1188  0.2787
 3629W        W19890  10.196  13.562  12.703 -0.1061  0.0647  0.2040
 3630W        W19891  13.075   5.397   3.081 -0.0731  0.2579 -0.0731
 3631W        W19892   5.903  10.910   2.711  0.1380  0.1900 -0.0711
 3632W        W19893  17.211   0.790   3.905 -0.2270 -0.1640  0.0647
 3633W        W19894  10.741   9.969  12.514  0.1905 -0.0539 -0.0841
 3634W        W19895  13.587  12.349  13.690 -0.0093 -0.1811  0.1285
 3635W        W19896  16.757  12.770   3.669 -0.2274 -0.0327 -0.2192
 3636W        W19897  11.592  12.912   3.811  0.0966 -0.0844 -0.2610
 3637W        W19898   8.320   7.282   2.541 -0.1018 -0.2520  0.0272
 3638W        W19899  15.496   7.002  13.056  0.0003 -0.0868 -0.0534
 3639W        W19900   4.962   9.868  13.443 -0.1454 -0.1576  0.2478
 3640W        W19901   5.371  12.281   0.538 -0.0818  0.0811 -0.1140
 3641W        W19902  17.449   7.628  13.988  0.0274  0.1491  0.0258
 3642W        W19903   7.228   1.241   3.656  0.0451  0.1638 -0.1237
 3643W        W19904   1.248   0.683  12.029  0.3166  0.1329  0.2934
 3644W        W19905   6.096  15.776   3.464 -0.0040 -0.1301  0.1889
 3645W        W19906  15.495   3.962   1.359  0.1719  0.2183  0.1277
 3646W        W19907  13.502   8.703  13.675 -0.2655 -0.0726  0.0839
 3647W        W19908   4.198   4.816  12.387 -0.0608 -0.0224  0.1111
 3648W        W19909  16.393  10.813  11.813 -0.1943  0.0650  0.2122
 3649W        W19910   0.090   0.256  14.285 -0.3946 -0.2686 -0.1019
 3650W        W19911   5.644  15.225   1.815  0.3009 -0.1311  0.0119
 3651W        W19912  17.190   0.734   0.698  0.2725  0.1866  0.0030
 3652W        W19913   8.752   0.916  14.198 -0.2340 -0.0440 -0.0464
 3653W        W19914  15.609   5.086  13.914 -0.4115  0.0490  0.1403
 3654W        W19915   9.635   5.708   1.769 -0.2416 -0.1071 -0.2550
 3655W        W19916   5.864   2.953  14.848  0.2281 -0.1858  0.0468
 3656W        W19917   2.009   2.266   1.874  0.0261 -0.0282 -0.2229
 3657W        W19918   0.601  12.866   3.253 -0.4248 -0.0132 -0.2351
 3658W        W19919  11.765   5.397   2.781  0.0318 -0.0244 -0.1985
 3659W        W19920  11.583  14.964  14.104 -0.4624 -0.1815 -0.3445
 3660W        W19921  16.801  16.189   2.086  0.0399  0.0684  0.0439
 3661W        W19922   0.816  10.484   5.358 -0.0017  0.0323 -0.3469
 3662W        W19923  15.683   7.580  12.744 -0.1238  0.1095 -0.2474
 3663W        W19924   0.781  18.108  13.649  0.3811  0.0465  0.1541
 3664W        W19925  17.014  16.218   1.572 -0.3731 -0.2019  0.5989
 3665W        W19926   2.689   9.341   3.793  0.3265  0.1050  0.2936
 3666W        W19927   3.661  10.021  14.863 -0.0790 -0.0700 -0.0926
 3667W        W19928  15.987   0.877  15.138 -0.0855  0.0857 -0.4117
 3668W        W19929   7.584  11.045  16.041 -0.1124 -0.0627 -0.0818
 3669W        W19930   3.886  13.000  15.758  0.1595  0.1025  0.0724
 3670W        W19931   9.335   2.982   2.786  0.3004  0.1525  0.0023
 3671W        W19932   4.719   7.409  15.118  0.0233  0.0730 -0.1693
 3672W        W19933  13.088  13.619   3.620  0.1513 -0.0437  0.1673
 3673W        W19934  12.316  12.688   1.406  0.2464 -0.0842 -0.0026
 3674W        W19935   5.730   2.831  15.788 -0.3752 -0.0075  0.0390
 3675W        W19936   3.794   3.978  12.666  0.0278  0.2688 -0.1022
 3676W        W19937  18.283   5.364   4.890  0.0121  0.0301 -0.0998
 3677W        W19938  11.761  14.344   1.733 -0.4614 -0.0566 -0.0014
 3678W        W19939  11.049   3.628   1.893  0.0134  0.0662 -0.1028
 3679W        W19940   4.222  15.221   1.246  0.1212  0.4129 -0.0397
 3680W        W19941   4.773  11.942   4.692 -0.0153  0.0815  0.2585
 3681W        W19942   4.541   2.810   0.678  0.0099  0.2863 -0.3188
 3682W        W19943  12.093  15.163  15.952 -0.0672 -0.0550 -0.2953
 3683W        W19944   8.838   0.905   3.048  0.2637 -0.0225 -0.3394
 3684W        W19945   8.451   1.102   3.255 -0.1060  0.0743 -0.1467
 3685W        W19946   9.097   4.100  11.247 -0.0175  0.1332  0.3480
 3686W        W19947  13.953  11.198   0.914  0.2608  0.1703 -0.0941
 3687W        W19948   2.448   9.631   2.532  0.2687  0.0718 -0.0969
 3688W        W19949   3.530   9.730   5.545  0.1113  0.0184 -0.1088
 3689W        W19950  17.506   0.116  11.705 -0.3428  0.2306  0.2295
 3690W        W19951  10.137  11.388   1.942  0.3864  0.0428 -0.0414
 3691W        W19952  12.442   2.784   5.987  0.1187 -0.0009  0.0016
 3692W        W19953   0.104   5.315  15.544  0.0153 -0.0344  0.0397
 3693W        W19954   0.762  17.606   4.360  0.1405 -0.1613 -0.3555
 3694W        W19955   3.545  17.164  13.815 -0.1911  0.2484  0.1404
 3695W        W19956  15.204  11.988   2.310 -0.1581 -0.0196 -0.3498
 3696W        W19957   1.851   3.738   2.126 -0.3443  0.3046  0.2076
 3697W        W19958  12.555   1.823   2.679  0.1559  0.1434 -0.2797
 3698W        W19959   6.278  15.296  14.756 -0.2801 -0.1189 -0.0001
 3699W        W19960  13.648   8.824   1.382 -0.0611  0.0684 -0.2928
 3700W        W19961  10.937  16.174   2.324 -0.1546 -0.0243 -0.0042
 3701W        W19962  17.613   1.284   1.232  0.1639 -0.3365 -0.0111
 3702W        W19963   5.830  13.862   1.586  0.1600  0.1107  0.2174
 3703W        W19964   4.105   1.143  12.231  0.0080 -0.2195  0.1719
 3704W        W19965   1.943   6.598  13.846  0.1226 -0.0127  0.1334
 3705W        W19966  11.636  13.849  14.736  0.1297 -0.0415 -0.1906
 3706W        W19967   9.619  12.166  11.644  0.0461 -0.0765  0.0507
 3707W        W19968  15.334  10.908   2.597  0.3274  0.0378 -0.0341
 3708W        W19969   5.428   2.787  11.485 -0.2754  0.1530  0.0752
 3709W        W19970  11.692   7.265  14.399  0.0727 -0.3661 -0.3030
 3710W        W19971  13.998  11.618  14.880 -0.0768  0.1524  0.3288
 3711W        W19972   3.505   9.130  12.855  0.0634  0.1004  0.2667
 3712W        W19973   1.889   0.914   5.660 -0.1903  0.0613  0.3308
 3713W        W19974  14.220  11.862   3.442 -0.1530 -0.0792 -0.2561
 3714W        W19975   1.457  11.116  14.317 -0.1154 -0.0814 -0.0641
 3715W        W19976  11.479  13.862  12.882  0.2309  0.1465 -0.2206
 3716W        W19977   3.496   8.683  13.044  0.2179 -0.0036  0.0866
 3717W        W19978  16.841  11.796  15.322  0.2108  0.1709 -0.0550
 3718W        W19979  16.401   4.027   5.274 -0.2156 -0.1474  0.2583
 3719W        W19980  12.464  12.366  13.824 -0.0182 -0.0266 -0.1228
 3720W        W19981  17.046  14.819  12.819 -0.1095 -0.0942  0.4611
 3721W        W19982   6.194  11.670  12.735 -0.1320  0.0077  0.0566
 3722W        W19983   8.908  16.822  11.719 -0.0947 -0.0131 -0.0418
 3723W        W19984  11.904   5.024  16.216  0.0771  0.0716 -0.1344
 3724W        W19985   4.045  14.178   3.176  0.0601  0.1908 -0.0434
 3725W        W19986   2.864  11.332   3.228 -0.5680 -0.1189 -0.1079
 3726W        W19987  15.622   0.377   2.793 -0.0229 -0.2213  0.2880
 3727W        W19988   4.541  18.181   0.501 -0.4355 -0.0190  0.4422
 3728W        W19989  17.229   5.809   4.476 -0.1854  0.1515 -0.0633
 3729W        W19990  11.159  12.974  11.477 -0.1758  0.1942 -0.1079
 3730W        W19991   0.245   1.173  13.643 -0.0523  0.0473  0.0562
 3731W        W19992   6.749   2.833  14.968  0.2940  0.1473 -0.0270
 3732W        W19993  15.995  16.523   3.028  0.0183 -0.0135  0.0629
 3733W        W19994   2.806  13.030   5.832  0.0063 -0.0984 -0.2558
 3734W        W19995   3.007   8.478  15.928 -0.0914  0.3299  0.0356
 3735W        W19996   4.564   3.400   3.942 -0.2924  0.0979 -0.1829
 3736W        W19997  11.955   2.169   3.895  0.2834 -0.0418 -0.0831
 3737W        W19998  14.023   1.367   1.349 -0.0176 -0.0192  0.0812
 3738W        W19999   4.166  17.105   0.076 -0.0616 -0.1781 -0.0867
 3739W        W20000   0.508   5.614  11.949  0.0667 -0.2353  0.0480
 3740W        W20001   2.778  11.717   2.315 -0.0894 -0.0075 -0.6641
 3741W        W20002   2.921  11.374  11.662 -0.0678  0.1771  0.1102
 3742W        W20003   8.879  13.430  13.283  0.1848 -0.0195 -0.1876
 3743W        W20004   7.523   7.080  11.458 -0.2009 -0.0381 -0.2274
 3744W        W20005   9.056  17.900  12.496  0.0172  0.1757  0.0026
 3745W        W20006   4.731   2.823  15.933  0.0310  0.5624 -0.1466
 3746W        W20007  11.684   0.480   3.677  0.2521 -0.2397 -0.2000
 3747W        W20008   6.937   0.594  16.063 -0.1259 -0.0135 -0.0953
 3748W        W20009   2.557  15.070   4.021 -0.1592 -0.2433 -0.1323
 3749W        W20010   9.662   3.402   4.649 -0.0420  0.0856  0.1087
 3750W        W20011   0.439   0.683  14.310  0.0225 -0.0266  0.0125
 3751W        W20012   7.301   5.055   1.525 -0.1916 -0.0893 -0.1530
 3752W        W20013   9.790   7.323  15.875  0.1994  0.2667 -0.3236
 3753W        W20014   2.771  12.648   2.634 -0.1958 -0.2256  0.2503
 3754W        W20015  17.797  15.273   2.915 -0.1480 -0.0449 -0.0080
 3755W        W20016   4.969  16.906   3.308 -0.1542  0.0882  0.3070
 3756W        W20017   0.756  15.803   2.236 -0.1983 -0.3368 -0.3576
 3757W        W20018   0.699   9.913  15.534  0.2763 -0.1495  0.1462
 3758W        W20019   3.414  11.465   4.427  0.1226  0.0390  0.2190
 3759W        W20020   9.066  12.362   4.028 -0.1109 -0.0342  0.1868
 3760W        W20021   7.260   1.642   6.153  0.0230 -0.0535  0.1658
 3761W        W20022   2.485   2.720  14.249 -0.1439  0.2394  0.0482
 3762W        W20023  16.734   5.829   5.237 -0.2424  0.3157 -0.1894
 3763W        W20024   3.363   1.613   3.766  0.0863 -0.0278  0.1620
 3764W        W20025   8.432  17.178   3.132  0.0049  0.4547 -0.1849
 3765W        W20026   0.129  15.408  15.203  0.2875 -0.1429 -0.0434
 3766W        W20027   3.160   5.486   0.429 -0.1782  0.0904 -0.1449
 3767W        W20028  13.982  16.841   0.267 -0.2577 -0.0825  0.0838
 3768W        W20029   5.364  17.385   4.680 -0.0424  0.1918 -0.0069
 3769W        W20030   9.857   6.144  13.186  0.1527  0.0700  0.1884
 3770W        W20031   1.604   9.660   2.323  0.1678 -0.2280  0.0765
 3771W        W20032  15.959   1.813  16.010  0.3997  0.0637 -0.3355
 3772W        W20033   8.050  17.862  12.313  0.2639 -0.0987  0.0020
 3773W        W20034  14.848   6.544   2.638  0.3227  0.2356 -0.3011
 3774W        W20035   8.456  17.122  13.446  0.1015  0.0473 -0.3403
 3775W        W20036  16.115   6.272  13.209  0.0111 -0.1445  0.0498
 3776W        W20037  17.904   9.468   4.818  0.1805  0.1379  0.5143
 3777W        W20038  13.970   7.178  16.287 -0.3762  0.2286 -0.0773
 3778W        W20039  13.613   1.419   2.576  0.2240  0.0087 -0.0423
 3779W        W20040  15.417   5.877   0.091 -0.0979 -0.2755 -0.1362
 3780W        W20041  15.950   6.142   5.335 -0.1474  0.2682 -0.1312
 3781W        W20042  14.255  12.697  11.043 -0.0693  0.3041 -0.0367
 3782W        W20043  12.934   9.689  16.265 -0.0465 -0.2376 -0.0905
 3783W        W20044   8.312   6.021   0.872  0.0581  0.0246  0.2976
 3784W        W20045  13.311  17.561   2.148 -0.1154 -0.2016 -0.0650
 3785W        W20046  14.341  12.390   1.019  0.3863  0.1570  0.2080
 3786W        W20047  14.032  16.400   5.232  0.3119  0.3605 -0.0325
 3787W        W20048   1.609   2.066   0.942 -0.2260  0.3591  0.0601
 3788W        W20049  16.476   0.370  14.761  0.2680  0.0951 -0.1377
 3789W        W20050  16.710   1.800   1.403  0.0090  0.1018 -0.1014
 3790W        W20051  11.688   6.346   3.591  0.0703  0.2252 -0.2954
 3791W        W20052   9.898   1.355  11.955 -0.1016 -0.0616  0.0973
 3792W        W20053   9.337   9.180   3.689  0.0117 -0.0997 -0.2071
 3793W        W20054  10.486   9.084   4.576  0.0850 -0.1078  0.2261
 3794W        W20055   7.982  17.174  12.125  0.1181  0.4842 -0.2061
 3795W        W20056  13.043  10.698  13.572  0.3618  0.2471  0.1616
 3796W        W20057   6.330   7.186  16.130  0.3392  0.0931 -0.0419
 3797W        W20058  16.106  17.853  12.144 -0.3125 -0.3142 -0.0453
 3798W        W20059  14.446  16.784  12.750  0.3532  0.1709 -0.0706
 3799W        W20060   5.404   1.655   0.945 -0.3182  0.2430 -0.3169
 3800W        W20061  15.721   1.616   2.622 -0.0438 -0.0598 -0.2114
 3801W        W20062  13.783  17.387   5.251  0.1368  0.2052 -0.0959
 3802W        W20063  10.516   7.011   0.228 -0.1546 -0.0968  0.5045
 3803W        W20064   9.038  13.397   4.328 -0.1521  0.1122  0.0586
 3804W        W20065   6.903  13.075   3.340 -0.4334  0.1415  0.3658
 3805W        W20066   4.826  17.180   0.899 -0.0960  0.2644  0.3256
 3806W        W20067   1.325   3.955   5.622  0.2575  0.0712 -0.0103
 3807W        W20068   9.476   8.623  13.324  0.0725  0.1012  0.2519
 3808W        W20069  16.714  13.866   3.790 -0.1495 -0.2296  0.1517
 3809W        W20070   8.489   5.871  11.735  0.0970  0.3737 -0.2882
 3810W        W20071  10.192  15.982   3.491 -0.0180 -0.1754  0.1987
 3811W        W20072  12.666   7.791   3.859 -0.0085  0.0514 -0.1016
 3812W        W20073  12.510  11.805   1.848  0.0789  0.3538  0.2635
 3813W        W20074  11.868  17.538   0.037  0.2048 -0.1166 -0.1590
 3814W        W20075   4.796  13.342   4.807  0.1071  0.1364 -0.1265
 3815W        W20076   9.406   2.311  15.659 -0.0131 -0.1365 -0.1835
 3816W        W20077  18.027  12.953   1.179  0.3457  0.1659  0.0586
 3817W        W20078  17.923   3.914  16.153  0.0327  0.1659 -0.1651
 3818W        W20079   6.349  12.208  12.956 -0.0104 -0.1683  0.1005
 3819W        W20080   5.545   4.253  14.013 -0.2353 -0.1673  0.0905
 3820W        W20081   2.295  10.287   2.448  0.0065 -0.2615 -0.1099
 3821W        W20082   1.200  12.247  13.153  0.1272 -0.4163  0.0888
 3822W        W20083   3.546   8.787   0.152 -0.3022  0.2658  0.1247
 3823W        W20084   6.052  18.059   4.626 -0.2137 -0.0481 -0.3483
 3824W        W20085  17.755   5.080  12.135 -0.2231 -0.0099  0.1390
 3825W        W20086  16.514   3.407  15.895  0.0742 -0.1193 -0.0308
 3826W        W20087  15.715   8.526   4.803 -0.1544 -0.2184 -0.1504
 3827W        W20088   5.234  13.049   0.928 -0.1527  0.1697  0.0350
 3828W        W20089  11.131   7.203  13.732  0.2611  0.5287 -0.4143
 3829W        W20090  11.697   0.398  14.132 -0.0946 -0.3583  0.0343
 3830W        W20091   9.172   8.785   0.881 -0.1898 -0.2626 -0.4391
 3831W        W20092   4.706  17.724   3.692  0.0261 -0.0038  0.2356
 3832W        W20093  11.396  12.555   2.296  0.1899 -0.4292  0.1688
 3833W        W20094  15.514  16.124  13.760 -0.3663 -0.3145  0.1275
 3834W        W20095   2.490  12.650   2.145  0.3576 -0.1140  0.1171
 3835W        W20096  17.717   9.848  14.337 -0.1215 -0.0614 -0.1662
 3836W        W20097  12.367   7.695   4.982 -0.4330  0.0337  0.0540
 3837W        W20098  10.535  16.364  11.928 -0.0742  0.0374  0.3929
 3838W        W20099   0.636   7.392  12.357  0.0925  0.0382  0.0599
 3839W        W20100  13.759   5.911  16.005 -0.0101  0.1472  0.1920
 3840W        W20101  11.018  10.944  14.946  0.2040  0.1033 -0.0180
 3841W        W20102   6.313   1.550  12.255 -0.6003 -0.2618  0.3615
 3842W        W20103  17.434   0.696   6.258 -0.1087  0.1898 -0.0403
 3843W        W20104  12.159   4.071   1.093 -0.5254 -0.1169 -0.2729
 3844W        W20105   3.208  10.495   2.223 -0.1925 -0.4627 -0.0060
 3845W        W20106  15.235   0.149  14.703  0.1252  0.1978  0.1136
 3846W        W20107  12.185   2.774  13.344 -0.1333  0.2668 -0.1826
 3847W        W20108   1.957  13.913  14.769  0.0283 -0.0462 -0.1492
 3848W        W20109  16.034  17.095  13.089  0.1374 -0.1404 -0.3397
 3849W        W20110  13.166  17.486  13.276  0.4850 -0.1854 -0.0410
 3850W        W20111   6.108  10.022   5.648  0.0673  0.1018 -0.0120
 3851W        W20112  15.272  10.013  13.312 -0.0679  0.0289 -0.0421
 3852W        W20113  13.961  17.565  15.472 -0.2800  0.1800 -0.1207
 3853W        W20114  12.589  13.056  11.631  0.0930 -0.3979  0.0901
 3854W        W20115  13.652  16.363   0.821 -0.1725 -0.4564  0.0710
 3855W        W20116   1.762  11.256   1.333 -0.1425 -0.1423 -0.0976
 3856W        W20117  13.418  13.195   4.462 -0.0131  0.4296  0.2491
 3857W        W20118   2.592  16.969  16.023 -0.0471  0.2449 -0.0152
 3858W        W20119   7.263   3.751   5.061 -0.1928 -0.1391 -0.1998
 3859W        W20120   5.125   3.769   3.399  0.1734 -0.3711  0.4845
 3860W        W20121   7.802   4.446  11.586  0.2477  0.0710  0.1857
 3861W        W20122   4.986  10.817  13.884  0.0205 -0.4865 -0.1623
 3862W        W20123   7.601   2.541   3.122 -0.1451  0.3503  0.3104
 3863W        W20124   1.585   8.503   0.641 -0.0677 -0.2932  0.0249
 3864W        W20125   2.065  10.266   0.820  0.0536 -0.2917  0.0614
 3865W        W20126   8.759   4.867  11.598 -0.2666 -0.1293  0.0657
 3866W        W20127   7.063  18.070  14.416 -0.0320 -0.0848 -0.1906
 3867W        W20128   0.910  13.668   4.025 -0.1228 -0.0609 -0.0783
 3868W        W20129   9.289  11.293   0.771  0.1128 -0.2289 -0.1679
 3869W        W20130   9.417   0.374  13.600 -0.1242  0.2460  0.1113
 3870W        W20131   7.382   6.445   5.536  0.0683 -0.1041  0.0695
 3871W        W20132   3.085  15.138   0.638  0.1793  0.0533  0.0541
 3872W        W20133   7.371  15.984  10.252 -0.2068  0.1247 -0.0509
 3873W        W20134  18.201   9.136  12.276 -0.0908 -0.0613  0.0333
 3874W        W20135   1.740   2.708  12.532  0.3104  0.1817 -0.2339
 3875W        W20136   1.286  13.585  10.415 -0.2058  0.2196  0.0735
 3876W        W20137  13.647   9.610  14.155 -0.2434 -0.3077  0.3435
 3877W        W20138  16.700  17.665  12.667  0.0209  0.1469 -0.4863
 3878W        W20139   3.943   9.845  15.283  0.0610  0.3793  0.0150
 3879W        W20140   8.233   8.966  13.441  0.1706  0.2567  0.0541
 3880W        W20141  10.207   7.742   2.325 -0.3062 -0.0038  0.0050
 3881W        W20142   8.679  14.854  16.115 -0.2346 -0.0782  0.0175
 3882W        W20143   1.820   9.978   1.148 -0.0392  0.1893  0.1899
 3883W        W20144   7.820  14.838   1.651  0.1746  0.3843  0.2291
 3884W        W20145   5.625   4.447  13.061  0.3365 -0.2353  0.0769
 3885W        W20146   4.222   6.507   1.044  0.0494  0.0015  0.0823
 3886W        W20147   0.154  12.604  12.151 -0.0217  0.1090  0.1981
 3887W        W20148   3.992  14.003  13.452  0.1863  0.1503 -0.0971
 3888W        W20149  16.747  16.897   0.761 -0.1110 -0.0194  0.0755
 3889W        W20150   0.205  11.224   3.051 -0.0573 -0.3006  0.4042
 3890W        W20151   8.163  11.632  14.439  0.0083  0.1201  0.0525
 3891W        W20152  17.128  10.232   6.256  0.1572 -0.2770 -0.3686
 3892W        W20153   8.708   6.033  15.599  0.0921  0.1466  0.0183
 3893W        W20154   5.802  10.314  14.038 -0.0163  0.0408  0.1488
 3894W        W20155  15.449  14.666   3.258  0.2150 -0.1413 -0.0723
 3895W        W20156  14.870   7.994  14.902 -0.1307  0.2037  0.0372
 3896W        W20157   0.910   7.438   6.013 -0.1224  0.0020 -0.1082
 3897W        W20158   6.085   3.855   0.436  0.2841 -0.0485  0.0682
 3898W        W20159   1.787  11.460   0.757  0.0664  0.3147 -0.1051
 3899W        W20160   3.702   7.093  15.973 -0.1115 -0.4267 -0.0349
 3900W        W20161  17.669   3.547  11.049 -0.2609 -0.2520 -0.0764
 3901W        W20162   6.119   9.272  16.256  0.1877 -0.4215  0.1009
 3902W        W20163  13.905  13.763   2.849 -0.1598 -0.0732 -0.1614
 3903W        W20164  12.252  18.331   2.291 -0.0657 -0.0018 -0.1194
 3904W        W20165   2.444   0.512   4.744 -0.0872  0.0772  0.0479
 3905W        W20166  13.227   2.061  11.224  0.2513 -0.1975  0.1691
 3906W        W20167  10.597  17.818   0.880  0.2620 -0.0782  0.0940
 3907W        W20168  10.595  10.454  12.924 -0.0657  0.0334 -0.1957
 3908W        W20169   7.931  10.651  16.029  0.0623 -0.2542 -0.1339
 3909W        W20170   8.029   1.250  15.067 -0.1481  0.0767  0.1938
 3910W        W20171   3.826   6.103  14.852 -0.0734 -0.5609  0.0273
 3911W        W20172  10.538   7.014   1.172 -0.3380  0.1870  0.1273
 3912W        W20173   7.058  17.792   5.876  0.0723 -0.1105  0.3627
 3913W        W20174   2.794  10.028   2.358 -0.0585  0.0659  0.2258
 3914W        W20175  12.217  14.938  15.497 -0.0112  0.1523  0.1718
 3915W        W20176  13.580  11.915   1.508  0.0186  0.0471 -0.0553
 3916W        W20177  15.897   4.477  14.415  0.0306  0.0044  0.1540
 3917W        W20178   2.443  17.392  14.864 -0.0891 -0.0061  0.0962
 3918W        W20179   3.971   7.788   3.592  0.2176 -0.1792 -0.0327
 3919W        W20180   5.278  14.895  13.446  0.1274 -0.0380 -0.2740
 3920W        W20181   1.122   6.319   3.252 -0.4209 -0.2335  0.1480
 3921W        W20182   3.287   1.408  15.148 -0.0425  0.2728  0.0906
 3922W        W20183  12.779   6.954  13.747  0.3020 -0.0388 -0.0799
 3923W        W20184   7.607   4.566   5.273 -0.0972 -0.0294  0.1295
 3924W        W20185   2.666  10.001  14.960  0.0539  0.0705  0.0745
 3925W        W20186  17.296  16.404  12.803 -0.0634  0.0809  0.1049
 3926W        W20187  17.599  17.626  12.092 -0.2123  0.3206  0.1625
 3927W        W20188  17.021  15.635   2.821 -0.0114 -0.0227  0.3230
 3928W        W20189   6.918   5.601  15.211  0.0641 -0.2387  0.0894
 3929W        W20190  14.704  14.873  12.872 -0.1654  0.2047  0.0947
 3930W        W20191   1.919   0.977  13.651  0.1985  0.1462  0.1345
 3931W        W20192  14.918  14.795   5.519 -0.2110  0.2682  0.1085
 3932W        W20193  17.464   3.125   4.019 -0.0794 -0.4523  0.3382
 3933W        W20194  13.845   9.983   0.452  0.0326  0.1430 -0.2225
 3934W        W20195   7.532   0.134  13.811  0.0635 -0.0200  0.0484
 3935W        W20196   6.785   3.492   5.116 -0.2596 -0.4559  0.0047
 3936W        W20197   1.661  13.775   3.034 -0.1994 -0.0306 -0.0882
 3937W        W20198   2.220   4.216   1.395  0.2944 -0.0244 -0.1326
 3938W        W20199   5.334   4.035   6.035  0.3118  0.0991 -0.0399
 3939W        W20200   8.643  13.444  16.223  0.0008 -0.2355  0.0969
 3940W        W20201  10.309   5.071   3.914 -0.0378 -0.0158 -0.2007
 3941W        W20202  11.388   5.727   3.064 -0.0309  0.1514 -0.0563
 3942W        W20203  14.810   6.412  13.889  0.0933 -0.1560 -0.2286
 3943W        W20204   1.335   3.407  14.745  0.0461 -0.2450  0.2022
 3944W        W20205   9.661  17.079   0.413 -0.1944 -0.1288  0.2151
 3945W        W20206   2.221  16.244   5.479 -0.1794  0.0260  0.1397
 3946W        W20207   4.728   9.517  12.027 -0.0806  0.1987  0.0124
 3947W        W20208  17.000   1.907   0.066  0.0261 -0.0175 -0.1091
 3948W        W20209   8.906  12.025   0.973 -0.1807 -0.0306  0.0182
 3949W        W20210   2.989   1.699   2.321 -0.0926 -0.0647  0.2410
 3950W        W20211  18.005   8.653   5.364 -0.0135  0.1559 -0.0663
 3951W        W20212  16.328  11.574   5.110  0.2468  0.0589  0.1718
 3952W        W20213  18.315  13.306   2.674 -0.0351  0.2012 -0.0803
 3953W        W20214  14.996  15.206   4.366  0.0383  0.2093 -0.1835
 3954W        W20215   6.331  15.505  15.278  0.0060 -0.0989  0.2662
 3955W        W20216   1.478   2.691  12.093  0.0673 -0.0336  0.1118
 3956W        W20217  13.913  10.230  14.643 -0.2008 -0.1065 -0.3635
 3957W        W20218   3.106  11.955   1.977  0.0741 -0.0142 -0.0622
 3958W        W20219   2.002  14.635   0.958  0.0300 -0.0128 -0.1410
 3959W        W20220   1.462  17.718   3.271 -0.1788  0.1478  0.1058
 3960W        W20221   3.262  13.672   5.391 -0.0075 -0.1220 -0.0549
 3961W        W20222   4.861   2.229   3.800  0.0948 -0.3330  0.1007
 3962W        W20223   5.715  11.963   3.044 -0.0812 -0.0560  0.1839
 3963W        W20224   3.191   0.858   1.199  0.1584  0.1667  0.1763
 3964W        W20225   2.566   2.515   1.852 -0.2639 -0.0329 -0.0034
 3965W        W20226  17.923  10.257  11.154 -0.2743  0.1665 -0.0548
 3966W        W20227   9.214  13.772  14.532 -0.0709 -0.3157  0.1526
 3967W        W20228   2.047  15.332  11.171  0.0340  0.0788 -0.0195
 3968W        W20229  14.090  11.304   4.572 -0.4860 -0.1646  0.0007
 3969W        W20230   1.663   9.423   5.187 -0.2634 -0.0616  0.2082
 3970W        W20231   8.173  15.892   4.453  0.1543  0.2675  0.0795
 3971W        W20232   7.292   0.914   5.075 -0.1193  0.1086  0.1843
 3972W        W20233  10.405  16.813   4.064  0.0486 -0.0262 -0.0150
 3973W        W20234  17.417   9.485   5.938  0.2153  0.0069  0.0232
 3974W        W20235  17.497  17.723   1.062  0.1329  0.2363  0.0672
 3975W        W20236   3.818   1.758   4.169 -0.2073 -0.0232 -0.0051
 3976W        W20237   5.056   6.507  14.816 -0.0575 -0.2230  0.1429
 3977W        W20238  18.243   6.236  13.744 -0.1792  0.2531  0.1857
 3978W        W20239  17.973   1.299   0.372 -0.1811  0.1087 -0.1262
 3979W        W20240  11.410  14.539  14.973 -0.1329 -0.1875  0.2445
 3980W        W20241   1.848   0.401  13.080  0.0467  0.0621 -0.3136
 3981W        W20242   0.642  13.973   1.954 -0.0367  0.2102 -0.1688
 3982W        W20243  12.837  16.074   3.447  0.2497  0.0670  0.1163
 3983W        W20244   2.740   8.623  12.544 -0.3535 -0.1576 -0.1045
 3984W        W20245  14.431  17.609  13.893  0.1483  0.1607  0.1202
 3985W        W20246  12.688   1.353   5.193  0.0562 -0.1060  0.0304
 3986W        W20247  10.828  11.438  16.124 -0.1916  0.0369  0.3871
 3987W        W20248  13.789  11.365  11.410 -0.0514 -0.1035 -0.2928
 3988W        W20249  11.109   1.123  16.211  0.0245 -0.1565 -0.1265
 3989W        W20250   2.825  13.161  11.605  0.3662 -0.1881  0.0288
 3990W        W20251  13.457  12.702  15.523 -0.2718  0.0183 -0.2693
 3991W        W20252  13.784  14.222   5.195 -0.2362  0.2956  0.0166
 3992W        W20253  18.089   5.191   0.638  0.1492 -0.0702  0.1511
 3993W        W20254   0.688   8.549   2.484 -0.1360  0.0865 -0.0695
 3994W        W20255   4.124   8.433   4.265 -0.0376  0.0353  0.1570
 3995W        W20256  10.104   6.548   0.341 -0.0534 -0.0141 -0.0402
 3996W        W20257   9.072   5.829   2.532  0.2413 -0.0753 -0.1341
 3997W        W20258   8.569   6.543   0.547 -0.0606 -0.1398  0.0250
 3998W        W20259   9.702   2.350   4.647 -0.0294  0.0392 -0.4655
 3999W        W20260  17.610  14.976   1.544 -0.1345  0.1319  0.1949
 4000W        W20261  13.871   3.048   1.416  0.0495  0.1795 -0.0449
 4001W        W20262   7.117   3.877   0.202  0.1056 -0.1019  0.0948
 4002W        W20263   9.175  13.013  11.509 -0.1333 -0.1306 -0.0067
 4003W        W20264   8.682  13.861  14.507 -0.0612  0.4639  0.0792
 4004W        W20265  14.061   8.060   3.636  0.3389 -0.1225  0.0695
 4005W        W20266  13.751   2.352   0.068  0.2745  0.1735  0.3492
 4006W        W20267  12.918   1.431   2.483  0.3590 -0.1070  0.0796
 4007W        W20268   6.782  17.379  12.283 -0.0675  0.1063  0.3524
 4008W        W20269  15.402   2.644  12.654 -0.0807  0.0093  0.0241
 4009W        W20270   4.908   9.429  15.109 -0.2258 -0.0563  0.0381
 4010W        W20271   0.950   0.493   1.431  0.5259  0.2409  0.0890
 4011W        W20272   0.653  16.952  15.959  0.4347 -0.0913 -0.0601
 4012W        W20273  10.755   4.415  11.502 -0.0892 -0.2231  0.2424
 4013W        W20274  13.722   7.063  13.688 -0.0667 -0.3655  0.2564
 4014W        W20275  11.262  11.994   2.377 -0.2698 -0.1128 -0.1021
 4015W        W20276  17.891  16.510   4.600  0.0013 -0.1533 -0.1291
 4016W        W20277   3.721  17.282  16.163  0.2269  0.0095 -0.2564
 4017W        W20278   1.288   6.984   0.659  0.0583  0.1924 -0.0569
 4018W        W20279   2.180  14.984   3.691 -0.0727  0.0359  0.0960
 4019W        W20280   0.746  10.772  14.257  0.1453  0.2612  0.0302
 4020W        W20281   7.154  11.885   3.002  0.2199  0.0265 -0.0286
 4021W        W20282   2.946   7.690   4.722  0.1901 -0.0292  0.0903
 4022W        W20283   2.100  14.887   5.131 -0.0374 -0.0134  0.2765
 4023W        W20284   6.009   5.880   3.360  0.0585 -0.1517  0.0198
 4024W        W20285  17.477   7.360   5.739 -0.2558  0.0745  0.0200
 4025W        W20286   8.003   4.156   3.824  0.2579  0.2113 -0.1773
 4026W        W20287   9.308  14.673  14.394 -0.0869  0.0390  0.2621
 4027W        W20288  15.526  14.191   3.186 -0.3731 -0.1580  0.0333
 4028W        W20289   4.911  15.815   5.099  0.1528  0.0232  0.1207
 4029W        W20290  12.540   6.021   0.509 -0.0044  0.4183 -0.1502
 4030W        W20291  17.275  15.356  14.561 -0.1550 -0.1092  0.0002
 4031W        W20292  13.479   1.559  15.066  0.1590 -0.1145  0.0215
 4032W        W20293   3.523   9.709  10.965 -0.1461  0.0182 -0.2631
 4033W        W20294   6.994   6.496   5.914  0.0853 -0.0378 -0.1608
 4034W        W20295   4.337   8.311  12.316 -0.0388  0.0718 -0.0792
 4035W        W20296   0.140   0.808  13.351  0.1553  0.0248 -0.1780
 4036W        W20297   8.305  15.852  11.258  0.1291 -0.2871  0.0274
 4037W        W20298  15.745  11.054   2.315  0.2029  0.0513  0.0567
 4038W        W20299   4.087  13.811   5.507  0.4071 -0.3471  0.0640
 4039W        W20300  16.026   0.351  15.259  0.0501 -0.1400 -0.3644
 4040W        W20301   5.597   3.787   4.370  0.1465 -0.1399  0.0601
 4041W        W20302  11.916  10.056  11.417  0.1030  0.0285 -0.1274
 4042W        W20303  11.294   6.450  13.952 -0.0521  0.5180 -0.0499
 4043W        W20304  16.972   9.632  11.694  0.2030 -0.0822 -0.1953
 4044W        W20305   6.284   2.528   6.280 -0.2673 -0.3845 -0.0444
 4045W        W20306   3.935  17.487   6.195  0.0248  0.3367 -0.1302
 4046W        W20307  14.330   0.068  14.513  0.0964  0.3156 -0.0621
 4047W        W20308  13.351  18.328  15.748 -0.1164 -0.0932  0.3718
 4048W        W20309  16.989  18.067   3.658  0.1243  0.0911 -0.0402
 4049W        W20310   2.534  13.527   1.333  0.0875 -0.3026  0.3897
 4050W        W20311  18.291  18.018  13.447  0.0399 -0.2260 -0.2407
 4051W        W20312  14.050   6.405   0.228 -0.1388  0.1523 -0.1062
 4052W        W20313   0.732  16.912  14.629 -0.0672 -0.0437 -0.0216
 4053W        W20314   4.534   3.323   4.468  0.5406  0.2372  0.1104
 4054W        W20315  12.598  16.280   3.873 -0.0629 -0.2757 -0.0609
 4055W        W20316  13.222  11.192   4.064 -0.1286  0.0920  0.0871
 4056W        W20317  13.084   3.018   1.038  0.1813 -0.1428  0.2467
 4057W        W20318  14.378   4.688  13.491 -0.2584  0.0582  0.2637
 4058W        W20319   4.408   9.971  14.002  0.1998  0.2908  0.0782
 4059W        W20320  17.008   3.518  15.841 -0.0011  0.2092 -0.2573
 4060W        W20321  18.329  16.160   1.133 -0.1167  0.0863  0.0596
 4061W        W20322   0.940   2.183   4.548  0.3057 -0.2068  0.4462
 4062W        W20323  12.282  13.811   3.745 -0.3477  0.2351  0.2901
 4063W        W20324   7.504  17.049  14.583  0.0524  0.1534  0.1582
 4064W        W20325  15.189  10.224  14.524 -0.1018 -0.2034  0.0296
 4065W        W20326  11.083   8.715  13.826 -0.0523  0.1384  0.1636
 4066W        W20327  15.052  18.075  13.459  0.0877 -0.2454  0.2188
 4067W        W20328   6.824   6.405  12.793  0.0697  0.1196  0.2251
 4068W        W20329   2.556  13.203   4.646 -0.1581 -0.0442  0.1394
 4069W        W20330   5.783  14.664   5.112  0.1212 -0.0326  0.2065
 4070W        W20331   6.462   3.771   4.495 -0.0797 -0.3773  0.3413
 4071W        W20332  13.948   6.291  14.292  0.1267 -0.1096  0.0887
 4072W        W20333  10.082   2.207   0.587 -0.0735  0.4496 -0.0972
 4073W        W20334   2.725   7.691  12.900  0.1099 -0.3580  0.2023
 4074W        W20335  14.365   7.450   4.273  0.2676 -0.1448 -0.1909
 4075W        W20336   4.992   9.859   0.089  0.1274 -0.2231 -0.1103
 4076W        W20337   0.108   4.304   1.659  0.0367 -0.0364  0.0840
 4077W        W20338   9.206   9.914  13.623  0.0070 -0.2381 -0.1865
 4078W        W20339   7.115   4.508  12.870 -0.0224  0.1817 -0.0809
 4079W        W20340  11.479   9.013  13.943  0.0703 -0.1319 -0.0906
 4080W        W20341   8.852   0.633   4.314  0.2813  0.1014  0.0614
 4081W        W20342   2.014   3.548  15.163  0.4939  0.0461  0.0257
 4082W        W20343  13.671   6.376   0.594  0.2364  0.2862 -0.2260
 4083W        W20344   1.041   9.925  14.509  0.0307  0.2159 -0.1243
 4084W        W20345   2.525   8.407  14.966  0.0972 -0.3207  0.0513
 4085W        W20346   4.361   7.788   4.172  0.5114  0.1825 -0.2911
 4086W        W20347   7.427  10.524   4.068 -0.3341  0.0536 -0.0540
 4087W        W20348   0.481   2.422   3.535  0.0333  0.0486 -0.2374
 4088W        W20349  14.218   3.576   4.450  0.3041 -0.0209 -0.3936
 4089W        W20350  17.280   5.642  13.920  0.2203  0.0020  0.1797
 4090W        W20351   9.310   3.537   0.825 -0.0792 -0.3997 -0.2941
 4091W        W20352  15.077   3.900   1.691 -0.0935 -0.1304 -0.2014
 4092W        W20353   5.147   8.833  13.102  0.0051 -0.4007 -0.0776
 4093W        W20354   1.714   7.656   1.349  0.1961 -0.0006 -0.0229
 4094W        W20355   1.886   3.863   5.440 -0.1392 -0.0414 -0.0635
 4095W        W20356  10.833  15.200  12.904  0.0240  0.0546 -0.2768
 4096W        W20357   6.320  11.826   5.775  0.1048 -0.0405  0.3191
 4097W        W20358  16.996  14.884   0.316  0.0838  0.0886 -0.3292
 4098W        W20359   3.467   0.656   3.956 -0.2003 -0.1912 -0.1021
 4099W        W20360  11.850  10.095   4.012 -0.3675  0.5106  0.2529
 4100W        W20361   3.244   1.963  15.032 -0.1424  0.2134  0.2073
 4101W        W20362  11.851   9.833  13.792 -0.0171  0.1596  0.1379
 4102W        W20363   3.386   6.716   1.064 -0.1082  0.0822 -0.1720
 4103W        W20364   0.025  12.142  16.196  0.1821  0.2727 -0.0359
 4104W        W20365   8.350   5.864   2.261  0.0561 -0.0165 -0.1081
 4105W        W20366   0.253  12.870  15.459 -0.0248 -0.0299  0.0501
 4106W        W20367  15.679   9.936  11.473  0.1186 -0.0535 -0.0146
 4107W        W20368   6.295  12.785  12.809  0.1607 -0.0395 -0.0926
 4108W        W20369  14.917   2.521  14.110  0.2856 -0.0408 -0.0835
 4109W        W20370  12.342  10.087   4.174 -0.1091  0.1129  0.1017
 4110W        W20371   6.534   4.082  14.483  0.0321 -0.3119  0.1288
 4111W        W20372   7.568   6.000  12.924  0.1364  0.0802  0.0953
 4112W        W20373   7.632   5.437   5.469  0.4526  0.1181  0.3380
 4113W        W20374  12.569  18.125   0.122  0.0828  0.0909  0.2018
 4114W        W20375   1.833   0.125   1.558  0.2448  0.0725  0.1646
 4115W        W20376  16.904   8.633  14.099 -0.2460 -0.3151  0.1729
 4116W        W20377   0.491  13.277   2.839  0.0623  0.1887  0.0084
 4117W        W20378  10.956  12.243   4.051 -0.0500  0.3657  0.2838
 4118W        W20379  16.322   4.781   1.770  0.3657  0.0701 -0.1906
 4119W        W20380  15.625   7.396   4.800  0.0149 -0.0728  0.0934
 4120W        W20381  12.897   9.393   2.571  0.1350 -0.0125 -0.0541
 4121W        W20382  17.385   7.658   2.480 -0.0235 -0.2531 -0.1026
 4122W        W20383  13.046  17.799   4.322  0.1119  0.4424 -0.1505
 4123W        W20384   7.467   8.110  11.950  0.0509 -0.0583 -0.2382
 4124W        W20385  17.948   5.353   3.176  0.0482  0.0975 -0.0351
 4125W        W20386   9.619   6.690  13.296  0.2041  0.1068 -0.1987
 4126W        W20387  15.663   1.978  14.601  0.0460 -0.0347  0.1329
 4127W        W20388   0.753   4.270   4.773 -0.1851  0.2078  0.1437
 4128W        W20389  16.124   1.918  14.380 -0.1829 -0.4379 -0.0790
 4129W        W20390   8.097   6.058   4.021 -0.1127  0.3149  0.2288
 4130W        W20391  11.394  10.233   4.692 -0.0364 -0.1717 -0.0737
 4131W        W20392  13.482  11.629  12.847 -0.1647  0.0433 -0.2301
 4132W        W20393  18.162  10.590   1.390  0.1244  0.0029 -0.0920
 4133W        W20394  17.267   6.243  14.712  0.1484  0.1038  0.2266
 4134W        W20395  13.596  11.262   2.004 -0.2010  0.3620  0.2048
 4135W        W20396   2.447   2.537   2.633  0.0880 -0.0571  0.0788
 4136W        W20397   2.276   7.632   1.254  0.1338 -0.0801  0.0473
 4137W        W20398  13.780   2.142   5.137 -0.0201  0.0657  0.0172
 4138W        W20399  15.320   8.226  14.881  0.2377 -0.0779  0.0904
 4139W        W20400   3.055   0.731  12.930  0.0576 -0.0952  0.3590
 4140W        W20401   9.788  10.232  14.409 -0.1014 -0.0129  0.0816
 4141W        W20402  12.362   4.799   2.706  0.1211  0.1222 -0.1112
 4142W        W20403   7.435  13.003  15.244 -0.3269 -0.5656  0.2155
 4143W        W20404  16.723   9.891   3.953 -0.0815 -0.3045  0.1033
 4144W        W20405  15.767  11.991   5.029 -0.0537  0.2405 -0.2966
 4145W        W20406   3.316  15.552   2.929 -0.0386 -0.3278 -0.1037
 4146W        W20407   7.960   3.050  13.117  0.2126 -0.0437  0.0173
 4147W        W20408   3.819  11.570   1.230  0.2737 -0.0418 -0.2582
 4148W        W20409   2.629  18.316  12.684 -0.1472  0.0986 -0.0282
 4149W        W20410  14.022   6.972   4.661 -0.0405  0.0780  0.0401
 4150W        W20411  17.677   6.089  16.051 -0.0045  0.0700  0.0223
 4151W        W20412  17.683  13.250   4.303 -0.2854  0.3199 -0.1809
 4152W        W20413  11.443  10.787   0.835  0.2249  0.1621 -0.0626
 4153W        W20414   2.407   6.351   2.313 -0.0606 -0.0900 -0.0988
 4154W        W20415   1.627  13.262  16.052  0.1092  0.0497  0.1293
 4155W        W20416   6.087   4.085  14.817 -0.0651 -0.0853  0.2997
 4156W        W20417   9.221   4.005  12.445  0.0630  0.4139 -0.2188
 4157W        W20418  17.217   8.851   1.438 -0.0699 -0.1110  0.2311
 4158W        W20419   5.682   8.128   2.957 -0.2381  0.0993 -0.0123
 4159W        W20420   9.138  15.198  14.146 -0.0892  0.0382 -0.1420
 4160W        W20421   0.219  15.309   1.605  0.3251 -0.1090  0.1601
 4161W        W20422   3.497  12.469  12.080 -0.0538  0.0111  0.2926
 4162W        W20423  18.044  15.936  12.315 -0.2386  0.2246 -0.1037
 4163W        W20424  12.281   7.616   1.069 -0.1666  0.2985  0.0414
 4164W        W20425   7.368   1.064   2.737  0.2400  0.1801  0.1139
 4165W        W20426  13.389  17.718  13.851  0.0492  0.0587  0.0105
 4166W        W20427   2.014   7.816   4.464 -0.1094  0.2481  0.1980
 4167W        W20428   8.082  11.781  15.687  0.4056 -0.0461 -0.0164
 4168W        W20429   7.411  11.551   5.028  0.2178  0.0021 -0.1385
 4169W        W20430  10.829   9.312   4.225  0.0541 -0.1778  0.0900
 4170W        W20431   0.962  14.072  12.762  0.1476  0.0167 -0.1842
 4171W        W20432   7.831  12.455  13.106  0.0164 -0.0974  0.1499
 4172W        W20433  10.079   2.576  14.607 -0.0853 -0.1911  0.1926
 4173W        W20434   1.614   7.204   1.688  0.0907  0.0202  0.2476
 4174W        W20435  15.944   0.887  12.976  0.0857  0.1576 -0.2261
 4175W        W20436   0.191  18.126  15.416  0.0482  0.3538  0.0194
 4176W        W20437  12.259   6.652   4.527 -0.5063 -0.2916  0.0011
 4177W        W20438  10.017  14.050  12.637 -0.1160 -0.1614 -0.0318
 4178W        W20439  17.700   4.536  12.898 -0.1127 -0.3352 -0.2734
 4179W        W20440  13.795   6.912  11.857 -0.1698 -0.4442  0.1130
 4180W        W20441   7.213   3.716   1.687  0.0631  0.0391 -0.0035
 4181W        W20442  16.645   5.567   2.790 -0.4046  0.1658 -0.0864
 4182W        W20443  11.795   1.373   3.211 -0.0726  0.0802  0.0023
 4183W        W20444  16.342  15.593   5.224  0.1059  0.0209  0.1098
 4184W        W20445   6.407  17.921   1.351 -0.0223 -0.0352 -0.0294
 4185W        W20446  14.774  15.921   2.284 -0.0636  0.0365  0.0733
 4186W        W20447   7.250  12.295   1.089 -0.0527  0.0246  0.1865
 4187W        W20448   7.643   6.294  11.566  0.2362 -0.1122 -0.0717
 4188W        W20449  13.313  12.037   2.359 -0.0047 -0.2204 -0.0805
 4189W        W20450  16.939  12.961   0.426  0.0569 -0.1454 -0.0857
 4190W        W20451   6.646   5.648   0.478  0.0497 -0.1476 -0.1972
 4191W        W20452   2.201   7.905   1.757  0.2273 -0.0342  0.1046
 4192W        W20453  12.151   1.290  11.595  0.0065 -0.3500  0.2279
 4193W        W20454   8.633   4.648  15.165 -0.1651 -0.1110  0.2492
 4194W        W20455   0.515   3.890  14.396  0.0186 -0.3086 -0.0870
 4195W        W20456  15.711  16.852  15.276  0.1764  0.1413 -0.1271
 4196W        W20457   8.656  14.920  11.660  0.1566  0.0202 -0.1933
 4197W        W20458   0.967  14.308   2.128 -0.1531 -0.1148  0.0063
 4198W        W20459   0.353  15.025   2.034  0.2523 -0.2523 -0.0504
 4199W        W20460   4.573  10.325  11.238  0.0858 -0.0063  0.0431
 4200W        W20461   2.656   3.039   2.741 -0.0385  0.4380 -0.4128
 4201W        W20462  17.975   6.485  16.116 -0.0640  0.2233  0.1989
 4202W        W20463   2.634  12.590  12.532 -0.2766  0.2623  0.2416
 4203W        W20464  14.097   5.434   4.311 -0.0059 -0.2197  0.0139
 4204W        W20465   9.043  16.572  13.750  0.1675  0.0638  0.0732
 4205W        W20466   9.970  15.751   3.105  0.2878 -0.0740  0.0292
 4206W        W20467   7.708   9.155   1.740  0.1859  0.0700 -0.5275
 4207W        W20468  11.344   1.104  13.664 -0.3499 -0.1014  0.2434
 4208W        W20469  10.353   2.932   4.322 -0.2371  0.2154 -0.0439
 4209W        W20470  12.200   5.574  13.705 -0.4620 -0.2684 -0.0617
 4210W        W20471   1.663   9.054  13.602 -0.6110  0.0373 -0.0555
 4211W        W20472   5.989  14.506   3.032 -0.0224 -0.1948 -0.0975
 4212W        W20473   2.713   4.602   3.755  0.1589 -0.0592 -0.1943
 4213W        W20474  10.037  15.870   2.648 -0.2955 -0.1225  0.0934
 4214W        W20475  10.821  12.695  12.501 -0.0676 -0.1263  0.0660
 4215W        W20476   8.772   6.180  12.038 -0.2219  0.1318  0.2460
 4216W        W20477   7.385   4.488  11.789  0.1437 -0.0925 -0.0854
 4217W        W20478  15.418   2.883  13.070 -0.4241 -0.0142  0.2185
 4218W        W20479   5.461  11.524  13.367 -0.3256  0.0249 -0.1214
 4219W        W20480   0.409  15.433   5.310  0.1509  0.3105  0.0411
 4220W        W20481  13.401  16.445  16.013 -0.2354 -0.0791 -0.1609
 4221W        W20482   8.266   2.111  14.036  0.0827 -0.4629 -0.2137
 4222W        W20483  13.686  13.118  11.647  0.0690 -0.1576  0.0201
 4223W        W20484   6.947   0.921  15.039  0.1876  0.0921  0.4935
 4224W        W20485  13.070  14.165  15.327  0.0997  0.0293 -0.5390
 4225W        W20486   2.132  17.698  15.196 -0.2213 -0.2708  0.0036
 4226W        W20487   9.786   9.396  12.019 -0.1221 -0.0432  0.0570
 4227W        W20488  14.433  13.640   1.525 -0.0862  0.0520  0.0978
 4228W        W20489   8.010  14.739  15.414 -0.1174 -0.2619  0.1766
 4229W        W20490  16.419  16.294   3.213 -0.2952  0.0515  0.1078
 4230W        W20491   8.774  12.067  15.080  0.4435 -0.3938 -0.1581
 4231W        W20492  11.722  14.949  13.603 -0.2198  0.2931  0.3136
 4232W        W20493  11.997   0.167  10.628 -0.0446 -0.1156 -0.1096
 4233W        W20494  14.762   0.724  12.662  0.2019 -0.1372 -0.1815
 4234W        W20495   6.419  17.657  12.641 -0.2829 -0.2007  0.3714
 4235W        W20496  16.828  10.136  13.426 -0.1040 -0.0281  0.4255
 4236W        W20497   6.821  15.248   0.209  0.0960  0.0361  0.2078
 4237W        W20498  17.393   3.464   4.487  0.0700 -0.4466 -0.0428
 4238W        W20499  12.746  15.395   4.863 -0.1285  0.0478  0.1703
 4239W        W20500   6.815   0.004   4.930  0.0592 -0.2066 -0.2699
 4240W        W20501  12.786  15.383  14.951  0.1119  0.0197  0.1602
 4241W        W20502   5.306   4.218   2.627 -0.0373  0.0420 -0.2069
 4242W        W20503  15.105  13.370   3.459  0.2065 -0.2291  0.0865
 4243W        W20504   4.305  16.895  15.950  0.1363  0.2492 -0.0320
 4244W        W20505  13.890   4.515  13.458 -0.1603  0.0239 -0.2072
 4245W        W20506   9.373   6.169   4.460 -0.2385 -0.3993 -0.2025
 4246W        W20507   7.937  15.420  15.234 -0.1792  0.1232  0.2613
 4247W        W20508   1.840   4.483  12.041  0.0978  0.1136  0.1894
 4248W        W20509  10.455   9.162  12.557 -0.2373  0.1629 -0.0741
 4249W        W20510   3.907  10.717   3.927 -0.1262 -0.2556 -0.4775
 4250W        W20511   7.650  13.780   3.157 -0.0702  0.1361  0.0698
 4251W        W20512  14.189   6.837  11.451 -0.1367  0.0102  0.1722
 4252W        W20513   3.140   8.103   5.610  0.1946 -0.1936 -0.1863
 4253W        W20514  11.293   0.757   0.810 -0.1909 -0.0077 -0.3321
 4254W        W20515   9.970   5.926   3.356  0.3084  0.2704  0.1484
 4255W        W20516   1.259  15.087  13.218 -0.1194 -0.0914  0.0563
 4256W        W20517  10.513  12.802  12.963 -0.2724 -0.1785 -0.1128
 4257W        W20518   9.805  10.534  13.111 -0.6085  0.1542  0.2050
 4258W        W20519   7.541   6.096   5.051  0.0841  0.0008  0.1880
 4259W        W20520   6.900  11.066  12.400 -0.0090 -0.2141  0.1679
 4260W        W20521  11.589  12.154  13.220  0.1789  0.0571 -0.1124
 4261W        W20522   9.135  16.366   3.121  0.0789  0.0692 -0.0673
 4262W        W20523  17.916   9.588   4.295  0.3851 -0.0050 -0.0274
 4263W        W20524   8.812   1.451   3.432  0.3334  0.0157  0.2076
 4264W        W20525  16.431  18.129  15.462  0.5496  0.0023 -0.1673
 4265W        W20526   6.699  14.247  13.073  0.1310 -0.1219  0.2803
 4266W        W20527   6.659  17.399  13.585  0.0229 -0.0679 -0.3308
 4267W        W20528  15.244   0.928  13.070  0.3426 -0.0649 -0.2462
 4268W        W20529  18.281   1.822   0.185  0.0235  0.1827 -0.2005
 4269W        W20530  13.666   9.465  15.254  0.0010 -0.0392 -0.2455
 4270W        W20531   3.691  11.146   5.249 -0.2775 -0.0892  0.0681
 4271W        W20532   9.507   2.406   2.127  0.1399 -0.2096  0.3922
 4272W        W20533   4.801  17.802   5.954 -0.0908  0.6185 -0.1372
 4273W        W20534  15.133   5.887  13.640  0.4390  0.1482 -0.1861
 4274W        W20535   2.075   5.130  15.582  0.1330  0.3191  0.1598
 4275W        W20536  10.882  11.238  14.560 -0.1063  0.3064 -0.0484
 4276W        W20537   0.949  13.857   1.072  0.0317  0.1640  0.2990
 4277W        W20538  16.701  17.567   2.394 -0.1314  0.0835 -0.3420
 4278W        W20539  16.500   9.746   3.496  0.0690 -0.0924 -0.0383
 4279W        W20540   8.264   7.756   0.074  0.0775 -0.3239 -0.0286
 4280W        W20541   5.171  12.183   3.174 -0.0512  0.2351 -0.0568
 4281W        W20542   3.880   3.037   3.303 -0.0863  0.1095  0.4066
 4282W        W20543  13.075  14.932  14.001  0.0157  0.1768 -0.0915
 4283W        W20544   0.546   7.438   4.711 -0.0403  0.0772 -0.0391
 4284W        W20545  11.714  15.505  12.685 -0.2962 -0.1637 -0.1076
 4285W        W20546  16.372  12.847  15.138 -0.0765 -0.2533 -0.3214
 4286W        W20547   8.720   5.916  10.815  0.0429  0.0812  0.0426
 4287W        W20548  15.251   4.352  12.831 -0.0578 -0.2157 -0.1435
 4288W        W20549   7.309   8.214   9.779  0.0849 -0.4490  0.3942
 4289W        W20550  11.892   2.541   1.854 -0.3137  0.1685  0.1115
 4290W        W20551   0.730   1.902   3.596  0.2025  0.3973 -0.0031
 4291W        W20552  17.495   1.039   2.590 -0.2460 -0.1547  0.4167
 4292W        W20553   2.345   2.426  15.727 -0.0517  0.3050 -0.2538
 4293W        W20554   1.442   9.336   3.657  0.1644 -0.2846  0.0106
 4294W        W20555   8.543   2.689   5.986  0.1844 -0.0423 -0.0808
 4295W        W20556   8.773   4.818   1.221  0.1908 -0.0472  0.1154
 4296W        W20557   0.333   9.482   1.765  0.1581  0.1871  0.0010
 4297W        W20558   4.511  12.769   3.402  0.2496 -0.1692  0.2925
 4298W        W20559  12.040  17.377   1.743 -0.2012  0.0520 -0.4586
 4299W        W20560  16.035  11.241  15.714 -0.1985  0.0677 -0.4317
 4300W        W20561  16.291  12.063   2.864  0.1022  0.1093 -0.1264
 4301W        W20562  12.454   2.622  12.420  0.1501 -0.1121  0.0955
 4302W        W20563   2.484  15.966   2.085 -0.3590  0.1236 -0.1708
 4303W        W20564  12.629  12.995  14.070  0.0250 -0.1059  0.2467
 4304W        W20565   5.823   6.791  14.037  0.2769  0.2344  0.0674
 4305W        W20566  16.768   8.828  14.962 -0.2476 -0.1269  0.2029
 4306W        W20567  16.970  17.312   4.611  0.0307 -0.0842  0.0594
 4307W        W20568   5.975   6.899   0.682  0.1045 -0.0821 -0.1375
 4308W        W20569  17.243   7.682  11.259 -0.1004 -0.3026 -0.0452
 4309W        W20570  11.272   1.528  15.740 -0.0497 -0.1677  0.2103
 4310W        W20571   6.130  13.360  13.544 -0.1018 -0.3788 -0.0889
 4311W        W20572  15.500  12.384   0.209  0.6085 -0.0480  0.1490
 4312W        W20573  12.575   0.960  11.738  0.0405  0.0208  0.0127
 4313W        W20574   6.686  10.127  11.739 -0.0214 -0.0448 -0.1540
 4314W        W20575   8.105  10.957   0.117  0.1838  0.1137 -0.0051
 4315W        W20576   2.419  13.029   5.233 -0.2687  0.0881  0.2461
 4316W        W20577   8.635  13.091   4.220 -0.2119 -0.1710  0.0578
 4317W        W20578   2.244   7.594  11.716 -0.0816  0.1736  0.0843
 4318W        W20579   3.513   3.133  14.951  0.0730 -0.2511  0.1345
 4319W        W20580  15.443  17.278   5.102  0.0751  0.2311  0.2768
 4320W        W20581  12.895   6.191   4.172 -0.1188 -0.2709 -0.0856
 4321W        W20582  14.872  13.917  12.754 -0.0171  0.2951 -0.0015
 4322W        W20583   8.908  12.860   0.997  0.0923 -0.2716 -0.0217
 4323W        W20584   5.004  11.552   4.916 -0.2568  0.1049 -0.0011
 4324W        W20585   1.365  16.487  11.642  0.2627 -0.1720 -0.0485
 4325W        W20586   9.247   6.490  13.025  0.0686  0.0913  0.3162
 4326W        W20587   3.382   0.063  11.826 -0.1056  0.0779 -0.1029
 4327W        W20588   7.157  14.868  16.253  0.2908 -0.0584  0.1059
 4328W        W20589  12.884   7.714   4.288 -0.1569 -0.0595 -0.2259
 4329W        W20590  13.760  13.763   5.563  0.0578  0.0974 -0.1191
 4330W        W20591  13.278  10.553   1.054  0.1218 -0.1356  0.0358
 4331W        W20592  13.888   4.564  14.443 -0.2321 -0.3211 -0.0748
 4332W        W20593   0.265  18.154   0.626  0.1504 -0.1177  0.3175
 4333W        W20594  15.032  16.708   1.987  0.1135  0.1242 -0.0322
 4334W        W20595  10.034  13.135  14.291  0.2778  0.2917 -0.3185
 4335W        W20596   8.975   1.097   2.479  0.1333 -0.0653  0.1892
 4336W        W20597  11.670  15.981  13.427  0.0015 -0.0386 -0.0149
 4337W        W20598  13.780   6.494  12.727 -0.1178 -0.3190 -0.0020
 4338W        W20599   9.878  11.765  10.679 -0.1144 -0.2595 -0.4919
 4339W        W20600   3.226   7.672   0.935 -0.0819  0.2390 -0.0083
 4340W        W20601   5.486  14.095   0.066 -0.0159  0.0255 -0.1115
 4341W        W20602  13.331  12.440  13.228 -0.0310  0.0305 -0.1316
 4342W        W20603  14.873  12.141   0.885  0.0683  0.2306  0.2018
 4343W        W20604  14.901   8.603  16.257  0.0398  0.2209 -0.3568
 4344W        W20605   9.805  14.083  11.350 -0.0564 -0.2009 -0.2653
 4345W        W20606  16.394  11.551  16.020 -0.1319  0.1633  0.1325
 4346W        W20607   2.853  15.332  12.631  0.1719 -0.3517  0.0264
 4347W        W20608  10.775  14.796  15.641  0.3312  0.1216 -0.2967
 4348W        W20609  14.631  15.370   2.304  0.1848 -0.0324  0.1337
 4349W        W20610   7.348  10.602   2.298 -0.2390  0.4039 -0.3244
 4350W        W20611   1.561   6.408  15.799  0.1282 -0.5038  0.2230
 4351W        W20612   2.255  11.451   1.449  0.2614 -0.0743  0.4484
 4352W        W20613  12.140  15.190  13.792 -0.4292  0.2359 -0.3817
 4353W        W20614   6.219   8.015   3.482 -0.0648  0.1119  0.1742
 4354W        W20615   9.128   1.756   0.157  0.2770  0.0809 -0.0908
 4355W        W20616   9.156  14.176  14.775 -0.0422  0.0866 -0.0749
 4356W        W20617   1.205   3.440   0.663 -0.2848  0.1281  0.1709
 4357W        W20618  10.646   9.194   0.669  0.1846  0.2093 -0.1053
 4358W        W20619   8.899   5.848   1.893 -0.1385 -0.0122 -0.2253
 4359W        W20620  17.851   7.769   3.831  0.0209 -0.0039 -0.1907
 4360W        W20621  12.116   9.169   1.151 -0.1374  0.0559  0.3946
 4361W        W20622   6.836   9.407   1.295  0.2760 -0.0150 -0.0151
 4362W        W20623  16.458   4.607   6.316 -0.1463  0.1574 -0.2184
 4363W        W20624   1.053  17.174  14.081 -0.2212  0.2796 -0.0427
 4364W        W20625  11.511  15.374   0.544 -0.0493  0.0594  0.1798
 4365W        W20626   2.466   6.013  13.176  0.0147  0.0485 -0.1352
 4366W        W20627  14.824   6.707   1.022  0.1451 -0.0531  0.2352
 4367W        W20628  16.243  11.136   0.606  0.0991  0.3675  0.0598
 4368W        W20629  15.675  15.603   2.626 -0.0660  0.1326 -0.3226
 4369W        W20630  11.093  10.328  14.422  0.1016 -0.0376 -0.0198
 4370W        W20631  13.944   6.723   0.808 -0.2389  0.2739  0.0138
 4371W        W20632  16.611   8.222  14.183 -0.1077 -0.1132  0.1820
 4372W        W20633   9.747   7.804  10.953  0.0283  0.0901  0.0869
 4373W        W20634   8.506  18.279   0.271 -0.2414  0.1777  0.1907
 4374W        W20635   5.696  13.696  15.469 -0.1526  0.2344  0.1235
 4375W        W20636   0.526  13.503  12.981  0.0953 -0.0557 -0.0246
 4376W        W20637   4.440   0.193  12.754  0.0097 -0.1349 -0.3642
 4377W        W20638  15.263  12.101  11.303 -0.1638 -0.3719 -0.3999
 4378W        W20639   7.557   3.067  12.253 -0.1942 -0.2094  0.1146
 4379W        W20640  18.311  13.044   0.739  0.2205 -0.0337 -0.0468
 4380W        W20641   4.167   6.134   5.230  0.1315 -0.1737 -0.0439
 4381W        W20642  15.545  14.132   4.410  0.1835  0.1548 -0.0181
 4382W        W20643   2.992  16.950   1.709  0.0820  0.0236  0.0604
 4383W        W20644  15.668  16.835  13.430  0.1759 -0.1205  0.1144
 4384W        W20645   6.853   2.469  12.475  0.0083  0.2950 -0.1708
 4385W        W20646  13.453  17.626   5.643 -0.0454 -0.0856  0.0860
 4386W        W20647   9.280   6.318  10.841 -0.0818 -0.1658 -0.1802
 4387W        W20648  17.212   0.318   4.826  0.0282 -0.2648 -0.0329
 4388W        W20649   6.432  12.753   2.771  0.2361 -0.1090 -0.0276
 4389W        W20650  14.604  16.096   0.428  0.3337 -0.0480  0.3631
 4390W        W20651  17.446   6.574  14.998  0.1483  0.0555 -0.1158
 4391W        W20652  10.126  11.571   3.378  0.2347  0.2008 -0.1738
 4392W        W20653   4.650   6.627  14.551  0.0058 -0.2087 -0.0322
 4393W        W20654  15.784   9.052  15.817  0.0675 -0.1885 -0.0964
 4394W        W20655  11.183  16.839  13.126  0.0795 -0.1884 -0.3488
 4395W        W20656   2.573  18.373  15.893  0.2237  0.2405  0.0721
 4396W        W20657  13.266   1.499   6.177 -0.1448  0.1771 -0.3933
 4397W        W20658  12.313   1.772  14.580  0.1403  0.2312 -0.0619
 4398W        W20659  16.409   1.526   2.644 -0.5716  0.0742  0.0424
 4399W        W20660   0.352  15.047  13.281  0.0378  0.1338 -0.1255
 4400W        W20661  11.042  12.698  15.996  0.0136 -0.0913  0.0463
 4401W        W20662  10.841   6.292   4.506  0.2219 -0.1881  0.1674
 4402W        W20663   0.252   5.686   5.263 -0.2727  0.0147 -0.3610
 4403W        W20664   4.320  17.767   6.047  0.2472 -0.1523 -0.0804
 4404W        W20665   1.383  18.073  15.362 -0.1819 -0.0606 -0.1542
 4405W        W20666  13.996   2.690   3.500  0.0425  0.0060  0.1548
 4406W        W20667   5.058   9.030   4.472  0.0160 -0.1302  0.2272
 4407W        W20668   6.072  10.752   0.961  0.0334 -0.0305 -0.0652
 4408W        W20669   0.096   4.917   5.359 -0.0466 -0.3691 -0.1001
 4409W        W20670   9.640  10.122   1.144  0.1208 -0.0474  0.3518
 4410W        W20671  11.492  11.020   2.079  0.1423 -0.1457  0.1668
 4411W        W20672  12.636  16.825  13.152  0.2132 -0.2836  0.0323
 4412W        W20673   3.986   2.459   5.405  0.1688  0.0282  0.0377
 4413W        W20674   0.887   9.314  14.158  0.3500  0.0319  0.2256
 4414W        W20675   3.127   1.179  14.690 -0.2710 -0.0082  0.1647
 4415W        W20676  17.743  16.682   2.948 -0.3503  0.2491 -0.0877
 4416W        W20677   2.583  18.060  11.478  0.0570 -0.1868 -0.3262
 4417W        W20678   8.642  12.539   2.072  0.1402 -0.0147  0.1204
 4418W        W20679   8.208  10.255  11.811 -0.1556 -0.0545  0.2930
 4419W        W20680  17.896  12.769  15.994  0.1166 -0.0265 -0.2895
 4420W        W20681   0.385   6.069  13.980  0.0499  0.1261  0.0266
 4421W        W20682  15.339   9.200   2.564  0.4046 -0.6308  0.1889
 4422W        W20683  13.493   3.126   3.524  0.5192 -0.2241 -0.3630
 4423W        W20684   6.907   5.382  13.790 -0.0798 -0.0176 -0.0603
 4424W        W20685   3.280  17.348  15.949  0.0852  0.0853  0.1861
 4425W        W20686  18.208   5.083   4.473 -0.1716 -0.0165  0.0018
 4426W        W20687   3.893  10.583  15.772  0.1025  0.2163 -0.1738
 4427W        W20688  13.391   6.110   4.185 -0.0616 -0.0676  0.0356
 4428W        W20689  16.530   9.341   6.096  0.0055 -0.2431  0.0628
 4429W        W20690   7.025  14.680  15.754 -0.1749  0.1792  0.0370
 4430W        W20691  18.210   9.128  11.205  0.3058  0.0307  0.2254
 4431W        W20692  14.015   8.487  14.394  0.0986 -0.3164 -0.2672
 4432W        W20693  15.377   0.080  14.155  0.3338 -0.1683  0.3198
 4433W        W20694  13.697   4.641  16.141  0.2367  0.2300  0.1343
 4434W        W20695  17.275   1.953   4.005 -0.1219 -0.0168 -0.0288
 4435W        W20696   2.787   9.108  13.904  0.0183  0.1197 -0.0073
 4436W        W20697  17.217  10.961   4.595  0.1383  0.0948 -0.4156
 4437W        W20698  16.951   3.827  11.482 -0.0140  0.1287 -0.1587
 4438W        W20699   8.137   8.721  12.590 -0.1490  0.1292  0.0629
 4439W        W20700  15.718  11.389  13.299  0.0868  0.1644  0.1283
 4440W        W20701  12.141  16.578   4.259 -0.4554  0.3408 -0.2933
 4441W        W20702   3.804  11.926   2.602  0.1275  0.1372 -0.0846
 4442W        W20703   4.355   7.701  16.012  0.1867  0.2137 -0.3544
 4443W        W20704  14.222  13.448  14.164 -0.1151 -0.0295  0.1899
 4444W        W20705  14.332  13.978   3.442  0.3765 -0.3077 -0.1200
 4445W        W20706  10.057  18.354  15.986 -0.1823 -0.1122  0.1643
 4446W        W20707  16.179   4.966   0.362  0.0520 -0.2098 -0.0943
 4447W        W20708  18.128   7.752   0.995  0.0928 -0.3288  0.0133
 4448W        W20709   2.419  14.464  12.729  0.0271  0.1376  0.1571
 4449W        W20710  10.808   1.570  12.088  0.0487  0.0582 -0.0504
 4450W        W20711   1.408   9.474  14.141 -0.2547 -0.5370 -0.3345
 4451W        W20712  11.944   5.772   1.868 -0.1879 -0.1326  0.1551
 4452W        W20713   3.549   4.763  13.967  0.3955 -0.2624 -0.0858
 4453W        W20714  16.190  17.794   4.051  0.1377 -0.1298  0.0084
 4454W        W20715  16.389  11.139   5.930 -0.1310 -0.2376  0.1579
 4455W        W20716  12.303   6.245   4.196  0.0854 -0.0188 -0.0548
 4456W        W20717   6.626   9.549  11.722 -0.0729 -0.1686 -0.1478
 4457W        W20718  12.344   4.586   3.260  0.0027 -0.1325 -0.0729
 4458W        W20719   4.983   4.052   0.773  0.4722  0.0375 -0.3620
 4459W        W20720  11.901   2.284   0.027 -0.3173 -0.0012 -0.1513
 4460W        W20721  17.040   5.185   3.421 -0.2452 -0.2986  0.0035
 4461W        W20722   7.077  12.443   0.659 -0.0297 -0.0176  0.1281
 4462W        W20723  13.663   2.339   0.548 -0.0014 -0.2160 -0.0938
 4463W        W20724   6.440   0.083   0.171  0.2039 -0.0122  0.1611
 4464W        W20725   5.090  12.684   4.956 -0.7459  0.1362  0.0766
 4465W        W20726   9.637  10.158  13.466 -0.6826 -0.0063  0.0016
 4466W        W20727   8.614   7.072  10.649 -0.0889  0.2952  0.3587
 4467W        W20728   7.149  11.320   1.520  0.0184  0.0324  0.0582
 4468W        W20729  10.602   9.369   4.983 -0.0677 -0.0715 -0.0555
 4469W        W20730  15.498   7.820   5.270 -0.2079 -0.1831 -0.1700
 4470W        W20731  10.097  18.205  15.403 -0.0857 -0.0063 -0.1618
 4471W        W20732   0.301  10.712   0.894  0.0431  0.0348 -0.1136
 4472W        W20733  11.604   6.906   3.753  0.0756 -0.3722  0.3398
 4473W        W20734  18.093  13.558   1.242  0.2544 -0.0419 -0.1165
 4474W        W20735   1.839  13.474   3.943 -0.1672  0.1175 -0.0984
 4475W        W20736  12.599  10.206   3.120 -0.2747 -0.0629 -0.0585
 4476W        W20737   4.015  12.777  16.226 -0.1546  0.1055  0.0081
 4477W        W20738   7.352  17.124   2.849  0.1596 -0.1923 -0.0475
 4478W        W20739   5.442   9.386   0.632  0.1323 -0.2960 -0.1165
 4479W        W20740   3.945  15.065  12.403 -0.1391  0.2202  0.0618
 4480W        W20741   6.312   1.516   4.738 -0.0545  0.0777 -0.0954
 4481W        W20742   1.711   7.714   5.302  0.0287  0.0817 -0.4557
 4482W        W20743  15.084  14.789   0.003 -0.1035 -0.1846  0.2156
 4483W        W20744   4.650  12.468  13.464 -0.0214 -0.0778 -0.6555
 4484W        W20745  16.877   1.731   5.464 -0.0717  0.3673  0.1162
 4485W        W20746  17.362   4.679  12.526 -0.1790  0.0900 -0.1698
 4486W        W20747  17.922   1.800  13.347 -0.3728  0.2234  0.0921
 4487W        W20748   3.473   4.041   3.788  0.0906  0.0795  0.1085
 4488W        W20749   8.452  10.663   0.318  0.2681  0.2208 -0.0205
 4489W        W20750   6.553   2.888   4.090  0.2873  0.1099 -0.0404
 4490W        W20751  10.579   9.368  15.573  0.3632  0.0890  0.0202
 4491W        W20752  17.347  17.199  15.295 -0.5769  0.0997 -0.0267
 4492W        W20753  14.948   0.956   3.005 -0.1546  0.2929 -0.1858
 4493W        W20754   2.110   5.999   5.381 -0.3356  0.0273  0.0857
 4494W        W20755   6.599   0.385   4.575  0.0807  0.1099  0.1609
 4495W        W20756  15.316   9.394  13.278  0.2835 -0.4391  0.0795
 4496W        W20757  17.334  11.075   1.676 -0.0103  0.3030  0.1083
 4497W        W20758  17.333  18.294   2.711 -0.0815 -0.2120  0.3396
 4498W        W20759  12.645   9.973   3.751  0.1202 -0.1265  0.0378
 4499W        W20760  14.192  16.467   1.056  0.1171  0.2472  0.2509
 4500W        W20761  10.057   7.404  14.018  0.1499  0.4913  0.2024
 4501W        W20762  17.016   8.294   1.379 -0.1073  0.3937 -0.1820
 4502W        W20763  13.352   5.407  13.587 -0.0774 -0.0661 -0.0289
 4503W        W20764  16.441  16.455   4.807  0.0040  0.1175  0.2257
 4504W        W20765  18.112  10.959   3.813 -0.0485 -0.4923 -0.1617
 4505W        W20766   0.831  17.862  14.394 -0.0579  0.1312 -0.0178
 4506W        W20767   2.797   4.575  11.251  0.3546 -0.1014  0.0903
 4507W        W20768  15.093   4.745   1.218  0.0489  0.2430  0.0990
 4508W        W20769  12.770   6.515   3.612  0.3669 -0.2625  0.3815
 4509W        W20770   5.926   6.197  16.171 -0.2272  0.1051 -0.0874
 4510W        W20771   2.231  17.925   4.899  0.1110  0.0181 -0.6386
 4511W        W20772   6.247  14.758   0.615  0.2096  0.0764  0.0377
 4512W        W20773   8.922   6.629   3.155 -0.1485 -0.0363  0.3380
 4513W        W20774   6.675   7.844   4.273  0.2098  0.0631 -0.0577
 4514W        W20775   3.454   8.979  15.221  0.0075  0.4738  0.2464
 4515W        W20776   5.310  13.761   4.075 -0.0039 -0.1127 -0.1922
 4516W        W20777   7.509   1.331  11.911  0.2088 -0.0139 -0.2208
 4517W        W20778   8.029  10.990  10.766 -0.0784 -0.0587 -0.1148
 4518W        W20779  15.515  18.382   1.759 -0.1182  0.1383 -0.0297
 4519W        W20780  13.724  16.330   0.087  0.0369  0.0835  0.0872
 4520W        W20781  10.730   8.567   3.680 -0.1762 -0.2412 -0.2985
 4521W        W20782   3.139   1.139  11.583  0.1481  0.2952  0.0631
 4522W        W20783  10.534  10.149   3.572 -0.3664  0.1395  0.1256
 4523W        W20784  10.830  13.849  15.045  0.0789  0.4034 -0.0302
 4524W        W20785  13.897   6.081   1.684 -0.2270 -0.0949  0.2335
 4525W        W20786  13.879   6.024  15.543 -0.2374 -0.3383 -0.0848
 4526W        W20787   6.623   0.678   2.594 -0.2136  0.0267 -0.2407
 4527W        W20788   9.340  13.876   5.354 -0.1011  0.0138 -0.1099
 4528W        W20789   7.281   0.054  14.627 -0.0515  0.0250  0.1111
 4529W        W20790   6.209  12.598  12.300  0.0310  0.2704  0.1719
 4530W        W20791  12.714  13.661   4.052  0.0171  0.1668  0.0524
 4531W        W20792  12.450  15.767   5.056 -0.1534 -0.0615 -0.0708
 4532W        W20793  11.936  11.312  15.101  0.3611 -0.2441  0.3252
 4533W        W20794  15.108   2.729   1.111 -0.1815  0.1093  0.0798
 4534W        W20795  11.289   2.907  14.304  0.0535  0.2908  0.0845
 4535W        W20796   9.097   6.609  11.204 -0.1285 -0.0850 -0.1136
 4536W        W20797   6.858  10.973  15.890 -0.2567 -0.0615 -0.0302
 4537W        W20798   1.820  15.293   4.197  0.0446  0.1378 -0.0310
 4538W        W20799  17.329  11.094  15.813 -0.2549 -0.1433  0.0205
 4539W        W20800   2.198  14.941   0.561 -0.1066 -0.1678 -0.2593
 4540W        W20801  14.121  15.389   2.291 -0.0150 -0.1608  0.2034
 4541W        W20802   2.042  16.827   1.882  0.2357 -0.2129  0.2329
 4542W        W20803   6.692  16.236   2.603  0.2162 -0.2575  0.0474
 4543W        W20804   6.902  15.621  13.875  0.0715 -0.2616 -0.3141
 4544W        W20805   5.250   4.735  13.348  0.3417  0.1330 -0.1329
 4545W        W20806   9.628   0.884   3.657 -0.1218 -0.2506 -0.2416
 4546W        W20807  16.288  17.787  16.164  0.2718 -0.0133  0.0053
 4547W        W20808   5.106   6.732  15.607  0.2141  0.1484 -0.1505
 4548W        W20809  16.997  15.017  15.014 -0.1956 -0.1510  0.1590
 4549W        W20810   9.013  16.718   1.105 -0.3103  0.0642  0.0487
 4550W        W20811  10.021  11.134  14.258 -0.2048 -0.0585  0.0732
 4551W        W20812   7.766   2.425  13.245  0.2539  0.2002  0.2052
 4552W        W20813   2.919   1.041   5.678  0.0116 -0.2416 -0.1878
 4553W        W20814   7.015   4.163  14.196 -0.0210  0.1325 -0.1376
 4554W        W20815  13.159   8.278  12.720  0.1200  0.0408 -0.1480
 4555W        W20816   5.191  14.460   1.894  0.1464 -0.0600  0.0476
 4556W        W20817  13.663   6.649  13.946 -0.0078  0.1832 -0.1823
 4557W        W20818  10.942   4.368   3.611 -0.0438  0.0187 -0.2098
 4558W        W20819   3.068  15.853   5.686  0.0027 -0.0085 -0.0028
 4559W        W20820   0.181   7.307  12.541 -0.2476 -0.1840 -0.0490
 4560W        W20821   7.635  13.710   4.748  0.2227 -0.1792  0.2830
 4561W        W20822  12.100   6.678   2.165  0.0483  0.1465  0.1475
 4562W        W20823   7.033   3.602   0.664  0.0795  0.1844 -0.1600
 4563W        W20824   3.498  15.511   2.402  0.1214 -0.0220 -0.1216
 4564W        W20825  10.446  11.182  15.811 -0.4201  0.0214  0.0468
 4565W        W20826   8.538  12.491  12.021 -0.3797 -0.0598  0.0091
 4566W        W20827   5.501  10.774   1.857 -0.1068 -0.6086  0.0259
 4567W        W20828  10.435   8.038  14.225  0.1680  0.1977  0.0453
 4568W        W20829   2.036   8.527  10.990  0.6954 -0.4219 -0.0912
 4569W        W20830   8.801   4.653  12.994  0.5112  0.0839 -0.1719
 4570W        W20831  12.236  16.420  15.217  0.0635  0.2516 -0.1454
 4571W        W20832  12.723   3.047   3.587 -0.0920  0.4467  0.1662
 4572W        W20833   3.440   8.706   3.872  0.1771 -0.1359 -0.1489
 4573W        W20834  10.848   9.459  12.284  0.3656  0.2232 -0.0395
 4574W        W20835  10.889   5.698   3.325 -0.0702 -0.4215  0.0832
 4575W        W20836   4.917   2.820   3.139  0.0147 -0.0571  0.0952
 4576W        W20837  15.918   4.306  13.514  0.1824  0.2397 -0.4427
 4577W        W20838  13.233  14.319  11.435 -0.1179 -0.0680  0.0460
 4578W        W20839   2.166   4.213  13.994 -0.1874 -0.2840 -0.1506
 4579W        W20840  10.712   0.871  14.569  0.2016  0.2392  0.0774
 4580W        W20841   2.832   2.084   0.838 -0.1867 -0.2437 -0.0101
 4581W        W20842   3.499  15.981   5.408  0.0044 -0.1543  0.0639
 4582W        W20843   0.369   3.029  13.090  0.1785 -0.0308 -0.0916
 4583W        W20844  16.611   7.696   0.091  0.0757  0.5074  0.0490
 4584W        W20845   5.576  16.042   4.979  0.3282 -0.2872  0.3508
 4585W        W20846   2.546  12.488  13.581  0.0165 -0.1348  0.2169
 4586W        W20847  13.808  15.829   3.475 -0.0418 -0.3267  0.0367
 4587W        W20848  15.199  11.847   3.457  0.2276 -0.2140  0.2048
 4588W        W20849  14.990   8.725   3.332 -0.0802  0.0345 -0.1558
 4589W        W20850   7.711   8.874  16.074  0.2082 -0.0089 -0.0299
 4590W        W20851   5.199  14.402  16.157 -0.0549  0.2600 -0.0206
 4591W        W20852  16.987   2.257  12.813 -0.0727 -0.0728  0.0453
 4592W        W20853   8.515   9.023  14.676 -0.0068  0.2998  0.0860
 4593W        W20854   5.425   0.659   0.058  0.3163  0.1176  0.1168
 4594W        W20855   0.867  14.171   4.101  0.0679 -0.2242  0.1248
 4595W        W20856   7.945   1.201   5.580 -0.2561 -0.0709 -0.3043
 4596W        W20857  16.623   2.959   3.975  0.0301  0.1518  0.0429
 4597W        W20858   6.325   8.665   1.067 -0.1772  0.1284  0.1479
 4598W        W20859  13.979  16.785   1.922  0.1472 -0.1562  0.0130
 4599W        W20860   4.441   5.968   2.283 -0.0410  0.0938  0.2385
 4600W        W20861  12.815   5.403   2.603 -0.0080 -0.2814 -0.1605
 4601W        W20862   6.309  16.151  14.790  0.2976  0.3288 -0.2395
 4602W        W20863  16.169  10.877   4.366  0.0837  0.0659 -0.1799
 4603W        W20864   5.707   3.671   4.992  0.0109  0.1602 -0.0894
 4604W        W20865  11.506  12.621  11.089  0.2120  0.3654 -0.2712
 4605W        W20866   7.431   3.586   2.720  0.0384 -0.1349 -0.1075
 4606W        W20867  13.378  13.370   2.016 -0.0938  0.0444  0.2548
 4607W        W20868  14.947   7.363   1.527 -0.1641  0.1055  0.3330
 4608W        W20869   5.358  10.257   3.214 -0.0803  0.3877 -0.2852
 4609W        W20870   4.553  13.579   5.329  0.0645  0.0496  0.1218
 4610W        W20871  14.613   5.483  15.995  0.1125 -0.0379  0.1086
 4611W        W20872  12.836  12.428  15.985  0.0338 -0.0074 -0.1631
 4612W        W20873  17.483   0.121  15.859 -0.3343  0.2817  0.0021
 4613W        W20874  15.547   4.867  12.780 -0.0322  0.0571  0.2824
 4614W        W20875   1.966   5.949   2.201 -0.0604 -0.0795 -0.2458
 4615W        W20876   7.328   4.390   0.197  0.2695 -0.1850 -0.0442
 4616W        W20877   8.287  18.119  13.296 -0.0184  0.0708  0.1230
 4617W        W20878  16.349   7.190  11.994  0.0600  0.1379 -0.2686
 4618W        W20879  17.010   0.268   1.105 -0.0517  0.2099 -0.0346
 4619W        W20880  11.528  15.557  12.222  0.0316 -0.0056  0.4960
 4620W        W20881   0.607   1.825  11.523  0.0893  0.1862 -0.3405
 4621W        W20882  11.053   7.641   1.171 -0.0434 -0.2321  0.1610
 4622W        W20883  13.164   1.813   4.043  0.3184 -0.0267  0.4070
 4623W        W20884  11.502  18.114   5.315  0.2903 -0.1472  0.2346
 4624W        W20885  12.948   0.634  11.823 -0.2211 -0.2357 -0.4808
 4625W        W20886   1.062  13.790   6.128  0.1171 -0.0644 -0.0350
 4626W        W20887  15.398  15.298  12.042 -0.1579 -0.0761  0.1702
 4627W        W20888   2.210   1.116   6.585 -0.0888  0.0058 -0.0048
 4628W        W20889   2.083   9.118   3.097  0.2181  0.1581  0.5259
 4629W        W20890  17.846   3.385   0.562  0.1553  0.1051  0.0852
 4630W        W20891   0.323  13.558   1.920  0.1159  0.1055 -0.3214
 4631W        W20892   5.582   7.576   2.783 -0.0495  0.0362  0.0135
 4632W        W20893   5.759  15.201   5.338 -0.1178 -0.2705  0.0606
 4633W        W20894   2.413  10.423  12.631  0.3318  0.2117 -0.0430
 4634W        W20895  10.496  15.714   5.362  0.0033 -0.0027  0.1095
 4635W        W20896   1.025   8.549  11.962 -0.0622  0.3546  0.0230
 4636W        W20897  13.789  16.680   1.221  0.1021  0.1932 -0.1602
 4637W        W20898   3.176  12.808  11.801 -0.0091  0.4341  0.1749
 4638W        W20899   7.936   6.604   3.733  0.0981  0.1605  0.1387
 4639W        W20900   5.870  18.301   0.107 -0.0316 -0.2557 -0.3966
 4640W        W20901   2.621  17.795  15.117  0.3147  0.0722 -0.0627
 4641W        W20902  15.283  17.111  13.607  0.2148  0.2245  0.0061
 4642W        W20903   6.183  13.833  16.198 -0.0558  0.3909  0.0743
 4643W        W20904  12.392  11.442   1.466 -0.2402  0.0573  0.2467
 4644W        W20905  15.357  13.894  14.420  0.0886 -0.1673  0.2581
 4645W        W20906   7.611   7.731  15.719 -0.4455 -0.0988 -0.0962
 4646W        W20907  17.899  11.618   4.111  0.1468  0.0382 -0.0135
 4647W        W20908   8.257   9.173   4.618  0.3902  0.1266 -0.0356
 4648W        W20909  16.579   4.603  12.991 -0.0984  0.4112  0.1076
 4649W        W20910  18.186   0.891  13.753 -0.1257 -0.0878  0.2449
 4650W        W20911   1.764  16.229   1.263 -0.4362  0.0061 -0.0030
 4651W        W20912  16.472  17.934   2.199 -0.0013 -0.0404 -0.1074
 4652W        W20913  11.685   7.711  15.902  0.0209 -0.1418  0.0201
 4653W        W20914  14.792  14.491  15.833 -0.2243 -0.1239 -0.1756
 4654W        W20915  12.374   2.868   1.167 -0.0487 -0.2309  0.4145
 4655W        W20916  14.515   5.684   2.173 -0.3657  0.2972  0.0233
 4656W        W20917  14.034   2.201  14.383  0.0702  0.1666  0.1827
 4657W        W20918   2.845   9.664  11.742  0.1054 -0.2339 -0.0000
 4658W        W20919   8.740   3.319  11.495  0.1530  0.0077 -0.0254
 4659W        W20920  17.277  15.364   5.143  0.1788  0.1066 -0.4380
 4660W        W20921  16.971  10.668   3.850 -0.1574 -0.1912 -0.0920
 4661W        W20922  12.410   7.679   4.517 -0.2594 -0.3322 -0.1526
 4662W        W20923  13.051   9.068  13.263 -0.0074 -0.2614  0.0664
 4663W        W20924   0.234   3.976   0.473 -0.0398  0.3989  0.1064
 4664W        W20925  12.096  12.723  15.079 -0.2139 -0.0801  0.0048
 4665W        W20926  13.630   6.820   1.192 -0.2446 -0.1244  0.2248
 4666W        W20927   4.483   3.303  14.279 -0.0206  0.0711  0.0740
 4667W        W20928   3.558   5.207  14.905  0.2118 -0.2562 -0.0077
 4668W        W20929   9.612  12.155  14.220 -0.1991 -0.4064 -0.1101
 4669W        W20930   6.777  17.841   2.115  0.4063 -0.2175  0.0018
 4670W        W20931   6.366   7.609  14.150  0.0387 -0.0120 -0.1164
 4671W        W20932   3.387   0.399  13.995  0.0147 -0.0083  0.4039
 4672W        W20933  16.673  12.591  14.809 -0.1650  0.2792  0.1762
 4673W        W20934  13.952  13.729   0.541 -0.1126 -0.0857 -0.3332
 4674W        W20935   6.756  11.469   1.306 -0.1857  0.0968  0.0440
 4675W        W20936   1.952   6.072  13.799 -0.2222 -0.3496  0.2284
 4676W        W20937  13.132   7.085  15.349 -0.1327  0.1208  0.2050
 4677W        W20938   6.509   3.608  16.042  0.1114  0.0294  0.1711
 4678W        W20939   8.849  17.438  13.443  0.0425 -0.0963 -0.1932
 4679W        W20940   1.856   4.931  13.118 -0.0311  0.0175 -0.2118
 4680W        W20941   9.952   4.885   4.255 -0.0523  0.0996  0.2241
 4681W        W20942  14.625   5.316   3.205  0.0212  0.0522 -0.2370
 4682W        W20943   3.845  14.912   1.473 -0.0172  0.1040 -0.1846
 4683W        W20944   8.521  16.566  13.673  0.2741 -0.2025  0.2257
 4684W        W20945   6.181   8.328   5.373 -0.3071 -0.1485  0.3400
 4685W        W20946   5.820   5.276   4.056 -0.2169 -0.1650 -0.2008
 4686W        W20947  15.325   5.034   0.452  0.3900 -0.0641 -0.3592
 4687W        W20948   6.839   8.933   1.991  0.0145  0.2371  0.1236
 4688W        W20949  10.427   9.895   5.041 -0.1357  0.2386  0.1301
 4689W        W20950   0.474   8.206   5.722 -0.2054  0.0561 -0.1083
 4690W        W20951   4.012   2.653   2.474 -0.0200  0.2460  0.4243
 4691W        W20952  15.027   6.341  15.513  0.3212  0.0825  0.1599
 4692W        W20953  11.279   7.460   5.540  0.0853 -0.1571  0.1509
 4693W        W20954   7.031   8.069  15.901  0.1167 -0.1479 -0.2519
 4694W        W20955   1.810  18.290   4.888 -0.0255 -0.0147  0.0065
 4695W        W20956  16.308  12.989  12.331  0.2857 -0.1046 -0.1117
 4696W        W20957   4.530  12.511  12.470  0.1858  0.1075  0.1022
 4697W        W20958  10.876  11.022   4.057  0.0975  0.0535  0.1801
 4698W        W20959   5.127  16.451   4.574  0.2851 -0.0061 -0.1302
 4699W        W20960  10.853  16.909  12.535  0.4325  0.1370  0.1886
 4700W        W20961   7.201  14.261  11.381  0.0621 -0.3418 -0.0846
 4701W        W20962  11.348  13.721  11.072 -0.2646  0.1079 -0.0024
 4702W        W20963   2.275  15.439   3.946  0.2702 -0.2856  0.0132
 4703W        W20964  14.649  16.877   4.293 -0.0431  0.0072 -0.2283
 4704W        W20965   2.195  17.181   5.835  0.2997  0.1748  0.3150
 4705W        W20966   2.908   7.793   3.197 -0.1375  0.1947  0.1103
 4706W        W20967  10.108   3.062  13.801  0.0185 -0.0011  0.2436
 4707W        W20968   8.988   3.711  14.396  0.4796  0.0562  0.2259
 4708W        W20969  12.780   7.410  15.495  0.0094  0.2363 -0.2514
 4709W        W20970  17.346  10.743  13.551 -0.1026 -0.0575 -0.1824
 4710W        W20971  16.958   2.357   4.108  0.2677 -0.0009  0.0537
 4711W        W20972  14.285  10.708  14.696 -0.4933  0.0037 -0.1396
 4712W        W20973  18.309   2.910   4.405  0.2014 -0.0962 -0.1332
 4713W        W20974   0.946  15.866  10.780  0.1144 -0.0639  0.3558
 4714W        W20975  11.627   2.700   0.930  0.0207  0.0825  0.4279
 4715W        W20976   1.248   4.415   1.649 -0.3141 -0.0244  0.1584
 4716W        W20977  12.286   1.532   0.424  0.0260  0.1306  0.1444
 4717W        W20978   9.081   3.100  11.089  0.0572 -0.1157 -0.0363
 4718W        W20979  10.511   4.792   4.755  0.2996  0.0355  0.0192
 4719W        W20980   6.634   4.118  12.956 -0.2708 -0.0979  0.0608
 4720W        W20981   6.020  16.364  11.885 -0.2363  0.1320 -0.0798
 4721W        W20982  14.130  14.255   3.027 -0.0001  0.1616 -0.1425
 4722W        W20983   6.384  13.774   1.559 -0.0149  0.0153  0.0622
 4723W        W20984   7.738   5.846   0.384  0.1126 -0.0086  0.0478
 4724W        W20985   8.460   6.634   2.453 -0.0796  0.5451 -0.0876
 4725W        W20986   1.712   5.362   3.277 -0.2506 -0.1658 -0.2738
 4726W        W20987  13.504   2.671  13.758 -0.1274  0.0903 -0.3859
 4727W        W20988  10.793  16.986  11.228 -0.0026  0.2111 -0.0407
 4728W        W20989  17.097   8.215  11.203  0.3504 -0.1342 -0.2825
 4729W        W20990  17.819  13.948  16.293 -0.0799 -0.4197  0.2521
 4730W        W20991  11.901  15.966   2.378  0.0204  0.3976 -0.1352
 4731W        W20992  13.887  16.081   5.631 -0.1252 -0.0459  0.1321
 4732W        W20993  15.858   3.169   1.213 -0.3150  0.2529  0.1375
 4733W        W20994  13.344   0.655  16.297  0.0218  0.0968 -0.0589
 4734W        W20995   8.615   7.399   4.018  0.0741 -0.0012 -0.2924
 4735W        W20996   7.271   2.692  11.281 -0.1804  0.2167 -0.4036
 4736W        W20997  12.259   3.483   5.448 -0.1701 -0.2906  0.0867
 4737W        W20998  14.380   7.352  12.231 -0.0702  0.2017  0.1083
 4738W        W20999   6.725   9.931   5.233  0.0946 -0.0720  0.1679
 4739W        W21000   4.686  17.267  15.116 -0.1945  0.0822  0.2329
 4740W        W21001  16.622  14.478   2.070  0.2860 -0.2150 -0.0988
 4741W        W21002   8.278   5.982  14.932 -0.2182 -0.0117 -0.3768
 4742W        W21003   5.773   8.056  16.102 -0.0581 -0.2899  0.0328
 4743W        W21004  10.067  13.395   0.061  0.1281  0.1351  0.1960
 4744W        W21005  16.028  15.661   3.512 -0.0120 -0.0540 -0.0951
 4745W        W21006   0.383   5.930   3.534 -0.0244 -0.4217  0.1337
 4746W        W21007  14.285  15.138   1.334  0.0288  0.1083  0.0688
 4747W        W21008  15.376   6.482   0.045 -0.1595  0.2533 -0.4242
 4748W        W21009  12.228   9.342  14.211  0.3915  0.0104 -0.1436
 4749W        W21010  12.297   8.852  10.853  0.1068 -0.1282 -0.4411
 4750W        W21011  15.330  13.600  13.946 -0.0137  0.1387 -0.0129
 4751W        W21012   0.547   1.804   3.016 -0.0691  0.0328  0.2561
 4752W        W21013  16.067   9.207  16.212  0.1080  0.2872 -0.1531
 4753W        W21014   1.304   7.599   2.340 -0.1840 -0.2285 -0.0113
 4754W        W21015   4.266   4.537   6.141  0.0057 -0.0411 -0.2354
 4755W        W21016   8.507   4.989  13.824  0.0827 -0.0100 -0.1751
 4756W        W21017   1.302   9.543   0.526 -0.0135 -0.0466  0.0922
 4757W        W21018   1.520   3.464   1.854 -0.0183  0.0473 -0.0087
 4758W        W21019   7.325  17.697  12.970  0.1930 -0.1198  0.0041
 4759W        W21020   8.258   2.207  13.409  0.2474 -0.0238  0.0901
 4760W        W21021  17.594   8.291  12.884  0.0642  0.0591  0.0593
 4761W        W21022  16.406   0.813   4.250  0.1817 -0.1137 -0.0971
 4762W        W21023  11.366   8.057   0.966 -0.1550  0.1230  0.1809
 4763W        W21024   1.467   1.052  15.430  0.3837 -0.4339 -0.0088
 4764W        W21025   0.257  15.217  12.112 -0.0131  0.0792 -0.0922
 4765W        W21026  10.907   6.050  12.523 -0.0778 -0.1134 -0.0951
 4766W        W21027   7.911  10.642  13.995 -0.0978  0.1052  0.1368
 4767W        W21028  15.548  14.017  12.348 -0.0627  0.0484 -0.0420
 4768W        W21029  14.816   6.023   1.810 -0.1623  0.3182  0.1233
 4769W        W21030   7.087  13.052  12.454  0.2311  0.1659  0.1735
 4770W        W21031   3.591  12.686  16.076 -0.0638 -0.1695 -0.1467
 4771W        W21032  16.223  10.484   1.918  0.1769 -0.0167 -0.0444
 4772W        W21033   0.715   8.206  12.097 -0.0742 -0.0983 -0.1874
 4773W        W21034   7.195   9.435   4.255 -0.1595  0.0133  0.1713
 4774W        W21035  17.811   0.301   4.360  0.0519 -0.0460 -0.1212
 4775W        W21036   8.183   4.878   4.920 -0.1269 -0.0319 -0.0566
 4776W        W21037   5.457   5.348  13.303  0.2421 -0.0972  0.1262
 4777W        W21038  16.538   7.681   1.877 -0.1595 -0.1852  0.1792
 4778W        W21039  11.552  15.514  16.058 -0.0632 -0.0792 -0.3320
 4779W        W21040   8.382  17.200   4.684 -0.0864  0.3657 -0.2189
 4780W        W21041   1.054  15.913   1.322  0.3275  0.3588  0.0416
 4781W        W21042  16.417  14.049   2.297 -0.0717  0.2795 -0.2619
 4782W        W21043   5.457  16.206   0.816 -0.0779 -0.2915  0.3782
 4783W        W21044   7.622  11.080   0.741 -0.2290  0.0566  0.0567
 4784W        W21045   5.340  15.398   0.476  0.0363  0.0238  0.1744
 4785W        W21046  18.077   4.329   2.060 -0.0306 -0.2472  0.1243
 4786W        W21047   5.288   3.007   2.678  0.1551 -0.0793  0.1194
 4787W        W21048  13.445   9.205  15.637 -0.1054  0.2281 -0.0276
 4788W        W21049  12.769  13.725  14.425 -0.0097 -0.0246  0.0757
 4789W        W21050   5.523  10.418  11.643 -0.1649 -0.0681 -0.1499
 4790W        W21051   5.240   6.205  10.302 -0.3900  0.0852  0.0974
 4791W        W21052   7.812  11.109  13.365 -0.0814 -0.0566  0.0885
 4792W        W21053  10.047  17.653  13.080  0.2411  0.0362  0.1118
 4793W        W21054   4.814  11.283  13.578  0.0737 -0.3136  0.0654
 4794W        W21055   8.147  13.036   0.287  0.0991  0.0097  0.2924
 4795W        W21056   8.236   6.335  14.586  0.2196  0.0360 -0.1223
 4796W        W21057  11.486  15.354   4.305 -0.2402 -0.0604 -0.3168
 4797W        W21058  11.237   2.531  15.110 -0.0585  0.1215 -0.1796
 4798W        W21059  17.063  17.835   4.488  0.2194  0.0467  0.2698
 4799W        W21060   9.178  11.125  15.258  0.1944  0.1138 -0.2034
 4800W        W21061  16.174  11.729  13.304 -0.2092 -0.2334  0.1978
 4801W        W21062   5.278   0.528   2.564 -0.0417  0.1052 -0.0127
 4802W        W21063   0.964   6.590  13.060 -0.1243 -0.0137  0.0590
 4803W        W21064  17.269  14.454  15.652  0.1134  0.0792  0.3213
 4804W        W21065  18.087  13.703   3.040 -0.1757 -0.1576 -0.1351
 4805W        W21066  17.636   3.580   0.138 -0.1868 -0.1065 -0.4088
 4806W        W21067   3.673  15.943   0.693 -0.3035  0.0823 -0.0787
 4807W        W21068  18.174   6.847   0.150  0.0930 -0.3403  0.2139
 4808W        W21069   7.302   1.161   5.936  0.1108 -0.2336 -0.1808
 4809W        W21070   4.875   0.382  12.200 -0.5500 -0.2740 -0.0310
 4810W        W21071   1.673   1.645  10.700 -0.2432 -0.2412 -0.2066
 4811W        W21072   4.164  17.311   4.417  0.2500 -0.0936 -0.1813
 4812W        W21073  13.932   6.469  11.816 -0.1620 -0.0038  0.1643
 4813W        W21074   6.392   6.140   4.648  0.1641  0.1385 -0.0164
 4814W        W21075  13.387  12.828   1.729 -0.3978  0.2820  0.0939
 4815W        W21076   2.736  13.283  14.152 -0.3944 -0.1670 -0.1341
 4816W        W21077   0.501  14.875   3.433 -0.0713 -0.1731 -0.1135
 4817W        W21078  12.920  18.333  11.657  0.1757 -0.1033  0.3274
 4818W        W21079   3.426  10.083  15.365 -0.1159 -0.3850  0.1371
 4819W        W21080   7.409   8.498   5.859 -0.0395 -0.1728  0.0639
 4820W        W21081   2.286   8.501   4.741  0.0946 -0.0116 -0.1520
 4821W        W21082  18.152   3.960   3.238 -0.1591 -0.1100  0.2196
 4822W        W21083   3.303  10.303  13.772  0.0300  0.0493  0.1259
 4823W        W21084   3.562   5.034  13.454  0.1870 -0.0960 -0.2393
 4824W        W21085  14.107   1.446  16.092 -0.4126 -0.0296  0.1652
 4825W        W21086   4.157   9.801   2.385 -0.2027 -0.0072  0.0437
 4826W        W21087  15.648   2.645  15.288 -0.1125  0.2715 -0.1176
 4827W        W21088   5.220   7.818  10.798  0.1422  0.0016 -0.0450
 4828W        W21089  17.173   8.476   3.615 -0.0648  0.1093  0.0175
 4829W        W21090  17.882   3.044  11.932 -0.1892 -0.2011  0.1095
 4830W        W21091  16.644  17.391  13.088  0.3236  0.2449 -0.1930
 4831W        W21092  16.089   0.327   3.626 -0.3449  0.0032 -0.2612
 4832W        W21093   6.076  13.555   1.862 -0.1533  0.0789 -0.1651
 4833W        W21094   2.455   0.568  11.851  0.0374  0.0953  0.1939
 4834W        W21095  14.273  15.238   4.814 -0.1242  0.2438 -0.1459
 4835W        W21096  14.178  12.109   3.947 -0.0709  0.1749  0.3597
 4836W        W21097  16.146   3.527  14.046 -0.0138  0.2186 -0.0758
 4837W        W21098  12.707  15.275  11.498 -0.2243  0.1143 -0.0004
 4838W        W21099  16.787  14.941   1.188  0.1547  0.0292 -0.0131
 4839W        W21100   5.234  17.113  12.048 -0.3578 -0.3267 -0.0394
 4840W        W21101  14.718   0.176  14.794  0.0453 -0.1837 -0.1841
 4841W        W21102  12.915   3.603  15.845  0.0382 -0.0003 -0.2381
 4842W        W21103  15.657   4.034  16.235 -0.2180 -0.3104  0.0316
 4843W        W21104   6.489   8.656   0.510 -0.1899 -0.0085  0.0553
 4844W        W21105   4.836  11.515  12.904  0.0230  0.0687 -0.1762
 4845W        W21106   5.677  13.079  11.866  0.0817  0.1249 -0.2777
 4846W        W21107  13.109   3.013   3.962 -0.3370 -0.3172 -0.2363
 4847W        W21108   2.032  10.393  13.281  0.1403 -0.0991 -0.0173
 4848W        W21109   7.288  14.822  11.133  0.2880  0.1104 -0.0799
 4849W        W21110   9.793   0.254   4.635 -0.2922 -0.0962  0.0079
 4850W        W21111  12.733   7.286  14.113 -0.0698  0.2584  0.0352
 4851W        W21112  11.785   1.540   5.445  0.0463 -0.0132 -0.2838
 4852W        W21113   0.152  17.660  10.575  0.2971 -0.1415 -0.2573
 4853W        W21114   6.157   6.613   5.233  0.0794 -0.0092 -0.0112
 4854W        W21115  12.502  11.997   0.397  0.1482 -0.2037 -0.1475
 4855W        W21116  16.262  17.443  13.506  0.2282 -0.2262  0.1190
 4856W        W21117   2.711   6.928   5.659 -0.2646 -0.0791  0.3192
 4857W        W21118   6.572  13.760   4.071  0.0846  0.1292 -0.0919
 4858W        W21119   1.383   0.070   3.893  0.1451  0.0992  0.2916
 4859W        W21120   6.065  10.136   3.962  0.2019 -0.2639 -0.0375
 4860W        W21121  17.889   2.205   1.509 -0.2079 -0.1883  0.1628
 4861W        W21122   1.243   9.400  11.542 -0.1940  0.0378 -0.2631
 4862W        W21123  14.723   1.039   4.997 -0.0076 -0.0955  0.1057
 4863W        W21124   8.300   6.239   1.383  0.0474  0.3327 -0.3291
 4864W        W21125   2.271   9.990  14.146  0.1051  0.1342  0.3620
 4865W        W21126  18.356  11.588  12.748 -0.1146  0.2557  0.0095
 4866W        W21127  15.458  12.947  14.423 -0.0138  0.0535 -0.1032
 4867W        W21128  10.485   5.403  15.902 -0.1730  0.0490  0.0450
 4868W        W21129  11.968   8.576   4.810  0.1535  0.3360  0.1207
 4869W        W21130   0.912   7.325   2.261  0.0051 -0.1637  0.2211
 4870W        W21131  12.647  13.641   0.881 -0.1769  0.0012 -0.1044
 4871W        W21132  18.276  17.411  14.365  0.1955  0.1907 -0.0095
 4872W        W21133  11.327  10.096   1.234 -0.0574 -0.1865 -0.4225
 4873W        W21134   5.303   2.043   6.193 -0.1135 -0.1162  0.1080
 4874W        W21135   2.965  14.085  13.537 -0.0264 -0.1192  0.3081
 4875W        W21136   7.574  12.736  11.521 -0.1709 -0.0873 -0.0539
 4876W        W21137   9.262   1.982   4.608 -0.1776  0.1250 -0.1055
 4877W        W21138   3.233   4.732   5.429  0.1186 -0.0907 -0.0773
 4878W        W21139  14.001  16.855   0.752  0.1401 -0.0840 -0.1062
 4879W        W21140  15.983  11.463   1.203  0.1392 -0.2173 -0.2402
 4880W        W21141  12.115   0.423   2.322 -0.3665 -0.2214 -0.0256
 4881W        W21142  13.091  12.353  15.498 -0.0046  0.3133 -0.3364
 4882W        W21143   6.555   2.481  15.315 -0.1140 -0.2074 -0.1600
 4883W        W21144   0.828  15.150   4.326  0.2429  0.1135  0.3239
 4884W        W21145  12.613   4.903  12.765 -0.2118 -0.1048 -0.0794
 4885W        W21146  16.909   4.630   4.813 -0.0790 -0.1786  0.2932
 4886W        W21147  17.036   5.570   3.106 -0.0290  0.0724 -0.1716
 4887W        W21148  18.331  18.228   2.987 -0.6218 -0.4631  0.2383
 4888W        W21149   6.057   8.563  12.575 -0.0755  0.5566 -0.0361
 4889W        W21150  11.143   4.492   2.367  0.1391  0.0732  0.2269
 4890W        W21151   5.994  17.987  11.254 -0.3350  0.3654 -0.0661
 4891W        W21152  13.299  12.789   5.305 -0.1199 -0.1250 -0.1194
 4892W        W21153  14.645  13.057  14.883 -0.1375  0.1684 -0.1898
 4893W        W21154   0.986   1.452   0.248  0.0823 -0.2334 -0.0300
 4894W        W21155  17.664  14.113   1.765 -0.0448 -0.0804 -0.0653
 4895W        W21156   6.178  15.254   4.962 -0.0026  0.2882 -0.1427
 4896W        W21157  17.735  11.401   1.823  0.3990 -0.2281 -0.0628
 4897W        W21158   0.223   4.393   0.796  0.1314  0.0451 -0.1548
 4898W        W21159   5.516  17.222   6.222  0.3545 -0.3580 -0.0340
 4899W        W21160  14.748   0.631   1.468 -0.0108 -0.5484  0.0663
 4900W        W21161  16.597   7.240   0.951  0.3699 -0.3355  0.1042
 4901W        W21162  12.543   6.983   6.231  0.2047 -0.2033  0.0016
 4902W        W21163  11.780  13.108  16.199 -0.1215 -0.0672 -0.0300
 4903W        W21164   1.252  16.648  12.075  0.2822 -0.2027 -0.1318
 4904W        W21165   9.624   6.590  12.667  0.1835 -0.0131  0.1559
 4905W        W21166  14.556  14.738   4.607 -0.0413  0.0155  0.3540
 4906W        W21167   5.854   9.201   3.893  0.0007  0.3246 -0.0082
 4907W        W21168  17.776  14.454  15.704 -0.0739 -0.0152 -0.1668
 4908W        W21169   5.995   7.099   0.194 -0.0850 -0.2457  0.1227
 4909W        W21170   7.841  17.865   5.146  0.0023  0.2921 -0.0683
 4910W        W21171  11.195   3.594  11.631  0.0097  0.4152  0.0672
 4911W        W21172   7.756   4.758  12.019 -0.2347 -0.0423  0.3360
 4912W        W21173   7.624  18.054   2.325  0.0189 -0.2935 -0.1122
 4913W        W21174   6.736   0.330  11.575 -0.1299  0.3884  0.2546
 4914W        W21175   6.004  14.197   3.480  0.1075  0.1072 -0.1680
 4915W        W21176  14.902   8.021  13.342  0.1492  0.1316  0.0548
 4916W        W21177  14.934   5.756   5.227 -0.1468  0.1720  0.2135
 4917W        W21178   3.455  11.474  11.498  0.3501  0.1654 -0.1993
 4918W        W21179  10.985   2.329   2.045 -0.1105 -0.2705 -0.2271
 4919W        W21180   9.076   1.273  16.243 -0.3992  0.1525 -0.1197
 4920W        W21181   0.068   2.927  15.490 -0.0598  0.1818 -0.2406
 4921W        W21182  13.498  10.926   0.815  0.0501 -0.4081  0.1171
 4922W        W21183  16.784  10.853   4.293  0.3855  0.0888 -0.2819
 4923W        W21184   3.357   6.213   3.981  0.0369  0.1102  0.1452
 4924W        W21185   7.231   4.630  14.269 -0.0781 -0.3091 -0.0027
 4925W        W21186   9.753  17.064  13.539  0.2437  0.1506 -0.0064
 4926W        W21187  12.738  10.500  11.969 -0.1377 -0.1428 -0.0984
 4927W        W21188   5.314  17.644   5.214 -0.3201  0.1754  0.1384
 4928W        W21189   2.626   8.088   2.030  0.2245  0.0590 -0.0097
 4929W        W21190   9.119  14.692  14.867  0.1793  0.3168  0.1655
 4930W        W21191  15.680  16.191  15.486  0.0406  0.0587  0.2979
 4931W        W21192   9.905  11.249  13.728  0.3718 -0.2570  0.1674
 4932W        W21193   9.914   2.405   5.069  0.3390  0.0626 -0.0855
 4933W        W21194   0.396   8.273   4.627  0.2128 -0.1151 -0.0359
 4934W        W21195  17.119  12.084  15.670 -0.4394  0.1461  0.0669
 4935W        W21196  14.324  12.630   5.239 -0.2308 -0.2967  0.0839
 4936W        W21197   9.657  13.214  13.949 -0.0974 -0.2873  0.0719
 4937W        W21198  17.114   5.289   2.687  0.0247  0.0919  0.2094
 4938W        W21199  10.802   1.389  14.518  0.2018  0.0109  0.3377
 4939W        W21200   3.897   8.820  14.580  0.1542 -0.0448 -0.1802
 4940W        W21201   4.702  13.175  12.917  0.1471 -0.2700  0.3426
 4941W        W21202   9.680   0.936   1.344 -0.1516  0.4861  0.3743
 4942W        W21203   7.325   5.589  11.934  0.1097  0.1677  0.0130
 4943W        W21204  10.887  17.262   0.129  0.0547  0.0938 -0.0951
 4944W        W21205   6.949  11.891   4.028  0.0875 -0.1480  0.0155
 4945W        W21206   1.579   0.452   4.550  0.0081  0.2364  0.0972
 4946W        W21207  17.063  18.373  15.599  0.0507 -0.2148  0.0492
 4947W        W21208  17.717  11.086   4.843  0.1075 -0.0954  0.0699
 4948W        W21209   5.270   9.854   5.575  0.2442 -0.0250  0.0518
 4949W        W21210  12.748   8.424   0.017 -0.4888  0.0072  0.0141
 4950W        W21211   7.069  13.319  12.899  0.1510  0.2029 -0.1191
 4951W        W21212  17.796   0.789   4.306  0.3407 -0.2254  0.0843
 4952W        W21213  14.813   4.009   0.325  0.0040 -0.1170  0.1231
 4953W        W21214  12.733   3.765   5.399  0.0035 -0.3188  0.0180
 4954W        W21215   4.024   4.953   4.431  0.0994  0.2357 -0.2153
 4955W        W21216   7.303  16.626  12.681  0.3469  0.1281  0.3723
 4956W        W21217   1.907  10.957   3.402 -0.0902 -0.3030 -0.0588
 4957W        W21218  13.207  18.322   0.749 -0.2095 -0.3625  0.0728
 4958W        W21219  16.716  13.827   5.345 -0.2437 -0.2461  0.2279
 4959W        W21220   5.493   3.733  13.016  0.2210 -0.0562  0.0962
 4960W        W21221  18.371   7.588   0.102  0.0446  0.1227  0.0193
 4961W        W21222  11.175   0.090  13.816 -0.3176 -0.5357 -0.0356
 4962W        W21223   0.895  15.438  11.946  0.0691 -0.1269  0.1093
 4963W        W21224  13.869   7.361   5.703  0.1742 -0.1248 -0.0538
 4964W        W21225   2.626  10.918   6.327 -0.0263  0.2160 -0.4048
 4965W        W21226  12.418   6.997  12.305 -0.0251 -0.0818 -0.1066
 4966W        W21227  15.960   0.489  14.725 -0.1102 -0.0848 -0.0918
 4967W        W21228   2.015   6.658   4.985 -0.0684  0.0347  0.1424
 4968W        W21229   7.098   5.922   4.535 -0.0900 -0.5321 -0.0645
 4969W        W21230  13.818  16.824   5.438 -0.0783 -0.3573  0.1201
 4970W        W21231   4.174   0.491   2.246 -0.0668 -0.3932 -0.1806
 4971W        W21232  10.927  17.273  15.588 -0.0059 -0.1308 -0.1474
 4972W        W21233   3.050  13.009  15.281 -0.1234 -0.3002 -0.1095
 4973W        W21234  13.758  11.670  10.072 -0.1663  0.1802  0.2953
 4974W        W21235   3.709  11.935   5.213  0.1460 -0.1179  0.0935
 4975W        W21236  10.823  11.122  13.606 -0.0425 -0.0008 -0.0972
 4976W        W21237   0.048   2.936   5.096  0.2289 -0.0087  0.3813
 4977W        W21238  10.420   8.132   3.750  0.1456 -0.1625  0.2926
 4978W        W21239   5.985  16.715   4.939 -0.1208  0.0743  0.0838
 4979W        W21240   9.977  16.699   4.277 -0.0497 -0.0827  0.1665
 4980W        W21241  11.655  13.889   0.505  0.1128  0.0089  0.0578
 4981W        W21242   1.427   4.755   5.259  0.0305 -0.1594  0.1775
 4982W        W21243  17.592  16.449  16.266 -0.0690  0.0618  0.1390
 4983W        W21244  17.799  14.408   5.157 -0.0074 -0.1055  0.0605
 4984W        W21245   8.165  16.609   4.705  0.1240  0.0800  0.1634
 4985W        W21246   4.988   4.570   4.185 -0.2279  0.0410 -0.0557
 4986W        W21247   3.803  10.047  13.790  0.0123 -0.3400  0.1280
 4987W        W21248  17.472   6.298  11.726  0.1652  0.0415 -0.1324
 4988W        W21249  12.502  17.239   2.132 -0.0944  0.1232 -0.1975
 4989W        W21250   3.167  12.608   5.174 -0.2289  0.0776  0.0296
 4990W        W21251   9.265  13.817   1.008  0.2032  0.0495  0.3506
 4991W        W21252  10.900   4.129  12.671  0.2094 -0.1132 -0.0749
 4992W        W21253   7.633   9.519   2.031 -0.3471 -0.0689 -0.0723
 4993W        W21254   5.995   4.748  14.074  0.0245  0.2247 -0.0265
 4994W        W21255  17.687   5.694  11.557  0.2968 -0.2897  0.1387
 4995W        W21256   5.190  11.882  14.923 -0.0066  0.0387 -0.2340
 4996W        W21257   8.453  11.380   1.038  0.0162 -0.2073 -0.0737
 4997W        W21258  17.844  15.824   1.997 -0.1051  0.3543  0.0668
 4998W        W21259   7.065   6.611   3.217  0.1926  0.0320  0.1030
 4999W        W21260   9.775   9.675  13.767  0.2456 -0.0468  0.1832
 5000W        W21261   1.123   3.022  13.777 -0.0561 -0.0201 -0.2193
 5001W        W21262  17.239  11.027   4.114 -0.0374  0.0314  0.1593
 5002W        W21263  17.478   7.619   4.944 -0.2631 -0.1436 -0.2148
 5003W        W21264  15.857  10.350   1.473  0.1531  0.0227 -0.0179
 5004W        W21265  13.895   5.503   0.958  0.1527  0.0154  0.3648
 5005W        W21266  14.801   5.701  11.775  0.1426  0.1340 -0.0208
 5006W        W21267   3.295  14.716   1.437 -0.3012 -0.1602 -0.2766
 5007W        W21268   7.469  13.898  10.309 -0.2055  0.1032 -0.0873
 5008W        W21269   4.240   8.916   3.154 -0.0678 -0.2443  0.0206
 5009W        W21270   1.405   6.130  12.053 -0.1048  0.0332  0.1494
 5010W        W21271  11.219   6.925   3.250 -0.0620  0.0384  0.2102
 5011W        W21272   9.199  17.071  16.257 -0.0943  0.0607  0.2168
 5012W        W21273  14.085   4.796   1.206 -0.1636  0.0039  0.0859
 5013W        W21274   6.142  16.720  14.624  0.2727 -0.0119 -0.2130
 5014W        W21275  13.310  16.427   2.702  0.1516 -0.0472  0.2061
 5015W        W21276  11.778   7.609   5.688  0.2730  0.1071  0.2023
 5016W        W21277  11.919  13.758  11.946  0.0594 -0.2194  0.0068
 5017W        W21278   2.541   8.016  11.582 -0.2361  0.2518  0.2307
 5018W        W21279   2.640   5.804  16.077  0.0839  0.3672  0.2050
 5019W        W21280   8.629   2.139  15.767 -0.1529 -0.0139 -0.0997
 5020W        W21281  12.180   1.362  16.162 -0.2256  0.3652 -0.0251
 5021W        W21282   2.305  15.496   2.452  0.4562  0.0617 -0.0470
 5022W        W21283  11.075  14.050   5.420  0.4533 -0.0420 -0.0492
 5023W        W21284   3.757  13.020   0.295 -0.0077  0.5117  0.0922
 5024W        W21285  15.011  11.801  15.012  0.4872 -0.2154  0.1520
 5025W        W21286  17.334   1.012   5.555 -0.0601 -0.2498  0.1948
 5026W        W21287   7.092   5.879  14.822  0.1298  0.2446 -0.0820
 5027W        W21288   9.575   4.462  11.981  0.0350 -0.1094 -0.2383
 5028W        W21289   5.458   0.596   3.847 -0.5226  0.2284 -0.0943
 5029W        W21290  15.370  18.275   4.065  0.2065 -0.0085  0.0156
 5030W        W21291   8.766  10.017  15.525 -0.0019 -0.1127 -0.1719
 5031W        W21292   4.469   1.680  12.812 -0.2888  0.0655 -0.2036
 5032W        W21293  17.948  11.664  14.783  0.0327 -0.3984  0.1235
 5033W        W21294  13.428   1.993  16.102  0.1303 -0.0070 -0.1204
 5034W        W21295   9.737  13.013  16.256  0.0645 -0.1765  0.1189
 5035W        W21296  17.939  17.769  14.236  0.0794  0.0868  0.2010
 5036W        W21297  16.481   0.679  14.108  0.0296 -0.0377  0.2694
 5037W        W21298   4.773   9.080  12.354  0.1867 -0.0731 -0.2708
 5038W        W21299  16.392  10.214  11.941 -0.1890 -0.1927  0.0134
 5039W        W21300   9.510   0.417  12.634 -0.1342 -0.2298 -0.2449
 5040W        W21301   5.834  17.937  11.838  0.3224 -0.1888 -0.0625
 5041W        W21302   7.401  11.544   3.362 -0.0024 -0.2527 -0.0313
 5042W        W21303   3.848   9.806   1.306 -0.1484  0.4551  0.0564
 5043W        W21304   3.913  12.223  15.293  0.1401  0.0826  0.1699
 5044W        W21305   7.807  17.570  13.595  0.0333  0.1804  0.1375
 5045W        W21306   9.505   9.344   2.221  0.0640 -0.1723  0.1579
 5046W        W21307   9.222  10.721   2.522 -0.1046 -0.2285 -0.0181
 5047W        W21308   6.538  10.149  12.454 -0.1278 -0.1451 -0.0558
 5048W        W21309  13.832   6.255   2.609 -0.1638  0.1255  0.1851
 5049W        W21310   6.853   6.785   0.701 -0.1254  0.1536  0.0484
 5050W        W21311  10.407   2.639  15.469 -0.0089  0.2512  0.0985
 5051W        W21312  16.586  10.350   5.067 -0.0050  0.1375 -0.0619
 5052W        W21313   4.843  17.629   2.646  0.3555  0.1107 -0.0992
 5053W        W21314   8.311  10.689  11.155  0.1749  0.1342 -0.2017
 5054W        W21315   7.367  12.128   1.600 -0.1905  0.4337  0.2065
 5055W        W21316   2.684  12.639  11.785  0.0800 -0.0305  0.0779
 5056W        W21317  13.403  17.505   1.628  0.1195  0.0344 -0.1260
 5057W        W21318   5.043   9.086  11.890  0.0953 -0.1543  0.0649
 5058W        W21319   0.402   3.239   6.096 -0.1598 -0.1958  0.1673
 5059W        W21320  17.218  18.173   1.045 -0.0683  0.0643 -0.0799
 5060W        W21321   7.400  14.166  14.930 -0.0190  0.0666 -0.1056
 5061W        W21322  11.239   5.197   2.896 -0.0398 -0.2568  0.0031
 5062W        W21323  11.113   6.652  14.623  0.1107  0.0433 -0.2807
 5063W        W21324  10.277   1.738  14.266  0.3621 -0.1012 -0.3488
 5064W        W21325   4.462  11.000   1.401 -0.1440 -0.2367 -0.0241
 5065W        W21326   4.509   8.773   0.693 -0.2082 -0.0044  0.0576
 5066W        W21327   2.561   1.536   5.157 -0.0281  0.0646 -0.1326
 5067W        W21328   3.271  14.749   4.295 -0.2943  0.3919  0.2336
 5068W        W21329  17.420  15.438   2.293 -0.1389 -0.0825 -0.0291
 5069W        W21330   9.329  13.546  15.127  0.1136  0.0602  0.0088
 5070W        W21331  11.273   9.035  14.884 -0.3252 -0.0077 -0.1246
 5071W        W21332  10.047  14.628   2.634 -0.0376  0.1922  0.0877
 5072W        W21333   1.201  17.446   1.466 -0.2135  0.2856 -0.0692
 5073W        W21334   4.189   8.469   0.264 -0.1871  0.1634  0.0398
 5074W        W21335  11.152  13.183  14.167  0.3308  0.0483  0.2119
 5075W        W21336   2.192   3.111   5.936  0.1495 -0.1149 -0.1792
 5076W        W21337   4.949  11.295   4.379 -0.1585  0.0327 -0.5885
 5077W        W21338   1.001   8.063   1.377  0.2278 -0.2500 -0.4960
 5078W        W21339  14.403  11.567  14.428 -0.3681 -0.0625  0.0995
 5079W        W21340  14.429   3.433  11.952  0.0156  0.1016 -0.2663
 5080W        W21341  14.563   3.562  11.183  0.0977 -0.4234 -0.1705
 5081W        W21342   8.590   1.882   5.027  0.4111 -0.1589 -0.1043
 5082W        W21343   7.674   8.904  12.504 -0.0253  0.1695 -0.0616
 5083W        W21344   5.827  15.785  11.752 -0.1553 -0.1501 -0.1535
 5084W        W21345   4.410   9.710   4.699  0.2937 -0.1203 -0.0510
 5085W        W21346   7.835  12.895   5.333  0.0505 -0.0817  0.1688
 5086W        W21347   5.241   2.234   5.251  0.0157  0.1292 -0.1369
 5087W        W21348  12.294  16.821  14.938  0.1587  0.1885 -0.4716
 5088W        W21349  10.090   6.363  14.714 -0.2780 -0.1115  0.0623
 5089W        W21350  12.982   9.578   0.963  0.0501  0.0556 -0.0150
 5090W        W21351  11.912  14.011  13.106 -0.1070  0.1449  0.1757
 5091W        W21352  14.927   6.257   0.792 -0.0928  0.0757  0.0250
 5092W        W21353   1.391  15.927   0.780  0.3812  0.1258  0.0328
 5093W        W21354   2.863  14.985  11.450 -0.0934 -0.1572 -0.0279
 5094W        W21355   8.466  17.847  11.717  0.1215 -0.2402 -0.2927
 5095W        W21356  16.319   1.026   2.815  0.2048 -0.1744 -0.1156
 5096W        W21357  10.599  10.148  13.490  0.0138  0.0706  0.0301
 5097W        W21358   4.206  15.581   2.483  0.1429  0.2124  0.1845
 5098W        W21359  15.111  15.515   4.919 -0.1086 -0.3621 -0.0016
 5099W        W21360  14.595   3.728  15.350 -0.1364 -0.2044 -0.0320
 5100W        W21361   5.640  14.385   1.504 -0.0426 -0.0169 -0.0218
 5101W        W21362   6.242  14.189   0.904 -0.4822 -0.0112  0.2632
 5102W        W21363   3.749   1.289  14.450 -0.2774 -0.0743 -0.0510
 5103W        W21364   2.093   1.888  12.486  0.0548  0.1054  0.2842
 5104W        W21365   8.989   3.257   3.004  0.3413 -0.1518  0.2326
 5105W        W21366  12.152  10.045  14.644 -0.1767  0.2993  0.3302
 5106W        W21367  15.458  12.908   2.853  0.0672 -0.1936  0.0265
 5107W        W21368   9.299  16.914   2.935 -0.0491 -0.0290  0.1634
 5108W        W21369   7.193   5.036  15.729 -0.0632 -0.0309  0.0351
 5109W        W21370  11.834  13.155   1.658  0.0339  0.0507  0.0442
 5110W        W21371   7.063   0.535   0.731  0.3383 -0.1406 -0.1311
 5111W        W21372  15.228  15.232  12.553 -0.2211 -0.0387 -0.0302
 5112W        W21373   9.705   6.884   2.665 -0.1905  0.0118 -0.0179
 5113W        W21374  10.146  12.786   9.807 -0.2529 -0.3151  0.0424
 5114W        W21375   2.779   7.610  13.948 -0.3004 -0.3409  0.0512
 5115W        W21376  14.450  10.424  11.883  0.4288 -0.0998  0.0102
 5116W        W21377   0.153  10.387  11.763  0.1970  0.1646  0.2209
 5117W        W21378   4.223  14.809  12.777 -0.4102 -0.0450  0.0998
 5118W        W21379   3.407  15.564   0.456  0.4147  0.3148 -0.0341
 5119W        W21380  18.121  11.157   4.328  0.0795  0.1929  0.0528
 5120W        W21381   2.247   8.373   0.467 -0.1877  0.2045  0.0421
 5121W        W21382  13.721   7.973   0.425  0.1019 -0.2844  0.0835
 5122W        W21383   4.066   2.227   0.301  0.0942 -0.0516 -0.0304
 5123W        W21384   8.187  12.332   3.025  0.0303  0.0012 -0.1537
 5124W        W21385  17.771   9.937   3.123 -0.4756 -0.0600  0.1630
 5125W        W21386  12.626   1.900   0.495 -0.3322  0.1175 -0.0519
 5126W        W21387  10.334   5.685   9.776  0.4693  0.2422  0.2731
 5127W        W21388   7.524   3.418   4.715 -0.1737  0.0115 -0.1141
 5128W        W21389   8.146   0.663   0.195 -0.4828  0.2280  0.1214
 5129W        W21390   5.984  13.444   1.339 -0.1400  0.3058  0.1069
 5130W        W21391  12.916  14.044   0.856 -0.0559  0.0867  0.0896
 5131W        W21392  17.632   8.033  12.465 -0.2096 -0.0851  0.2376
 5132W        W21393   7.633   6.841  13.146 -0.0875 -0.2930  0.1250
 5133W        W21394   2.446  16.807   2.797 -0.2106  0.0701  0.0728
 5134W        W21395  14.550   9.075  13.595  0.0411 -0.0401  0.1356
 5135W        W21396   2.311   3.924  10.543 -0.0198 -0.2990 -0.2842
 5136W        W21397  12.072   8.808  15.223  0.1777  0.1540 -0.0115
 5137W        W21398  17.513   5.514  11.974 -0.0640  0.2265 -0.1542
 5138W        W21399   2.301   4.700  11.974  0.0524  0.1008  0.0426
 5139W        W21400   2.320   5.053   2.766 -0.2265  0.1117 -0.2680
 5140W        W21401   1.386  16.936   2.837 -0.1050  0.0058 -0.1463
 5141W        W21402   1.651   8.958   1.125 -0.0377  0.0454 -0.0063
 5142W        W21403   4.731  14.776  12.623 -0.0321 -0.4859 -0.0098
 5143W        W21404   7.312  15.251  13.232 -0.1235 -0.0180 -0.0005
 5144W        W21405   4.752   3.735   1.100 -0.1217  0.1155  0.1226
 5145W        W21406   1.042   1.644  13.255  0.2404  0.2286 -0.0899
 5146W        W21407   1.698  17.316   2.919 -0.0121  0.4814 -0.0957
 5147W        W21408   9.643  15.083  14.321  0.0078 -0.0520  0.2624
 5148W        W21409   4.214   8.493   1.944 -0.1398 -0.1776  0.2221
 5149W        W21410  17.650   1.808   5.195  0.0445  0.0684 -0.0188
 5150W        W21411  10.065  13.898   0.833 -0.0805  0.1547 -0.2253
 5151W        W21412   6.729   2.544   4.444  0.2366 -0.0714  0.0112
 5152W        W21413   3.823  13.957   0.850 -0.1180  0.2904  0.0227
 5153W        W21414  11.957  18.009  16.175  0.0495  0.0520 -0.1065
 5154W        W21415  17.671  17.576  15.051  0.0165  0.1128 -0.2182
 5155W        W21416   9.346   5.430  10.493 -0.0056  0.2314  0.0227
 5156W        W21417  11.892   1.675  14.040 -0.2487 -0.1482 -0.3222
 5157W        W21418  11.767  11.434   4.004 -0.0964 -0.2169  0.0372
 5158W        W21419   1.388   6.279   5.544  0.2141  0.0345  0.0718
 5159W        W21420   0.716  13.664   5.765 -0.2808 -0.2118 -0.0800
 5160W        W21421   9.047   0.520   0.925 -0.3031  0.2620  0.0560
 5161W        W21422  14.493   2.039  15.674 -0.1671  0.0231 -0.0855
 5162W        W21423   2.326   8.433  13.942  0.2736  0.2082 -0.1079
 5163W        W21424  10.329  15.490   2.820  0.0405  0.2382 -0.0108
 5164W        W21425  15.373   2.583  15.758 -0.2118 -0.1996  0.1582
 5165W        W21426  11.245  14.702  13.760 -0.0661 -0.2598 -0.1389
 5166W        W21427   0.372   0.951  15.504 -0.0591  0.1305 -0.0957
 5167W        W21428  13.912   9.150  14.394  0.1395  0.0395 -0.2832
 5168W        W21429   4.764  16.314   3.589 -0.0395  0.1189 -0.0221
 5169W        W21430  15.303  13.662  16.297  0.2058  0.2265  0.1867
 5170W        W21431   3.104   2.942  12.857  0.1486  0.0072 -0.2200
 5171W        W21432  17.083   5.888  14.327  0.0201 -0.1632  0.0083
 5172W        W21433  13.695   7.162  14.637 -0.1298  0.0648  0.2269
 5173W        W21434   4.548   4.796   0.990 -0.0477  0.4473  0.1048
 5174W        W21435  14.201  11.103  15.050  0.1134  0.3501  0.2743
 5175W        W21436   3.151   3.556  11.475 -0.2470 -0.0136 -0.1155
 5176W        W21437   7.258   8.575  11.628  0.0987 -0.2377  0.2710
 5177W        W21438   1.734  16.140   0.288 -0.1899  0.0548 -0.3582
 5178W        W21439  16.907  14.926  12.293  0.3471  0.0921 -0.0683
 5179W        W21440   4.188  17.333   2.172 -0.1116  0.0942 -0.2831
 5180W        W21441  15.986   2.292   3.668  0.0980 -0.2242  0.2405
 5181W        W21442   9.305   6.016  15.330 -0.1235  0.0949 -0.1592
 5182W        W21443  13.510  11.525  13.449  0.0235 -0.0722  0.0492
 5183W        W21444  16.792  16.549   5.854  0.0434 -0.1992 -0.1163
 5184W        W21445  14.185  17.213   1.687  0.2799  0.1193  0.3649
 5185W        W21446   8.619  16.299   2.779 -0.0160 -0.0088  0.0429
 5186W        W21447  10.439   6.966   1.911 -0.1136 -0.1991 -0.1807
 5187W        W21448   5.327  14.163  15.314 -0.3702 -0.1841 -0.0944
 5188W        W21449  11.648  12.341   0.583 -0.0197 -0.1612 -0.0713
 5189W        W21450   6.273  16.489  13.458 -0.1361  0.1231 -0.0740
 5190W        W21451   1.595   0.709   3.213  0.1792  0.0992  0.0880
 5191W        W21452  11.095   4.681   3.949  0.0129 -0.3617  0.1002
 5192W        W21453  15.922  15.926  14.678  0.0210  0.1030  0.1682
 5193W        W21454  16.249  10.355  14.195  0.3617  0.0092 -0.1880
 5194W        W21455   9.518   5.305  13.040 -0.0961  0.0441 -0.2587
 5195W        W21456  12.735  11.365   1.124  0.0048  0.2878 -0.2238
 5196W        W21457   0.332  13.229  13.320 -0.0817 -0.0531 -0.1218
 5197W        W21458  10.050  16.502   3.409 -0.0331 -0.0307  0.0845
 5198W        W21459  10.871   8.429   2.779  0.2575  0.2869  0.0016
 5199W        W21460  15.298  17.418   1.485  0.2469 -0.0488 -0.0632
 5200W        W21461   3.990  15.224   4.961  0.1141 -0.0488  0.3397
 5201W        W21462   5.741  10.146   4.943 -0.2697  0.3698  0.1240
 5202W        W21463   7.589   4.665  13.868  0.0428 -0.0419  0.2930
 5203W        W21464   0.988  13.190   3.107  0.0608  0.2306  0.1873
 5204W        W21465  12.945   2.495  12.597  0.2873 -0.0508 -0.1849
 5205W        W21466   8.114  17.100  11.171 -0.0124 -0.1029  0.0247
 5206W        W21467   1.910   6.456   5.437  0.4058 -0.0576 -0.0497
 5207W        W21468   1.252   8.789   5.927 -0.0860 -0.0391 -0.1356
 5208W        W21469  13.549   9.331  11.994 -0.0478 -0.1724  0.1378
 5209W        W21470   6.561  13.157  15.056 -0.0841 -0.0064 -0.0517
 5210W        W21471   7.078  13.820  14.671 -0.1553  0.1260  0.0836
 5211W        W21472  11.746   0.775   2.116 -0.0698  0.1286 -0.1357
 5212W        W21473  12.198  13.945   4.193 -0.1064  0.1016 -0.0476
 5213W        W21474   5.382  10.638  14.171 -0.2136  0.0387 -0.1425
 5214W        W21475   8.386   4.248  12.595 -0.0195 -0.0902 -0.1962
 5215W        W21476  11.028  14.977  16.103  0.2344 -0.0535 -0.3001
 5216W        W21477  16.557   4.488  16.077  0.2216  0.0768 -0.2373
 5217W        W21478  17.776   2.302  15.840 -0.0583  0.1659  0.1990
 5218W        W21479   1.024   0.443  12.842 -0.0514  0.1575  0.2696
 5219W        W21480  13.068  18.119  11.211 -0.1257  0.1264 -0.2700
 5220W        W21481   2.431   8.385  15.581 -0.2124 -0.1440 -0.1875
 5221W        W21482  15.835  17.535  14.009 -0.1689 -0.2590 -0.0712
 5222W        W21483   0.094   6.496   1.662  0.0838 -0.1188 -0.0504
 5223W        W21484   0.779  10.097   1.331 -0.1460 -0.0491  0.0788
 5224W        W21485   1.729  12.948  13.330 -0.1861  0.2700  0.1068
 5225W        W21486  14.890  11.884   0.424  0.0585  0.0235 -0.2429
 5226W        W21487  10.205   4.557   3.946  0.1469 -0.2689 -0.3015
 5227W        W21488   3.309   6.269   5.642  0.0799 -0.4602  0.3066
 5228W        W21489  16.030  12.559   4.165  0.0457  0.4258 -0.1643
 5229W        W21490   5.174  15.920   4.647 -0.0430  0.4534  0.1480
 5230W        W21491   7.743  12.078  13.396 -0.0798 -0.2621 -0.1859
 5231W        W21492   8.175   4.980  11.508 -0.1344  0.2519 -0.3466
 5232W        W21493   7.507   4.168   1.046 -0.1344  0.3982  0.0676
 5233W        W21494   2.899   0.318  12.116 -0.0827  0.2009 -0.2111
 5234W        W21495   4.826  15.823   3.994  0.2514  0.0374 -0.0164
 5235W        W21496   8.589  12.156   5.657 -0.0161  0.3991  0.0614
 5236W        W21497   0.928   9.842  15.016 -0.0960  0.0506 -0.1039
 5237W        W21498  10.814  16.646   3.057  0.0938  0.0584  0.3449
 5238W        W21499  10.245  10.119  11.976 -0.0157  0.1705  0.1869
 5239W        W21500   4.811  16.731   1.719  0.0481  0.0781 -0.0484
 5240W        W21501   1.848   7.282   4.595 -0.1631  0.3237  0.2603
 5241W        W21502   9.686  13.009   2.171  0.0567  0.0735  0.1024
 5242W        W21503   0.531   0.581  13.023  0.0214 -0.0721 -0.0462
 5243W        W21504  13.935   7.546   1.425  0.0856 -0.3938 -0.0039
 5244W        W21505  14.723   6.711  14.763 -0.0950 -0.1369  0.1372
 5245W        W21506  12.860   6.119   1.766  0.0487 -0.2827  0.1638
 5246W        W21507  17.933   5.183   0.077  0.2751 -0.4115  0.0550
 5247W        W21508   5.546   1.817   1.904  0.0180  0.1909  0.0842
 5248W        W21509  11.227   2.332  14.237  0.2232  0.2133  0.1319
 5249W        W21510   5.142   1.238   1.734  0.1329 -0.0565 -0.1970
 5250W        W21511  10.238  14.744  10.819  0.2500  0.0599 -0.1932
 5251W        W21512  12.676   5.500   3.527 -0.0641  0.0792  0.2960
 5252W        W21513  17.447  16.968   5.406 -0.0491  0.1283 -0.2413
 5253W        W21514  15.930   2.520  12.649 -0.0138 -0.2240  0.0018
 5254W        W21515   1.334   9.485  15.887  0.2656  0.2134  0.3830
 5255W        W21516  15.930  13.376   3.651  0.1436  0.0376 -0.1318
 5256W        W21517   7.464   9.905   1.700 -0.0341  0.0199  0.1257
 5257W        W21518   2.469   6.248   2.892 -0.1229  0.1545 -0.1485
 5258W        W21519   9.933  14.859  11.856 -0.0331 -0.3188  0.0600
 5259W        W21520   2.457   4.323  15.817 -0.0480  0.2684  0.0966
 5260W        W21521  14.839  13.832   1.753 -0.1197  0.1879 -0.0231
 5261W        W21522  13.845  14.709  14.161 -0.0112 -0.2376 -0.3692
 5262W        W21523   3.065   2.497   0.205 -0.1091 -0.0142 -0.0606
 5263W        W21524  14.725   5.004  16.289 -0.2042  0.1969 -0.2479
 5264W        W21525   6.120  12.190  13.376 -0.1758 -0.1563 -0.0976
 5265W        W21526  11.140   3.550   2.358 -0.7447 -0.1166  0.1650
 5266W        W21527  16.861  15.192  11.434 -0.0340  0.1092 -0.0493
 5267W        W21528   6.306   7.611  13.543 -0.0646  0.1554 -0.3042
 5268W        W21529   1.640   0.933  12.386  0.3100 -0.1715  0.0941
 5269W        W21530   2.770   2.331   1.432  0.0980 -0.3277  0.4128
 5270W        W21531  15.315  14.441  14.692 -0.0979 -0.1750 -0.0078
 5271W        W21532  15.445  12.982  15.870  0.0093  0.0626  0.1322
 5272W        W21533   4.334  13.379  12.477  0.1824 -0.0619 -0.2405
 5273W        W21534  12.442   0.713   0.071  0.0731 -0.1482  0.2502
 5274W        W21535   1.392   1.029   5.690  0.1108  0.0340  0.0775
 5275W        W21536  11.948   3.332  14.413 -0.2027  0.0619 -0.0521
 5276W        W21537   1.802  12.187  15.490  0.0099 -0.0281 -0.1531
 5277W        W21538   0.378   9.200   5.402 -0.1872 -0.0621  0.3641
 5278W        W21539  13.236  11.738   1.856 -0.0394  0.1475 -0.4065
 5279W        W21540  15.188   0.872   1.905  0.0822  0.2144  0.0368
 5280W        W21541   7.761  15.441   1.612 -0.0990 -0.0029 -0.4200
 5281W        W21542  17.538   3.118   3.356  0.0696  0.0694 -0.0639
 5282W        W21543  12.019  14.653  11.129  0.0714  0.2986 -0.3422
 5283W        W21544  18.064   3.448   3.264  0.0869  0.1098 -0.1515
 5284W        W21545  18.334   7.504   0.603 -0.0869  0.0220 -0.4428
 5285W        W21546  17.687  18.150  11.991 -0.0252 -0.0811  0.1233
 5286W        W21547  10.666  12.968  11.502  0.2021 -0.0773  0.0740
 5287W        W21548   7.623  13.453   1.741  0.2889  0.1860 -0.0047
 5288W        W21549   6.009   1.827  11.987  0.0673 -0.1914 -0.1317
 5289W        W21550  16.810   7.338  13.814  0.3103 -0.0510 -0.0018
 5290W        W21551   0.167   5.816  15.606 -0.1592  0.0963  0.0723
 5291W        W21552  14.023  12.858   4.338 -0.3166 -0.0435 -0.1022
 5292W        W21553  17.289  10.821  11.437  0.0127 -0.3072 -0.1762
 5293W        W21554  14.774   7.792  12.269 -0.0039  0.1885 -0.2084
 5294W        W21555   5.452  17.005   3.002  0.1700  0.0832 -0.2137
 5295W        W21556   3.732   3.908  14.669 -0.3784  0.1311 -0.2611
 5296W        W21557  18.099   8.615  13.141  0.0489  0.1914  0.2478
 5297W        W21558   9.846   9.337  10.962  0.1107 -0.0554  0.1572
 5298W        W21559   5.298   9.982   5.098 -0.1183  0.3314 -0.0644
 5299W        W21560  12.205  12.025   2.549  0.3867  0.0903  0.1359
 5300W        W21561  13.584   2.285   1.429  0.3154 -0.2708 -0.1796
 5301W        W21562   4.127   8.855   2.289 -0.0788 -0.2400  0.0515
 5302W        W21563  13.439   4.842  15.124 -0.3087  0.0960  0.0466
 5303W        W21564   2.920  14.870   1.163  0.0805  0.0639  0.1082
 5304W        W21565  11.246  16.803  15.000  0.0734  0.0584 -0.1797
 5305W        W21566  12.368  10.930  15.173 -0.1379 -0.2875 -0.1136
 5306W        W21567   6.589  10.324  14.695 -0.2087 -0.3032 -0.1704
 5307W        W21568   8.612  15.839   4.272  0.0159 -0.0687 -0.0425
 5308W        W21569  16.966   1.371   0.040  0.0835  0.0894  0.2349
 5309W        W21570  14.953   3.012  12.842  0.1647 -0.2140  0.2395
 5310W        W21571  12.122   5.138  14.849  0.0514  0.1704  0.4159
 5311W        W21572  14.077   6.218  12.265  0.0052 -0.0749  0.1104
 5312W        W21573   2.816  17.390  16.243 -0.4875  0.2719  0.0900
 5313W        W21574  10.825  16.520   4.455 -0.0659 -0.0223 -0.0536
 5314W        W21575   6.833  10.408  12.084  0.3241  0.1930  0.0546
 5315W        W21576  15.792  10.935  13.007 -0.1600  0.0022  0.2220
 5316W        W21577  14.634  14.512   0.012 -0.0170 -0.0385  0.3884
 5317W        W21578   2.647   5.816   0.375  0.1746  0.0609 -0.1087
 5318W        W21579   6.709  17.168   2.660 -0.1784 -0.0167  0.0131
 5319W        W21580   7.796  16.574   4.115 -0.0283 -0.1034  0.1710
 5320W        W21581   4.642  16.256   5.088  0.1797 -0.1530 -0.0645
 5321W        W21582   3.775   2.930  13.780 -0.1787 -0.1736  0.0149
 5322W        W21583   7.618  16.396  14.722 -0.2538  0.0345 -0.0480
 5323W        W21584   3.027  14.335   4.162 -0.2631 -0.4231 -0.0412
 5324W        W21585   1.369   2.892   3.891 -0.3867  0.0552 -0.1373
 5325W        W21586   8.992  13.870   3.473 -0.1349 -0.1837 -0.3076
 5326W        W21587  11.039   0.661  12.051 -0.1711 -0.0743  0.0869
 5327W        W21588  11.070   4.612  16.299  0.2445  0.0037  0.0297
 5328W        W21589  13.674   6.472   3.852 -0.1696  0.0551  0.3873
 5329W        W21590   0.678  15.744   0.990  0.0310  0.1624  0.2311
 5330W        W21591   3.079   5.043   4.612 -0.0226  0.0571  0.3782
 5331W        W21592   0.999  13.585  15.437 -0.1069 -0.0961  0.2163
 5332W        W21593   9.437  14.371  11.266 -0.2245  0.0940  0.1159
 5333W        W21594   0.713   9.156  12.628 -0.2442  0.1413 -0.1125
 5334W        W21595   6.503   9.327  11.254  0.3323 -0.0852 -0.0266
 5335W        W21596   2.711   6.309   0.520 -0.0394  0.0435 -0.1772
 5336W        W21597   4.576   1.341   4.677  0.1403 -0.0903  0.3595
 5337W        W21598   0.023   6.914   1.998 -0.1983  0.2551 -0.1676
 5338W        W21599   8.706   9.122   4.792 -0.0433  0.1413  0.0172
 5339W        W21600   6.428   9.050   1.770  0.1952  0.3352 -0.1631
 5340W        W21601  10.639   4.146  14.171 -0.1956 -0.0960  0.0355
 5341W        W21602   4.661  17.924  13.646  0.0116 -0.0264 -0.1478
 5342W        W21603  11.175   2.391   4.182  0.1272  0.3717  0.1993
 5343W        W21604  15.281   0.060  11.829 -0.0447  0.3164 -0.1473
 5344W        W21605  15.718  17.571   0.441 -0.0537  0.1075  0.1283
 5345W        W21606  17.910  16.005   5.553 -0.1084  0.0779  0.1218
 5346W        W21607  17.172   9.694   4.227 -0.1023  0.0542  0.3373
 5347W        W21608   0.591   8.628   4.904 -0.2527  0.0657 -0.4150
 5348W        W21609  11.802   1.560  15.875 -0.3570  0.3889 -0.0310
 5349W        W21610  16.993   9.500  12.647 -0.1400  0.1400 -0.1428
 5350W        W21611  10.515   0.830   0.166  0.2875 -0.0871  0.4026
 5351W        W21612   4.988   1.731  15.863 -0.2017 -0.1053 -0.0367
 5352W        W21613  13.589   0.114   5.413  0.1390  0.1142 -0.1213
 5353W        W21614  16.720   6.385   2.439 -0.0829  0.0537  0.0698
 5354W        W21615  14.999   7.458   2.217 -0.0791  0.1634 -0.3700
 5355W        W21616   5.135  11.950   0.245  0.2591 -0.6556 -0.0718
 5356W        W21617  12.366  17.660   2.548 -0.2518  0.0277  0.0951
 5357W        W21618  17.238  13.528   1.184  0.1878  0.0984 -0.2565
 5358W        W21619   7.580  18.247  14.282  0.0277  0.2226  0.1402
 5359W        W21620   2.058   9.954  15.641  0.0253  0.2147 -0.1305
 5360W        W21621   2.043   0.401   4.425  0.0267 -0.0290  0.0315
 5361W        W21622   5.630   6.660   5.300  0.0494 -0.1163 -0.0003
 5362W        W21623  14.936  16.842  13.789 -0.2650  0.1341 -0.1862
 5363W        W21624   8.033  16.104  14.572  0.0274  0.1746 -0.0139
 5364W        W21625   9.231  12.975  10.603  0.0820 -0.1196 -0.1151
 5365W        W21626  12.227   0.417   0.995  0.1204  0.0814 -0.1481
 5366W        W21627  16.707  11.887   3.128  0.1752  0.1635 -0.0943
 5367W        W21628   2.346  17.361  13.504 -0.0742  0.3112  0.0367
 5368W        W21629   9.658   9.931   4.026 -0.1368 -0.1054  0.1025
 5369W        W21630  14.621  12.104  15.164  0.2685 -0.1742 -0.3606
 5370W        W21631  14.786   0.947  15.627 -0.1499  0.0064  0.4031
 5371W        W21632   9.673  13.922  14.874  0.2133  0.3579  0.0915
 5372W        W21633  14.430   1.714   0.332 -0.0401  0.0052  0.0928
 5373W        W21634  15.591   5.485  13.599  0.3549 -0.3376 -0.1355
 5374W        W21635   5.789  17.950   2.479  0.0598 -0.0649  0.0357
 5375W        W21636  14.334   4.910   1.581  0.3430 -0.0469 -0.1333
 5376W        W21637   6.426  11.892  14.434 -0.2153 -0.3772  0.0703
 5377W        W21638   3.871   1.613   0.427  0.1104  0.1517  0.1808
 5378W        W21639  11.671   2.407   0.477 -0.0095  0.2689  0.0761
 5379W        W21640  17.041  13.139  14.843  0.0109  0.1763 -0.1533
 5380W        W21641   2.873  17.514   0.912  0.0519  0.1870 -0.1615
 5381W        W21642   5.189   3.030   1.664  0.2869 -0.2060 -0.1471
 5382W        W21643  16.647  16.996  11.823 -0.4000 -0.2724  0.6492
 5383W        W21644  11.596  12.477   4.697  0.1261 -0.1521 -0.1522
 5384W        W21645   2.251  18.369  13.768  0.2522  0.0462  0.0828
 5385W        W21646   0.335   4.068   4.927 -0.2509  0.3390 -0.5477
 5386W        W21647   7.704  12.568  15.854  0.4097  0.1686 -0.4013
 5387W        W21648  11.658  17.096   4.813  0.2290 -0.2577  0.0084
 5388W        W21649   6.033  12.204   5.887  0.0999 -0.0636  0.2168
 5389W        W21650   1.156   4.668  15.480 -0.2226 -0.3858  0.0375
 5390W        W21651  14.868   9.649   4.040 -0.0672 -0.1482  0.2905
 5391W        W21652  10.959   0.145   5.467 -0.0913 -0.2908 -0.1974
 5392W        W21653   8.237   3.021   1.731 -0.2435  0.2777 -0.1144
 5393W        W21654   3.644   0.166   0.489  0.1049 -0.0181 -0.0197
 5394W        W21655  16.943   0.765   0.064  0.1666 -0.1169 -0.2046
 5395W        W21656   8.938  11.879  15.914  0.2513 -0.1134  0.1303
 5396W        W21657   3.708  13.314  14.810 -0.0736 -0.0672 -0.1391
 5397W        W21658   4.732   8.069  16.052  0.2931 -0.0444  0.1474
 5398W        W21659  14.917  10.276  12.009 -0.0552 -0.1819  0.3393
 5399W        W21660   9.303  17.775   3.661 -0.0531  0.0520  0.0288
 5400W        W21661  11.738  16.941  12.809 -0.0810 -0.0245  0.1877
 5401W        W21662   7.631  15.992   2.499  0.0806  0.0898 -0.3160
 5402W        W21663  11.282   1.562   3.074  0.1252  0.2540  0.0973
 5403W        W21664  13.451  14.834  15.976  0.2112  0.1323  0.2729
 5404W        W21665  14.273  17.226   5.042  0.3618 -0.0081  0.0449
 5405W        W21666   9.087   8.428   5.466  0.1283 -0.3540 -0.1576
 5406W        W21667   1.981   6.621   1.141  0.0970  0.3100 -0.1255
 5407W        W21668   0.139  12.778  13.508  0.3545 -0.2082  0.3414
 5408W        W21669  16.088   9.512   2.654  0.1085  0.2892 -0.3110
 5409W        W21670   3.353  16.626  13.917  0.2266 -0.0511 -0.1075
 5410W        W21671   1.060  10.298  14.948 -0.1526 -0.2197 -0.0934
 5411W        W21672  17.859  16.094   2.444 -0.3603  0.0437  0.1616
 5412W        W21673  10.650   5.943   3.767 -0.0863 -0.1883  0.0136
 5413W        W21674   0.104   9.288   2.936  0.1142  0.1746  0.1019
 5414W        W21675   0.401  11.056   0.505 -0.1352 -0.1014 -0.2942
 5415W        W21676  12.507  17.566   4.459 -0.0685 -0.1063 -0.0466
 5416W        W21677   3.523  14.448   3.316 -0.4388  0.0384  0.0202
 5417W        W21678  10.101  10.255  10.904  0.2921  0.0070  0.0500
 5418W        W21679   6.201  16.375   0.977  0.2539 -0.0766  0.0312
 5419W        W21680   7.455   9.179   1.167  0.1514  0.3464  0.1760
 5420W        W21681  17.647  13.461   2.969  0.4397 -0.1291 -0.0220
 5421W        W21682   2.212  18.121   1.534  0.2157  0.0080  0.0652
 5422W        W21683   0.101  12.263   2.859 -0.2235 -0.0324 -0.0817
 5423W        W21684   2.261   1.687   1.619 -0.2125  0.1932  0.0851
 5424W        W21685  10.107  10.484  14.839  0.2339 -0.1435 -0.0897
 5425W        W21686  16.921   4.615   0.276  0.2325 -0.0176 -0.3690
 5426W        W21687  17.880   4.499   3.450 -0.1648  0.1885 -0.0732
 5427W        W21688   0.685  15.162   1.732  0.0664  0.2941  0.1948
 5428W        W21689  17.310  16.405   3.724 -0.0461  0.0858  0.0770
 5429W        W21690  11.519   2.475   5.555  0.1946 -0.0646  0.2301
 5430W        W21691  13.637  12.733  13.995 -0.0280 -0.2849 -0.1352
 5431W        W21692  12.117  13.126   1.125  0.2347  0.1195 -0.2314
 5432W        W21693  13.593  15.432   3.689  0.0595 -0.0142 -0.0529
 5433W        W21694   2.056   0.018  15.973 -0.0326 -0.0801 -0.1935
 5434W        W21695   4.799   0.953  12.300  0.0589  0.3468 -0.0198
 5435W        W21696   5.548  14.998  14.247 -0.1655 -0.1542  0.1068
 5436W        W21697   2.697   6.275  12.256 -0.0798 -0.6536  0.1150
 5437W        W21698  10.480   6.224   4.127 -0.0640 -0.0468  0.2619
 5438W        W21699   2.138  15.928  15.704 -0.0066  0.0815  0.1741
 5439W        W21700   0.680   3.012   4.303  0.0286 -0.4685 -0.4595
 5440W        W21701   8.723   9.014  13.380  0.3865  0.2076 -0.1061
 5441W        W21702   2.207   0.099   1.917  0.0191  0.2739  0.0301
 5442W        W21703  11.760  15.854   6.083 -0.1222 -0.0664  0.0224
 5443W        W21704   6.296   0.985   1.054  0.1048 -0.2981 -0.3987
 5444W        W21705  17.478  14.439  13.969 -0.0136  0.0185  0.2435
 5445W        W21706  17.178   2.827  12.343 -0.3237  0.0176 -0.2203
 5446W        W21707  10.392   0.093  11.958  0.2864 -0.0215  0.1521
 5447W        W21708   5.738   8.464   4.293 -0.0340  0.1090 -0.1229
 5448W        W21709   8.827   2.622   1.703 -0.3347 -0.0935  0.1696
 5449W        W21710  13.034   4.821  14.436 -0.1112  0.2041 -0.2721
 5450W        W21711   1.316  15.367   6.067  0.1024  0.1553  0.0899
 5451W        W21712   8.824  10.017  10.983  0.2475 -0.0662 -0.0129
 5452W        W21713  10.418  14.438   4.852 -0.2421  0.1882 -0.2898
 5453W        W21714   5.502  18.345   1.215 -0.1758  0.1613 -0.0350
 5454W        W21715  15.265  15.374  13.717  0.0455 -0.0475  0.0380
 5455W        W21716   9.882   8.757   1.070  0.0804  0.1145 -0.2801
 5456W        W21717   5.392   8.287   2.328  0.0321  0.2214  0.1622
 5457W        W21718   1.007   8.874   4.682  0.0781 -0.1179  0.2968
 5458W        W21719   1.686   8.509  13.567  0.0291 -0.2253  0.0287
 5459W        W21720  14.402  17.808  15.070  0.0919 -0.1516  0.2525
 5460W        W21721   0.871   3.121  12.334  0.1419  0.0565  0.3420
 5461W        W21722  17.248  10.804   5.162 -0.0713  0.1038 -0.0644
 5462W        W21723  13.251  14.954   3.779  0.0302 -0.0702  0.0628
 5463W        W21724   7.289  12.675  12.963  0.4164 -0.2155 -0.3996
 5464W        W21725   9.912  14.527  16.100 -0.0454  0.3339  0.0756
 5465W        W21726   0.750  14.017   3.557  0.0320  0.3352 -0.1758
 5466W        W21727  10.541   4.569  11.970  0.1414  0.0745  0.3641
 5467W        W21728  18.377   0.485  14.885  0.2221  0.1786  0.1517
 5468W        W21729  10.198   2.833  15.031 -0.2711 -0.1672 -0.2450
 5469W        W21730  15.608   7.823  10.806 -0.3442 -0.1472 -0.1195
 5470W        W21731   6.503   3.295  14.237  0.0549 -0.1753  0.0021
 5471W        W21732   3.919   7.908   4.105 -0.0789 -0.0301  0.4704
 5472W        W21733  17.740  15.382  16.041 -0.1788 -0.0687  0.1598
 5473W        W21734  15.097  12.276  12.595  0.1524 -0.1956  0.3836
 5474W        W21735   4.826   8.254  12.037 -0.0393  0.0685 -0.0836
 5475W        W21736  15.142   3.449  15.619  0.1960  0.2250 -0.0379
 5476W        W21737   0.823   2.674   3.285  0.0065 -0.0300 -0.1964
 5477W        W21738   6.257   2.243   3.532  0.2681 -0.0764  0.0822
 5478W        W21739   1.171   4.473  11.858 -0.3209  0.1049 -0.4541
 5479W        W21740  13.226   0.221   4.676  0.1542  0.0091  0.1533
 5480W        W21741   1.723   4.010  12.192 -0.3624  0.1925 -0.1910
 5481W        W21742  15.254   5.209   1.752 -0.0929 -0.0907 -0.1818
 5482W        W21743  18.354  17.880   0.363 -0.2956 -0.0240 -0.0577
 5483W        W21744  13.372   1.742  14.497  0.0375  0.2560  0.0454
 5484W        W21745  10.422  11.014   1.895  0.3994 -0.2951  0.2079
 5485W        W21746  16.598   0.579   5.581  0.3165 -0.0849  0.0247
 5486W        W21747   8.355   9.553  12.214 -0.1020 -0.1429  0.4323
 5487W        W21748  17.966   6.613  13.282  0.2129 -0.0643 -0.3470
 5488W        W21749  18.085  13.601  13.488  0.2490 -0.3118  0.4402
 5489W        W21750  15.250  13.876  11.893 -0.1765  0.1132 -0.0034
 5490W        W21751  10.094  17.735   4.299  0.2877 -0.0418 -0.2713
 5491W        W21752  14.287   8.702  13.590  0.1185  0.1231  0.2588
 5492W        W21753  15.928  17.650   4.539 -0.0947 -0.1528  0.3731
 5493W        W21754   9.511   6.346   4.920 -0.0063 -0.3979 -0.2812
 5494W        W21755  14.174   2.527   5.375 -0.1920  0.0406  0.0003
 5495W        W21756   8.900   9.590  14.940 -0.1820 -0.0824  0.0479
 5496W        W21757  10.162  16.619  14.671  0.1887  0.1589  0.1320
 5497W        W21758   3.216  13.541   2.205 -0.2733 -0.0304  0.2702
 5498W        W21759   5.139   4.345  13.701 -0.0498  0.1195 -0.1985
 5499W        W21760   7.667   9.344   4.377 -0.1131 -0.1268  0.0414
 5500W        W21761  11.478  15.782   4.012  0.0556 -0.1068 -0.0726
 5501W        W21762   7.990   8.544  13.332  0.2112 -0.0971 -0.0437
 5502W        W21763  13.940  10.883   3.097  0.0512 -0.0248 -0.0978
 5503W        W21764   3.998  16.353   3.933  0.1695 -0.2771 -0.2922
 5504W        W21765   6.266   7.948   0.146  0.1109  0.1173 -0.1669
 5505W        W21766  14.528   2.211   0.431 -0.1908  0.0464 -0.1271
 5506W        W21767   7.165  15.784   0.226  0.1690 -0.2208 -0.1912
 5507W        W21768  14.550   8.993   0.187 -0.3844 -0.0883 -0.2225
 5508W        W21769  18.282  10.478  14.410 -0.0118 -0.1707 -0.1751
 5509W        W21770  11.367   8.221  12.354  0.1373 -0.1103 -0.1809
 5510W        W21771  14.954   6.038  13.068  0.1084  0.2590 -0.1643
 5511W        W21772   8.949  13.226   3.154  0.2623 -0.3273 -0.0321
 5512W        W21773   6.470   4.208   1.043  0.0019 -0.4462  0.0701
 5513W        W21774  13.744  11.212   2.704  0.1751  0.1029 -0.2076
 5514W        W21775  17.260   9.142  11.319 -0.1208  0.2807 -0.0126
 5515W        W21776   5.344  17.294  13.546 -0.0839 -0.1311  0.0643
 5516W        W21777  14.332  16.737   3.917  0.1058 -0.0756 -0.2504
 5517W        W21778  17.894  15.445   2.417  0.0354  0.0229  0.2456
 5518W        W21779  11.390   9.697  14.469 -0.0127 -0.0010 -0.2963
 5519W        W21780   9.949   8.526   0.106  0.3748  0.1592 -0.2191
 5520W        W21781  12.656   8.004  11.218  0.2009 -0.0444  0.1559
 5521W        W21782  17.322  14.715  12.381  0.0799  0.5584  0.3429
 5522W        W21783   1.827   8.186  12.995  0.0661 -0.0323 -0.0413
 5523W        W21784  13.058   1.003   3.710 -0.2706  0.2651 -0.0423
 5524W        W21785   4.504  15.176  13.973 -0.0498  0.0280  0.0579
 5525W        W21786   4.125   1.978   1.271 -0.1275  0.0551 -0.0284
 5526W        W21787  15.883   9.930   5.038  0.1644  0.1546  0.1037
 5527W        W21788  17.361  14.349   5.353  0.0256 -0.0609  0.0815
 5528W        W21789   4.484   1.009  16.288  0.0130  0.2381  0.3906
 5529W        W21790   9.647  16.744   4.852  0.2272 -0.0341 -0.2490
 5530W        W21791  14.829  13.389  12.749 -0.0838  0.1350 -0.2368
 5531W        W21792  17.616   2.191  15.358 -0.0366  0.0612 -0.2355
 5532W        W21793   4.283  11.707   1.410 -0.0557 -0.1202 -0.1098
 5533W        W21794  14.601   7.210   1.164 -0.1952 -0.4333  0.2491
 5534W        W21795  16.141  12.405   0.863 -0.0393  0.1131 -0.2298
 5535W        W21796  12.371  11.858   4.789 -0.0262  0.0296 -0.4911
 5536W        W21797   8.814   1.389   4.150 -0.0417  0.0850  0.2064
 5537W        W21798  12.499  12.522   3.780  0.0664 -0.0636  0.0344
 5538W        W21799   3.396  14.610  12.191 -0.0774  0.0241  0.0395
 5539W        W21800  16.201  15.473  13.602  0.1757 -0.3740 -0.0994
 5540W        W21801   8.471   4.408  13.861 -0.0961  0.1813  0.2760
 5541W        W21802  12.704   4.692  12.273  0.1447 -0.0966 -0.3780
 5542W        W21803  10.817   8.819  14.920  0.1012  0.1213  0.1558
 5543W        W21804   1.968   3.435   2.528 -0.3054 -0.1004  0.0526
 5544W        W21805  17.275   4.520  11.876  0.2147  0.0362 -0.2243
 5545W        W21806   3.389  16.080   4.914 -0.1163 -0.2452  0.2072
 5546W        W21807   9.236   7.425  13.140 -0.3270 -0.2405  0.0221
 5547W        W21808  11.277   2.282   0.837  0.1536  0.1471 -0.4185
 5548W        W21809   2.934  13.091   1.228  0.3137  0.0197  0.0630
 5549W        W21810  17.842   6.848  14.850  0.1054  0.1029  0.1699
 5550W        W21811   4.095   2.002   0.810  0.1157  0.1489  0.1914
 5551W        W21812  13.303  16.969  15.953  0.2850 -0.1546  0.1142
 5552W        W21813   0.313   8.947  15.299 -0.1518  0.0377  0.3578
 5553W        W21814   2.105  17.879  16.028  0.0334 -0.3608  0.1517
 5554W        W21815   1.758  15.099   0.273 -0.0765 -0.1030 -0.3932
 5555W        W21816   0.082  11.960   2.390  0.0343 -0.0371 -0.1009
 5556W        W21817   9.315  11.831   0.755  0.0981 -0.0972  0.0389
 5557W        W21818   8.447   2.277  12.949 -0.1373 -0.0675  0.0694
 5558W        W21819  13.202  15.577  15.313 -0.2402 -0.2335 -0.2331
 5559W        W21820   4.183   9.823  11.388 -0.4159  0.1901 -0.2944
 5560W        W21821   3.522  14.436  11.081 -0.0268  0.0468 -0.0297
 5561W        W21822   0.289  10.030   2.240  0.1375 -0.0187 -0.0290
 5562W        W21823  15.629   5.146   2.558  0.0592 -0.0716 -0.1089
 5563W        W21824   1.736   5.377  13.333 -0.0082  0.2261  0.2041
 5564W        W21825   5.504  12.317  14.023  0.0126  0.1467  0.1647
 5565W        W21826   6.295  17.768  15.021 -0.0386 -0.0690  0.0628
 5566W        W21827   9.506   1.230  15.979  0.0136 -0.0015 -0.2352
 5567W        W21828  14.298  14.611   2.703 -0.4477  0.0281  0.1497
 5568W        W21829  15.616  10.482   2.764 -0.3111  0.2018  0.0198
 5569W        W21830  14.730   1.176   4.034 -0.0567  0.2271 -0.0788
 5570W        W21831   1.556   2.017  13.881 -0.0956 -0.1116  0.0925
 5571W        W21832   6.966   2.847  13.226  0.1569  0.3476 -0.1731
 5572W        W21833   7.597   1.122   4.236 -0.1279 -0.0762 -0.1872
 5573W        W21834   1.405  13.870   0.838 -0.3483 -0.1719 -0.1023
 5574W        W21835   0.002   3.444   5.920  0.2709 -0.4531  0.0177
 5575W        W21836  10.349  13.132   1.431 -0.0713  0.1494  0.1079
 5576W        W21837   7.914  18.320   3.668 -0.0195 -0.1007 -0.0964
 5577W        W21838  10.999   4.734   2.787  0.0468  0.0604 -0.0731
 5578W        W21839   9.437   9.007   1.838 -0.0566 -0.0860  0.0829
 5579W        W21840  16.311   0.519   0.351 -0.0342  0.2953 -0.1280
 5580W        W21841   7.469  10.023  11.406  0.1115  0.0518  0.2848
 5581W        W21842   5.472   4.629  12.585  0.3423  0.0111 -0.0003
 5582W        W21843  16.298  14.523  15.096  0.2301  0.1560  0.0745
 5583W        W21844  10.070  15.175   0.629 -0.0541 -0.6591  0.0302
 5584W        W21845   6.254   7.119  14.217  0.1392  0.1400  0.0334
 5585W        W21846   4.100  17.022  12.828 -0.1171 -0.1204  0.1170
 5586W        W21847   9.963   5.904  14.790 -0.1750  0.2237 -0.4794
 5587W        W21848  15.258  18.080  14.523  0.0225  0.1603  0.2219
 5588W        W21849   3.889  14.584  15.221 -0.3367 -0.0482  0.0904
 5589W        W21850  15.892   3.195  14.526 -0.0486  0.2605  0.0115
 5590W        W21851   5.753   6.985   4.943 -0.0371  0.1559 -0.2310
 5591W        W21852  12.284  13.676   2.336  0.1772  0.1841  0.0215
 5592W        W21853  18.375   4.726  15.644  0.0986 -0.0592  0.2398
 5593W        W21854   4.784  16.923   5.456  0.2139  0.0754 -0.1436
 5594W        W21855  13.831   8.341   2.326  0.1967  0.0322  0.0209
 5595W        W21856   9.754   0.288   4.151 -0.1589 -0.0370 -0.3725
 5596W        W21857   5.018   6.013   0.139  0.2848 -0.2627 -0.0234
 5597W        W21858   8.280   8.854   5.019  0.0881 -0.0375  0.1753
 5598W        W21859  10.797   8.004   3.371  0.2241  0.0611  0.0863
 5599W        W21860   3.731   6.441  16.126 -0.3490 -0.0348  0.0989
 5600W        W21861   8.328  12.289  13.767 -0.1996  0.0028  0.0955
 5601W        W21862   0.295   3.723   1.034  0.0152 -0.3660 -0.1900
 5602W        W21863   6.628   7.288  11.672  0.1248  0.1619  0.0371
 5603W        W21864   1.966   2.913  11.577  0.0849  0.2172 -0.1571
 5604W        W21865  14.406   2.982   0.993  0.3979  0.3481  0.0738
 5605W        W21866  15.936  11.249  11.057 -0.1958  0.0281 -0.3065
 5606W        W21867  15.131   8.616  11.676  0.0300  0.2972  0.0984
 5607W        W21868  16.348   5.318   1.759  0.1429 -0.2807 -0.1861
 5608W        W21869   0.786  14.628   4.529 -0.1342 -0.0490  0.0579
 5609W        W21870   4.251  17.750  13.439 -0.1108  0.0663 -0.2041
 5610W        W21871   5.996   9.177  13.159 -0.1560 -0.3731 -0.0342
 5611W        W21872  13.312   4.416  12.395  0.1520  0.0290  0.1510
 5612W        W21873   4.294   9.717  11.891  0.1970 -0.1206 -0.0816
 5613W        W21874  10.649  11.259  12.913  0.1357 -0.3587 -0.1500
 5614W        W21875  11.310  16.742  12.421  0.0823  0.4303  0.2441
 5615W        W21876   1.410  11.580   4.535 -0.0533 -0.0493 -0.0503
 5616W        W21877   1.474  12.459   3.769 -0.0295 -0.1156  0.1892
 5617W        W21878   1.479   4.843   3.349  0.2229  0.2534 -0.1901
 5618W        W21879  11.410   2.204  16.282 -0.0139 -0.0609 -0.1926
 5619W        W21880   4.811   6.994  11.504 -0.1242  0.1145 -0.3138
 5620W        W21881   3.436  10.685  12.439  0.1385 -0.1068  0.3690
 5621W        W21882  17.388   9.339  16.154 -0.0418 -0.0736  0.3731
 5622W        W21883   7.104   0.501   2.557 -0.0166 -0.1180  0.0870
 5623W        W21884  16.138   1.698   2.268  0.3054 -0.0634 -0.1359
 5624W        W21885  18.129   9.138  13.268  0.0716  0.0847  0.0253
 5625W        W21886   7.051   7.568  15.710 -0.1104  0.1124  0.0127
 5626W        W21887  14.409   4.418   1.611  0.0787  0.1099  0.4879
 5627W        W21888   7.081   4.162  15.168  0.0462  0.0852  0.0633
 5628W        W21889   5.766   4.948  15.333 -0.0210  0.1294  0.0591
 5629W        W21890   9.125  11.397  11.287 -0.1604 -0.2740 -0.0758
 5630W        W21891   5.430   4.337   4.337 -0.1512  0.2058 -0.0126
 5631W        W21892   8.735   6.645   1.944  0.2677 -0.0723 -0.3446
 5632W        W21893   6.503   2.311  14.304  0.1385 -0.0598 -0.0725
 5633W        W21894  10.223   3.421   4.445  0.3088  0.4275 -0.0738
 5634W        W21895  11.081  13.413  13.311 -0.0796  0.0714 -0.1571
 5635W        W21896  11.006   1.253   3.939  0.1804  0.3325 -0.0775
 5636W        W21897  15.539  10.753   3.682 -0.3107 -0.0682 -0.0465
 5637W        W21898   3.073  12.856  12.855  0.2473  0.0649 -0.1984
 5638W        W21899  16.841  12.674  12.796 -0.2065 -0.5356 -0.0475
 5639W        W21900  17.689   7.336  11.879 -0.1205 -0.0135  0.0383
 5640W        W21901  18.030  18.349  13.698  0.0940 -0.0348 -0.0877
 5641W        W21902   5.789   2.761   0.438 -0.1235 -0.3386 -0.0548
 5642W        W21903   4.659  15.676   4.706 -0.1783 -0.0404  0.1455
 5643W        W21904  11.847  14.313  14.912  0.3950  0.0340 -0.0279
 5644W        W21905  14.015  12.529  15.502  0.1647  0.0435 -0.1985
 5645W        W21906   4.419  10.494  15.783 -0.0043 -0.1725 -0.0034
 5646W        W21907   3.780  14.454   1.632  0.0957  0.0292 -0.1109
 5647W        W21908   0.273  13.044   0.178 -0.1110 -0.0806  0.2707
 5648W        W21909  14.765  15.044   1.133 -0.2921 -0.3502 -0.0857
 5649W        W21910  16.071  17.135   1.220 -0.0351  0.0622  0.2162
 5650W        W21911  16.929  15.108  14.267  0.1693  0.0033 -0.2681
 5651W        W21912  17.915   4.429  13.391  0.2537  0.1151 -0.1739
 5652W        W21913  17.358   0.285   2.346 -0.1802 -0.0693 -0.1155
 5653W        W21914   3.420  10.432  14.593  0.2204  0.3236 -0.2296
 5654W        W21915  11.755   2.543   3.622  0.0221 -0.2641  0.0733
 5655W        W21916  17.917  14.922   0.525 -0.1718  0.2653 -0.0276
 5656W        W21917   6.639  17.611   4.942 -0.0903 -0.0870 -0.2609
 5657W        W21918   9.992  12.591   2.346 -0.3426  0.0882  0.2111
 5658W        W21919   5.674  17.962  15.828 -0.0739 -0.0303 -0.2635
 5659W        W21920   9.386  14.023   0.073 -0.1184  0.1131  0.1933
 5660W        W21921   5.575  11.516  12.809 -0.0140 -0.3160 -0.2544
 5661W        W21922  13.406   6.590   3.437  0.2738 -0.2648  0.3197
 5662W        W21923  16.597  17.582  15.761 -0.0275  0.2434 -0.1884
 5663W        W21924   3.371   6.990   4.812 -0.0382 -0.0355 -0.0355
 5664W        W21925  15.345  15.008   4.678  0.0416 -0.0771  0.3220
 5665W        W21926  17.222   3.319   0.024  0.0272  0.2420  0.2485
 5666W        W21927  10.868  13.608   2.049  0.0589 -0.2261  0.1190
 5667W        W21928  14.308  12.622   5.728 -0.1477 -0.1326  0.0562
 5668W        W21929  17.480   8.346   4.524  0.0777  0.0891 -0.1154
 5669W        W21930  12.127   4.413   0.742  0.0595 -0.2019  0.0113
 5670W        W21931  12.588   4.124   5.073 -0.0312  0.1355 -0.2750
 5671W        W21932   3.568   5.693   2.160 -0.3331  0.0037 -0.0222
 5672W        W21933   0.017  14.740   2.330 -0.1961  0.0511  0.0233
 5673W        W21934   6.891   4.213  12.521  0.1079  0.2232 -0.2526
 5674W        W21935   5.775  11.868  12.462  0.2025 -0.1713  0.1490
 5675W        W21936  14.125  15.867   1.602 -0.1844 -0.2499  0.0119
 5676W        W21937  10.169  17.519  10.880 -0.1987  0.5414  0.1355
 5677W        W21938  14.052  14.132  14.319  0.3587 -0.2227 -0.0308
 5678W        W21939  11.382   3.289   1.967 -0.0446 -0.2983 -0.2545
 5679W        W21940   7.591   2.447  11.820 -0.2129 -0.1126  0.1306
 5680W        W21941  17.839  11.781  11.401  0.0592  0.1323  0.2371
 5681W        W21942  17.294   7.787  14.522  0.0015  0.0785  0.0126
 5682W        W21943  11.938   0.171   4.455 -0.1623 -0.1196  0.0657
 5683W        W21944  11.140   2.121  13.354 -0.2031  0.3114  0.1214
 5684W        W21945  13.403   6.133   0.225 -0.2790  0.1049  0.0026
 5685W        W21946  10.464  17.007   5.393 -0.0777 -0.4747  0.0127
 5686W        W21947   4.806   2.873  12.112  0.2042 -0.0746  0.0244
 5687W        W21948  15.224   5.498  13.989  0.0108 -0.0973  0.1465
 5688W        W21949  11.094   3.015  16.058 -0.2428 -0.3257  0.1259
 5689W        W21950   0.806  15.430  13.112 -0.2733  0.0097  0.1443
 5690W        W21951   8.940  13.362  14.786 -0.0683 -0.2525 -0.0950
 5691W        W21952  14.681  17.860   2.093 -0.2280  0.1517 -0.2500
 5692W        W21953  12.870  12.930  16.098  0.2025  0.0167 -0.1282
 5693W        W21954   9.360   0.292  14.164 -0.1562  0.1387 -0.0489
 5694W        W21955  18.044   8.195  11.665 -0.0022 -0.1908  0.0340
 5695W        W21956   5.902  11.669   5.957  0.0489 -0.2024  0.0850
 5696W        W21957   0.169   5.616   2.505  0.0111 -0.1832  0.0162
 5697W        W21958   0.923  14.812   5.065  0.0407  0.3939  0.0623
 5698W        W21959   6.593   6.374   5.124  0.1847  0.0022 -0.2696
 5699W        W21960  15.701  10.169  12.519 -0.0789 -0.0368  0.0581
 5700W        W21961  15.604   2.953   2.967  0.1297  0.1446  0.0788
 5701W        W21962   7.499   1.603   0.089 -0.2133  0.0714 -0.2192
 5702W        W21963   3.504   5.284   0.747 -0.1289 -0.1403 -0.1293
 5703W        W21964  12.508  11.854   3.414 -0.1751 -0.2599 -0.0456
 5704W        W21965  14.254  17.101  12.310  0.2060 -0.3145 -0.1257
 5705W        W21966   7.346  17.851   5.314  0.3022  0.1477 -0.1819
 5706W        W21967   7.282  14.009  11.770 -0.0761 -0.1758 -0.0152
 5707W        W21968  16.920  10.814  13.882  0.4564 -0.2946  0.0094
 5708W        W21969  17.441   2.066   3.482  0.0387  0.0496  0.1529
 5709W        W21970  14.330   4.659   0.728  0.1199 -0.2607  0.3364
 5710W        W21971  15.756  14.300   0.780  0.4013  0.2005  0.2201
 5711W        W21972  17.430  11.786   0.259 -0.1311  0.0714 -0.3114
 5712W        W21973  10.332  16.473   0.136  0.0897 -0.2013  0.2370
 5713W        W21974   1.891  12.991  12.327  0.4782 -0.2486  0.1835
 5714W        W21975   5.151  17.778  13.439 -0.0901 -0.0245  0.0027
 5715W        W21976   2.565  16.508  12.982  0.0726  0.0120  0.4532
 5716W        W21977   9.075   7.851  13.388  0.3348 -0.1075 -0.0967
 5717W        W21978  14.189  12.528   1.441  0.0691 -0.0390 -0.0157
 5718W        W21979  16.398  17.882   2.714 -0.1197  0.0157 -0.2094
 5719W        W21980  14.934   0.491   0.492  0.3549 -0.3731 -0.1835
 5720W        W21981   3.156   1.776  12.087 -0.1842  0.3112 -0.0334
 5721W        W21982  17.076   0.984   4.992  0.0584 -0.1270 -0.0726
 5722W        W21983  11.586  16.139   4.963 -0.0796 -0.1732 -0.1309
 5723W        W21984  14.093   0.878   1.708 -0.2426 -0.1830 -0.1110
 5724W        W21985   7.682  15.658   1.142 -0.1931 -0.2569  0.1035
 5725W        W21986   7.242  17.558   1.664  0.0844  0.2753  0.0205
 5726W        W21987   3.550   0.255   3.565 -0.0535  0.2415 -0.1141
 5727W        W21988  14.298   3.555   3.338 -0.1841  0.1882 -0.0147
 5728W        W21989   4.615   7.709  12.162  0.1493 -0.2478  0.0558
 5729W        W21990  10.739  15.188   2.474 -0.0499 -0.0853 -0.0895
 5730W        W21991  14.868   9.805   4.772 -0.1862  0.1282  0.3278
 5731W        W21992   8.315   7.368  13.053 -0.1084  0.0674 -0.3390
 5732W        W21993   8.274   8.188  16.051  0.0376  0.0851 -0.3208
 5733W        W21994   5.430   1.228  12.705  0.1541  0.1174 -0.0648
 5734W        W21995   2.190   0.983   0.177 -0.2795 -0.0901  0.1067
 5735W        W21996  13.877   6.560   3.312  0.0506 -0.3284 -0.1542
 5736W        W21997  16.553  16.177   1.323 -0.1115 -0.0745 -0.1775
 5737W        W21998  15.006  16.062   6.179 -0.4550  0.1102  0.3056
 5738W        W21999   5.629   2.002  16.277 -0.2410  0.0637 -0.1301
 5739W        W22000   7.474   1.624   0.653  0.3732 -0.0662 -0.2211
 5740W        W22001   7.566   9.991  14.720 -0.2176 -0.2266  0.1646
 5741W        W22002   9.949   1.827  15.110 -0.0114 -0.0461 -0.0836
 5742W        W22003   0.342   7.733  13.915 -0.1410 -0.1018 -0.0554
 5743W        W22004  13.432  11.418   1.572  0.2697 -0.2656  0.1136
 5744W        W22005  14.017   3.618  12.203  0.0013 -0.1012  0.2639
 5745W        W22006   4.545  15.981   1.338  0.0957 -0.0843  0.2485
 5746W        W22007  13.239   0.246   1.150 -0.0289 -0.2137 -0.0715
 5747W        W22008   7.541   7.541   0.820 -0.0034 -0.0681 -0.1383
 5748W        W22009   7.702  11.877  12.419  0.3053 -0.1002  0.2104
 5749W        W22010  12.437   5.535  15.703 -0.3467  0.1146  0.1891
 5750W        W22011   8.054  17.788  15.503 -0.1992 -0.2730  0.3042
 5751W        W22012  16.927   8.778  11.893 -0.1502 -0.1383  0.0570
 5752W        W22013  14.397   4.221   0.412  0.2080  0.0304  0.1252
 5753W        W22014  16.124  10.721  15.653 -0.0288 -0.0400 -0.0395
 5754W        W22015   7.846   1.620   5.377  0.1840 -0.2211 -0.1473
 5755W        W22016   7.804  14.329   0.686 -0.2755 -0.1090  0.0543
 5756W        W22017  14.956   2.002  14.591  0.0050 -0.2230  0.1704
 5757W        W22018   6.827   9.097   0.009 -0.2310 -0.1399  0.0798
 5758W        W22019   3.339   9.855  12.964 -0.1439  0.0362  0.0791
 5759W        W22020  16.240  12.162  13.573  0.0904 -0.1868 -0.1901
 5760W        W22021   7.455   0.540   1.037  0.1385  0.1196  0.1494
 5761W        W22022   1.015  13.946   0.419 -0.2224 -0.3446 -0.0100
 5762W        W22023  10.213  10.687   4.408  0.1172  0.0984  0.1960
 5763W        W22024   4.349   6.419  15.464  0.0911  0.1344 -0.0240
 5764W        W22025   0.866   6.356   0.795 -0.0498  0.0017  0.0051
 5765W        W22026   1.394  15.087   4.486 -0.0227  0.0612  0.1428
 5766W        W22027  12.670   6.189  11.277 -0.0271 -0.0935 -0.2435
 5767W        W22028  14.693  12.290  13.578  0.0939 -0.1527  0.0391
 5768W        W22029   3.774  15.564   4.279  0.2404 -0.0552 -0.2962
 5769W        W22030  17.461  15.672   4.851  0.0041 -0.0401  0.1241
 5770W        W22031  11.071  15.468   3.975 -0.1610 -0.0344  0.2390
 5771W        W22032   5.755  16.490   4.561  0.0575 -0.1122  0.0971
 5772W        W22033   9.489  10.193  10.385  0.0814  0.2442  0.4956
 5773W        W22034  11.549  12.059  11.259 -0.1806 -0.4121 -0.1215
 5774W        W22035   5.763  14.576   2.511  0.0756 -0.1497 -0.1556
 5775W        W22036   9.707   4.483   1.112 -0.1889 -0.1490 -0.0692
 5776W        W22037   7.813   4.812  14.806 -0.1368 -0.2524 -0.0901
 5777W        W22038   0.668   5.444  13.299  0.0865  0.0982  0.2879
 5778W        W22039  18.161   4.116  13.727 -0.1717  0.0620 -0.0262
 5779W        W22040   4.982  14.869  15.647  0.0678 -0.3294 -0.1572
 5780W        W22041   6.693   9.542   3.231 -0.1667 -0.0849  0.1658
 5781W        W22042  11.588  17.328   1.134 -0.0773  0.0750 -0.2370
 5782W        W22043   6.902  11.646   5.124 -0.5037 -0.1215 -0.0755
 5783W        W22044  15.588  14.115  15.552  0.0089  0.0134  0.1435
 5784W        W22045  10.617   5.637  14.214 -0.2435 -0.0170 -0.0468
 5785W        W22046   7.872   6.148   1.668 -0.0541  0.2255 -0.0198
 5786W        W22047   4.315  15.233  14.456 -0.1349  0.0114 -0.0197
 5787W        W22048  12.990  10.053   2.775  0.1269  0.0109  0.2125
 5788W        W22049  11.902  10.184   2.043 -0.1936 -0.0983  0.3991
 5789W        W22050   5.815  10.244  16.293 -0.2506 -0.1375 -0.1097
 5790W        W22051  11.865  13.438   0.718 -0.2904  0.0837  0.0887
 5791W        W22052   4.411   0.151   4.908  0.1833  0.1580 -0.0664
 5792W        W22053   8.486   7.037  12.658 -0.0891  0.2009  0.1895
 5793W        W22054  11.040   1.781   1.576 -0.0664  0.0450  0.1837
 5794W        W22055  11.511  12.836   2.838 -0.3868  0.1141 -0.0725
 5795W        W22056  12.480  15.547  13.697  0.1816  0.0421 -0.1132
 5796W        W22057   5.284   9.558  12.031  0.0946 -0.1622  0.0345
 5797W        W22058  15.433   4.655  13.642  0.3015  0.1236 -0.1217
 5798W        W22059   9.386  12.773   3.207  0.0787  0.0328  0.0694
 5799W        W22060  14.662   3.323   4.281 -0.1481 -0.0067  0.2336
 5800W        W22061   4.102   2.922   0.905  0.1112 -0.3461  0.0829
 5801W        W22062  16.768  17.349  14.255  0.0840  0.3150  0.0257
 5802W        W22063   6.247   8.358   4.318  0.1718  0.0724 -0.0459
 5803W        W22064  14.116   1.172   5.043  0.3161 -0.2439  0.0288
 5804W        W22065   2.134  11.160   4.596 -0.1688 -0.0818  0.2811
 5805W        W22066   3.554   5.081   0.192 -0.0364 -0.1518  0.2928
 5806W        W22067   4.252   5.320  14.042  0.3589 -0.1510  0.0460
 5807W        W22068   7.665  17.264  16.273  0.1768 -0.1606  0.0434
 5808W        W22069   7.147   4.495   9.945 -0.1144  0.1436 -0.1691
 5809W        W22070   8.171   3.917   4.918  0.0359  0.2519  0.1330
 5810W        W22071   9.942  18.212   4.254  0.0491  0.2148 -0.1615
 5811W        W22072   6.022   2.632   1.903 -0.1896 -0.1825  0.0786
 5812W        W22073   7.236  11.017   1.032 -0.0623  0.0315 -0.0184
 5813W        W22074  14.951   7.075   4.262  0.2418 -0.2768 -0.3011
 5814W        W22075  12.317  13.123   1.688 -0.1630 -0.1588 -0.1118
 5815W        W22076   9.431   9.334  10.666 -0.1143 -0.1461 -0.0043
 5816W        W22077  18.290   0.732   3.237  0.1767  0.1406 -0.1330
 5817W        W22078   4.243   3.835   5.253  0.2351 -0.0864  0.2189
 5818W        W22079   8.413  10.367   3.904 -0.1120 -0.0793 -0.2932
 5819W        W22080   8.918   3.706  15.985 -0.4584  0.3022  0.1900
 5820W        W22081  12.876  16.977   3.555  0.0634 -0.2579 -0.1967
 5821W        W22082   1.524   0.177  16.243  0.1128 -0.0809 -0.0362
 5822W        W22083   7.761  11.035   2.734 -0.1134  0.1563  0.0459
 5823W        W22084  16.417   7.110  15.299  0.0568  0.3023  0.1925
 5824W        W22085  11.941   8.161   3.137  0.3391 -0.0378  0.1753
 5825W        W22086  15.464  11.911  15.277  0.2563  0.4168 -0.1667
 5826W        W22087  18.164   9.639  15.658 -0.0795 -0.0430 -0.2981
 5827W        W22088  12.686  10.973  12.221 -0.3394  0.2121 -0.2678
 5828W        W22089  12.243  10.035  13.553 -0.2812 -0.1302 -0.1736
 5829W        W22090   9.055   5.216   5.431  0.3447 -0.1843  0.0444
 5830W        W22091  17.576  18.161  13.952  0.1936  0.4746 -0.0296
 5831W        W22092  14.409   1.163   4.644  0.2298 -0.0984  0.1822
 5832W        W22093  16.297   3.813  11.912  0.2178 -0.0515  0.0113
 5833W        W22094   4.361  11.592   4.043 -0.1584  0.3764  0.0689
 5834W        W22095   7.741   3.644   5.101  0.0259  0.1056 -0.0322
 5835W        W22096  15.976  15.624   4.478 -0.1209  0.0607 -0.2029
 5836W        W22097   7.462   0.349  12.339 -0.0375 -0.0922 -0.0939
 5837W        W22098  14.027  14.076   1.292  0.1707 -0.2643 -0.2312
 5838W        W22099   3.712   9.597  12.662 -0.3589 -0.0520  0.0085
 5839W        W22100  17.760  17.642   4.254 -0.1522 -0.0496 -0.4076
 5840W        W22101  16.412  17.128  15.843 -0.0617 -0.1943  0.1279
 5841W        W22102  12.406   8.440  12.048  0.2497  0.0834  0.3167
 5842W        W22103   0.773  17.709   5.944 -0.0133  0.3774 -0.1871
 5843W        W22104  14.847   7.262   3.763  0.3080  0.3298  0.0770
 5844W        W22105  12.548  12.750   0.804  0.2764  0.0272 -0.1891
 5845W        W22106  12.829   6.887   0.037  0.2029 -0.0685  0.1402
 5846W        W22107   9.072  10.773  10.773 -0.1207  0.3243  0.0768
 5847W        W22108   2.149  13.983   2.568 -0.0966  0.2023  0.2394
 5848W        W22109  10.960  14.819   1.227  0.0235 -0.4019  0.2112
 5849W        W22110  11.196   5.105  12.388 -0.2319 -0.1934 -0.0513
 5850W        W22111   4.546  15.963   1.852  0.3404  0.1534 -0.2655
 5851W        W22112   9.921  11.908   1.247 -0.0707  0.1063  0.0935
 5852W        W22113   2.859   9.069   1.958 -0.0446  0.0875  0.1606
 5853W        W22114   1.947  15.629   0.369  0.2166 -0.0854 -0.1495
 5854W        W22115   9.333   4.912   1.213  0.2468 -0.1280 -0.1377
 5855W        W22116  17.180  13.146   2.812 -0.0997  0.0290  0.0157
 5856W        W22117   9.040   1.135  12.334  0.0033 -0.1062  0.2017
 5857W        W22118   0.861  13.307   3.584  0.0439  0.0144  0.2354
 5858W        W22119   9.044   2.356  15.346  0.2443 -0.1414 -0.1312
 5859W        W22120   1.253   9.814   2.742  0.1510 -0.1203  0.0199
 5860W        W22121  14.397   8.017  11.673 -0.2804  0.2875  0.0136
 5861W        W22122  10.735   1.821   4.358 -0.3672 -0.0957 -0.0730
 5862W        W22123   3.496  11.254   2.546 -0.4923  0.2029  0.1960
 5863W        W22124   7.770   4.237   1.984 -0.0488 -0.0465 -0.3240
 5864W        W22125  16.231  16.656  12.004  0.1025 -0.0658  0.0125
 5865W        W22126   9.703   6.642  15.845  0.1308  0.1543 -0.0024
 5866W        W22127   2.019   2.637  12.111 -0.1377  0.0076 -0.1197
 5867W        W22128   4.006  13.191  13.003 -0.1091 -0.1746 -0.0811
 5868W        W22129  12.633   4.131   4.159  0.1108  0.0364 -0.1858
 5869W        W22130   7.825   3.535   3.467  0.0911 -0.1057 -0.2202
 5870W        W22131  10.191   1.454   2.010 -0.0371  0.0710  0.1451
 5871W        W22132  13.472   8.735   2.648  0.0059 -0.2000 -0.0950
 5872W        W22133   0.413   0.398  14.705  0.1724 -0.3197 -0.2747
 5873W        W22134   4.200  11.211   0.605  0.2544  0.0873 -0.0696
 5874W        W22135   1.766   9.139  14.111 -0.0681 -0.0406 -0.4812
 5875W        W22136   9.628   6.841  11.234 -0.1703 -0.1410  0.1713
 5876W        W22137  10.800   0.639  14.011  0.0203  0.3659  0.2107
 5877W        W22138  17.034   3.635   5.908  0.0988 -0.0598 -0.1379
 5878W        W22139   9.659  11.367   3.427 -0.1924 -0.0530  0.1902
 5879W        W22140  16.420   1.135  15.092  0.4102  0.1553 -0.1163
 5880W        W22141   7.277  18.069  11.675  0.3568 -0.1926 -0.0244
 5881W        W22142   5.521   1.378   2.104 -0.2062  0.0023  0.1044
 5882W        W22143  13.283   1.689  13.815 -0.1087 -0.0220  0.1116
 5883W        W22144   1.993   7.943  12.598 -0.1450  0.3031 -0.2283
 5884W        W22145  11.795   8.518  10.229 -0.1017 -0.0412 -0.0265
 5885W        W22146   7.646   1.565  13.681 -0.2186 -0.2520 -0.3515
 5886W        W22147   5.308  13.468  15.806 -0.2760  0.0452 -0.0406
 5887W        W22148  14.689   9.948   2.132 -0.1290  0.1248  0.2018
 5888W        W22149   1.908  18.075   5.331 -0.4151 -0.0257  0.1568
 5889W        W22150   7.099   1.955   3.149  0.1109  0.0352  0.1187
 5890W        W22151   3.332   9.434   4.426 -0.1994  0.2328 -0.0302
 5891W        W22152   2.211  15.183  10.305  0.2685 -0.1519  0.3565
 5892W        W22153  11.096  13.595   3.273 -0.1366  0.1414 -0.1489
 5893W        W22154  10.933   3.395   4.902  0.1487 -0.2996  0.1644
 5894W        W22155   6.835   9.369  15.788  0.0834 -0.0936 -0.0411
 5895W        W22156  13.716  13.315   2.504 -0.1488  0.3459 -0.2391
 5896W        W22157  12.174  15.642  11.071 -0.2407  0.2265  0.1494
 5897W        W22158  11.987   5.160  11.603  0.0940 -0.1814 -0.1132
 5898W        W22159  11.008   1.109  11.186  0.1254 -0.1648  0.0368
 5899W        W22160  10.495   4.657  14.588 -0.1568  0.1128  0.2113
 5900W        W22161   3.811  13.615  13.903 -0.1405  0.2370 -0.0127
 5901W        W22162  16.618  15.315  13.927  0.1212 -0.1207  0.0302
 5902W        W22163   2.410  16.877  14.890  0.2170  0.2080  0.1598
 5903W        W22164  18.000  16.917  12.179 -0.0589 -0.1088  0.2401
 5904W        W22165  11.308   1.582  11.230  0.0550  0.0365 -0.2597
 5905W        W22166   0.157  15.597   4.051  0.1031  0.0366  0.0879
 5906W        W22167   8.137  11.232   2.396  0.0953 -0.1579 -0.0089
 5907W        W22168   4.677  17.186   2.444 -0.1783 -0.3026 -0.1129
 5908W        W22169  14.702   7.709   5.637  0.1780 -0.1967 -0.1616
 5909W        W22170   2.928  17.417   1.869 -0.0541  0.3155  0.3591
 5910W        W22171   8.389  17.125   0.422 -0.1066 -0.1648 -0.3783
 5911W        W22172   1.660  10.792  10.726  0.1130 -0.2304 -0.0695
 5912W        W22173  14.068   0.072   1.587  0.2063 -0.1671 -0.1599
 5913W        W22174   3.202  13.636  11.883 -0.1000  0.3852  0.1388
 5914W        W22175   2.465  12.900   0.140  0.0102  0.0570  0.3128
 5915W        W22176  10.547   7.497   1.065  0.2189 -0.3140 -0.5379
 5916W        W22177  15.669  10.258   1.940  0.1225 -0.2045 -0.0202
 5917W        W22178  14.089   8.904   1.141 -0.0505  0.0797  0.2724
 5918W        W22179  17.954   6.356   2.244 -0.0806 -0.2544  0.4139
 5919W        W22180   1.299  11.182   3.997  0.1650  0.0850 -0.2254
 5920W        W22181  14.674  12.822   0.207  0.0001 -0.1409  0.1584
 5921W        W22182   5.290  14.868   1.579  0.1755  0.3363  0.0385
 5922W        W22183   5.109  12.895  11.310  0.1273  0.3257 -0.2839
 5923W        W22184  16.456   0.314  11.922  0.0334  0.1399  0.3398
 5924W        W22185  11.257  16.749  11.359 -0.0190 -0.0987  0.0220
 5925W        W22186  11.984   0.060  15.969  0.0923  0.0298  0.0338
 5926W        W22187   3.814  17.457   3.522  0.0604 -0.2613 -0.1906
 5927W        W22188   6.636   1.495   4.301 -0.1700  0.0967 -0.0879
 5928W        W22189   1.458   9.698   0.101  0.0174  0.0545 -0.3981
 5929W        W22190   4.921  15.357   5.920  0.0934  0.0703 -0.0478
 5930W        W22191  14.642  17.374   1.941  0.1699 -0.2970  0.0186
 5931W        W22192   3.427   9.338   0.968  0.0864 -0.1717 -0.0557
 5932W        W22193   4.709  17.815  13.047  0.0901 -0.2002 -0.2023
 5933W        W22194   9.791   5.178   1.989 -0.0306  0.1380 -0.0510
 5934W        W22195   6.991  11.399   2.626 -0.1949 -0.0528 -0.1302
 5935W        W22196   1.058   1.739   2.129  0.2649 -0.1318 -0.0267
 5936W        W22197   3.361   4.253  12.419 -0.2175  0.1609 -0.0704
 5937W        W22198   2.150  16.371   4.886 -0.1227  0.2189  0.2583
 5938W        W22199  11.225   0.291  16.261 -0.0748 -0.0662 -0.1672
 5939W        W22200  11.858  11.475  14.610  0.3226  0.1244  0.1475
 5940W        W22201   7.699  14.562   1.225  0.0635 -0.0452 -0.2811
 5941W        W22202   3.312  16.167   0.363 -0.1365  0.0597  0.1772
 5942W        W22203   6.916   0.439  11.060 -0.0695  0.1074  0.1442
 5943W        W22204   2.959  13.710  12.358  0.3148  0.2833  0.0074
 5944W        W22205   8.490  12.079  15.685 -0.0577 -0.4532  0.1203
 5945W        W22206  12.917  14.593  15.090 -0.2344 -0.2578  0.0962
 5946W        W22207  17.265   1.449   5.229  0.0256 -0.1481  0.2951
 5947W        W22208  11.767   6.249   0.672  0.2857  0.0598 -0.0159
 5948W        W22209  11.781   2.855  14.219 -0.0839  0.0824  0.3170
 5949W        W22210   7.199  10.063  16.210 -0.0326  0.1298 -0.1645
 5950W        W22211  17.674   9.601   3.490 -0.2094  0.1371  0.2827
 5951W        W22212   0.193  12.422   2.402 -0.0633 -0.0064 -0.0366
 5952W        W22213  15.613   1.743  13.669  0.1515  0.2266 -0.2851
 5953W        W22214   0.960  14.184   1.506 -0.1376  0.1279  0.0411
 5954W        W22215   7.684  14.576  15.057 -0.1279 -0.0887 -0.0620
 5955W        W22216  13.198   2.970  14.601 -0.2804 -0.1503 -0.1914
 5956W        W22217   7.801   8.879   5.260  0.4529  0.0329 -0.3895
 5957W        W22218  16.303  17.412  11.823  0.2159 -0.2878  0.2185
 5958W        W22219   8.823   2.213   4.727  0.2576 -0.0589  0.2466
 5959W        W22220  12.358  17.710   0.080 -0.0424 -0.0937  0.2762
 5960W        W22221   5.197   4.878   5.082 -0.0927 -0.0913 -0.1776
 5961W        W22222   0.565  16.194  15.782 -0.1215 -0.0602 -0.1961
 5962W        W22223  16.389   1.740   5.062  0.2685  0.1833 -0.0718
 5963W        W22224   1.069   0.031   1.097 -0.4586 -0.0112  0.2704
 5964W        W22225  13.665   0.506   1.238 -0.1463  0.1226 -0.0729
 5965W        W22226  13.475  14.523  15.043 -0.1231  0.1284 -0.2223
 5966W        W22227  11.127  14.359   0.499 -0.2851 -0.0684  0.1938
 5967W        W22228   7.055  13.776  11.405 -0.0350 -0.1611  0.1997
 5968W        W22229  11.601   7.782   2.293 -0.0628  0.0140 -0.0690
 5969W        W22230  13.268  17.593  14.823  0.0710 -0.1711  0.1653
 5970W        W22231   3.120  14.787   3.445 -0.4436  0.1028  0.1849
 5971W        W22232   1.285   0.638   2.250 -0.2416 -0.0395 -0.0447
 5972W        W22233   4.400   0.593   6.169  0.1115 -0.0707 -0.0861
 5973W        W22234  16.722  10.767   2.858  0.3165  0.1257  0.3301
 5974W        W22235  17.483  12.821  14.873  0.3546 -0.3135  0.0438
 5975W        W22236   0.950   6.894  11.233 -0.1469  0.0495 -0.0068
 5976W        W22237   8.811  13.392  15.244  0.1557  0.1315  0.3879
 5977W        W22238  15.121  13.852  15.555 -0.2268 -0.2662  0.0420
 5978W        W22239   6.628   2.817   1.640 -0.1932 -0.3973 -0.0568
 5979W        W22240  17.438  17.955  14.365 -0.3102  0.0209  0.0202
 5980W        W22241  15.586   5.626   1.753  0.2153 -0.3791  0.1371
 5981W        W22242  16.580  13.338  15.058  0.0885 -0.1051 -0.1546
 5982W        W22243   9.458   7.138   3.961 -0.0410  0.0836  0.2223
 5983W        W22244   5.375  16.165  11.846  0.0772  0.0829 -0.1528
 5984W        W22245  14.715   0.349   3.138 -0.2139 -0.0938 -0.3137
 5985W        W22246  14.385  16.030   5.605  0.3991 -0.0790  0.2907
 5986W        W22247   5.858  16.711   0.027 -0.1290  0.0703 -0.0181
 5987W        W22248  10.354  11.859  11.962 -0.1492 -0.2708 -0.0415
 5988W        W22249   0.394  11.121  12.667 -0.2243  0.4212  0.0350
 5989W        W22250   1.583   9.400   4.118 -0.0897 -0.4719  0.0089
 5990W        W22251  10.246  12.572   3.639  0.0808  0.1465  0.1695
 5991W        W22252  13.110   3.417  13.518 -0.3685 -0.0104 -0.0617
 5992W        W22253   2.490   4.625   1.620 -0.3421 -0.0395  0.0964
 5993W        W22254  12.823   0.075  13.888  0.0216  0.1053 -0.0969
 5994W        W22255  11.140   5.843   0.974  0.4051  0.0130  0.0377
 5995W        W22256  10.214   5.893  12.866  0.0889  0.4192  0.1606
 5996W        W22257   9.201   7.093   2.910 -0.1961  0.0522 -0.1424
 5997W        W22258  10.167   0.740  10.510 -0.0429  0.0522  0.1684
 5998W        W22259  17.838  14.231   0.822  0.1768  0.1220 -0.1299
 5999W        W22260  13.907  12.966  15.190  0.0584  0.1507 -0.0155
 6000W        W22261   0.820  17.605   0.018  0.2975  0.1171 -0.2300
 6001W        W22262   9.683  17.622   1.720 -0.0375  0.1016  0.1731
 6002W        W22263   5.495   3.185  13.081  0.5462  0.1155 -0.2994
 6003W        W22264   4.646  16.557  13.917 -0.4657 -0.2431 -0.0164
 6004W        W22265  13.317   4.430   3.800 -0.1985 -0.0727 -0.0172
 6005W        W22266  14.810  16.020   3.721 -0.1701  0.2310  0.1021
 6006W        W22267  10.234   2.129  15.480 -0.3178 -0.2788  0.0691
 6007W        W22268  11.370   6.882  11.649 -0.0288 -0.1334 -0.2317
 6008W        W22269   9.049  12.042  14.652  0.1354  0.2039 -0.2485
 6009W        W22270  10.882   0.876  13.553  0.0071  0.0468 -0.1263
 6010W        W22271  17.786   3.933   5.422  0.1881  0.3900 -0.1067
 6011W        W22272   1.579   5.717   1.196  0.2952 -0.2136  0.0628
 6012W        W22273   0.227   7.798   4.540  0.2992 -0.1881 -0.0507
 6013W        W22274   4.999   6.886  16.062  0.2268 -0.0593 -0.2165
 6014W        W22275  12.914   3.384  14.896 -0.0231 -0.0634  0.1110
 6015W        W22276   3.393  13.122   1.386  0.5382 -0.2905 -0.0209
 6016W        W22277  16.720   9.319  11.272 -0.0764  0.1204  0.2668
 6017W        W22278  13.482   7.329   6.227 -0.0680 -0.0362 -0.1386
 6018W        W22279   5.376   7.239  15.825  0.1546  0.5398 -0.1581
 6019W        W22280   6.466   6.989   1.596 -0.2912  0.2133  0.1142
 6020W        W22281  16.761   9.536  13.143 -0.3563  0.5963  0.1367
 6021W        W22282   6.623  14.095  13.936 -0.0835 -0.0932 -0.2668
 6022W        W22283  12.664   6.850  12.902 -0.3098  0.0669 -0.0484
 6023W        W22284  12.498  16.662  15.956  0.0970 -0.0732  0.3730
 6024W        W22285  13.657  13.422  13.039  0.0231 -0.0431  0.1025
 6025W        W22286  11.573   5.688  14.483 -0.3132  0.0331 -0.0332
 6026W        W22287  15.638   2.577  12.193  0.1287 -0.3452  0.1960
 6027W        W22288  16.956   1.758   3.139 -0.0942  0.1226  0.0404
 6028W        W22289  13.538   6.994  15.600 -0.2627  0.2019  0.0336
 6029W        W22290   1.695  10.483  11.097 -0.1973  0.2394  0.0206
 6030W        W22291   1.217   2.831   0.077  0.0395 -0.2616  0.0859
 6031W        W22292  15.938   4.367  15.242  0.0658 -0.0050  0.0839
 6032W        W22293   2.911   1.614  14.880  0.2493 -0.2523 -0.2264
 6033W        W22294   7.378   0.385  16.278  0.3947 -0.1308 -0.0723
 6034W        W22295   3.256   9.715   4.032 -0.2499  0.0603 -0.1685
 6035W        W22296   5.611  12.766  15.862  0.3780  0.1074 -0.0889
 6036W        W22297  16.887   9.469   5.165 -0.2166 -0.3189 -0.2313
 6037W        W22298   7.230  17.496  12.496 -0.3828  0.1259 -0.1416
 6038W        W22299  18.264   1.894  14.217  0.0265  0.2202 -0.2313
 6039W        W22300  13.281   4.028  12.000 -0.3330 -0.2041 -0.0198
 6040W        W22301  14.111  10.481   4.949  0.0880 -0.2844 -0.2514
 6041W        W22302   3.890   4.378   2.272  0.0547 -0.0993 -0.0949
 6042W        W22303  16.044  10.405   1.010 -0.1882  0.1303  0.0403
 6043W        W22304  17.192  10.743   1.012 -0.1899 -0.0557  0.3985
 6044W        W22305   5.312  11.891   4.352 -0.1236 -0.1744 -0.5292
 6045W        W22306   7.138  17.156   1.329 -0.1206 -0.1640 -0.0226
 6046W        W22307  15.172  13.396  15.349 -0.2712  0.2705 -0.0990
 6047W        W22308  15.554   3.523  15.039 -0.1476  0.5609 -0.0795
 6048W        W22309   5.533  16.886   3.489  0.1761 -0.0527 -0.2390
 6049W        W22310   7.247   8.370   4.654  0.1740  0.0790  0.2933
 6050W        W22311  10.115   1.194  11.359 -0.2096 -0.1033 -0.4310
 6051W        W22312   0.283   5.510  14.591 -0.2469  0.1593  0.0118
 6052W        W22313   1.501  11.602   5.874  0.0427  0.1212 -0.3948
 6053W        W22314   0.446  14.887   4.058  0.0205 -0.1781  0.3026
 6054W        W22315  11.603  14.914   2.350  0.0504 -0.0074 -0.0045
 6055W        W22316  13.930  11.291  11.869 -0.0264 -0.0746 -0.0345
 6056W        W22317  17.261   3.229  14.802 -0.0824 -0.4682 -0.0484
 6057W        W22318  13.993  10.015   5.014 -0.0223  0.1158  0.1155
 6058W        W22319   7.642  16.917  15.879  0.1431 -0.2252 -0.0328
 6059W        W22320  10.681   0.234   4.981 -0.0854  0.1887  0.0931
 6060W        W22321   1.752  13.304   0.242 -0.6018  0.0627  0.0096
 6061W        W22322  17.594  16.180   2.920  0.0009  0.1230 -0.2632
 6062W        W22323  13.642   5.805  15.093  0.1854 -0.0673  0.1519
 6063W        W22324   6.445  16.606  15.078 -0.0893  0.1548  0.1661
 6064W        W22325  10.735   2.562   6.344 -0.2919  0.1392  0.0394
 6065W        W22326  12.449   3.438   0.438 -0.1119  0.0886  0.0281
 6066W        W22327  12.857   0.522   4.440  0.1981  0.0403 -0.1500
 6067W        W22328  11.457   6.809   0.349 -0.0025  0.0659 -0.2291
 6068W        W22329   0.407   3.502   0.345  0.3520 -0.2708 -0.0191
 6069W        W22330  12.059  16.546  14.619  0.1401  0.0082 -0.3338
 6070W        W22331   0.682   9.544  14.595  0.0225 -0.4312  0.4476
 6071W        W22332   4.154   0.537  14.748 -0.2496  0.0382  0.3122
 6072W        W22333  10.401   6.745  13.319 -0.0393  0.0230  0.2327
 6073W        W22334   2.978   0.084   0.843  0.5698 -0.4288  0.0044
 6074W        W22335   9.152   9.358   1.511  0.1451  0.1435 -0.1867
 6075W        W22336  15.357  12.395  13.034 -0.0571  0.0677  0.1617
 6076W        W22337   4.279   9.420   2.128  0.1956  0.4079 -0.1526
 6077W        W22338  12.921   8.358   4.215 -0.2110  0.0626  0.0261
 6078W        W22339   5.375  18.303  15.149 -0.0984 -0.0019 -0.1441
 6079W        W22340   8.540   2.446   5.058  0.0315  0.1351  0.1255
 6080W        W22341  11.436  17.797  11.452 -0.0618  0.0491 -0.1920
 6081W        W22342  10.825   6.978   2.406 -0.2616  0.3437  0.1168
 6082W        W22343   9.005   7.172   4.189  0.0359  0.0327  0.1426
 6083W        W22344   5.513  16.155  15.118 -0.1748  0.0623  0.0690
 6084W        W22345  16.888   7.670   2.908  0.0416  0.2500  0.1297
 6085W        W22346   6.476   0.626  14.457  0.0461  0.1042 -0.0612
 6086W        W22347   9.934   1.463   4.320  0.1389  0.1508  0.0843
 6087W        W22348   4.396  12.877   5.680  0.1554  0.1420  0.3293
 6088W        W22349  16.222   8.512  15.600 -0.1160 -0.0136 -0.0077
 6089W        W22350   9.989   5.909   2.178  0.0891  0.0626  0.2433
 6090W        W22351   2.246  11.793   0.644 -0.0636  0.2108 -0.1220
 6091W        W22352   5.303  10.475  12.100 -0.1714 -0.0572 -0.2833
 6092W        W22353   0.656   4.579   0.990 -0.0238 -0.2688 -0.2129
 6093W        W22354   3.867   9.151   3.559  0.1673  0.4338 -0.1801
 6094W        W22355   6.727  11.965  16.187 -0.0563 -0.4248 -0.2701
 6095W        W22356   7.610  12.605   3.538  0.0644 -0.1729  0.1721
 6096W        W22357   5.839  11.301  14.428  0.0851 -0.1007 -0.0365
 6097W        W22358  16.932   2.205   2.199  0.0834 -0.0588 -0.1328
 6098W        W22359  10.522   5.393  13.270 -0.2173 -0.0343 -0.1625
 6099W        W22360  17.200   9.813   5.280 -0.2354 -0.3272 -0.3692
 6100W        W22361  10.119  16.742  13.395  0.2344  0.2243  0.1081
 6101W        W22362   8.581  11.032  10.832 -0.4270  0.1479 -0.1445
 6102W        W22363  12.448   1.046  15.893 -0.0729  0.1726  0.2668
 6103W        W22364   1.231   3.099  15.391 -0.0883  0.1070 -0.1445
 6104W        W22365  14.699   5.663   6.101 -0.1619  0.1006 -0.2816
 6105W        W22366   3.656   1.727  14.009 -0.1090 -0.0998 -0.2237
 6106W        W22367  15.329   5.090  16.159  0.0903  0.1355 -0.0621
 6107W        W22368   1.903  15.769  11.900  0.0310  0.1691  0.3418
 6108W        W22369   4.360  11.667   6.100  0.2737 -0.2145  0.0794
 6109W        W22370   7.213   8.709   4.116 -0.0269  0.1259 -0.0862
 6110W        W22371   0.073   7.279   4.469 -0.0244  0.0045 -0.1133
 6111W        W22372  11.506   0.322  15.191  0.0658  0.2241  0.1503
 6112W        W22373   8.180  14.463   3.710 -0.1994  0.0849 -0.1530
 6113W        W22374   0.652  10.906  10.303  0.1781  0.1946  0.0455
 6114W        W22375  14.291  15.818   3.775 -0.2428 -0.2286  0.0279
 6115W        W22376   0.236  10.281   1.289 -0.1784 -0.0234  0.0498
 6116W        W22377  11.382  14.811  13.250  0.1035 -0.0876 -0.0250
 6117W        W22378   9.278   8.224  13.134  0.2421 -0.1972 -0.1011
 6118W        W22379   5.000  18.011   2.329  0.1321 -0.1155  0.3627
 6119W        W22380  10.806  16.662   1.475  0.0558 -0.0638  0.0904
 6120W        W22381   8.059   2.619  15.472 -0.1664  0.2331 -0.1172
 6121W        W22382  17.956   0.168  12.109 -0.0011 -0.2616 -0.0927
 6122W        W22383   5.899  17.941   4.100  0.0129 -0.0026 -0.0479
 6123W        W22384   4.890   7.771  12.980  0.0720 -0.2499 -0.0395
 6124W        W22385  13.719  11.986   4.196  0.0215 -0.0006 -0.3326
 6125W        W22386  11.576  11.931   1.489  0.2719 -0.1571  0.0570
 6126W        W22387  12.671  16.299   2.186 -0.1115 -0.0118  0.1414
 6127W        W22388  14.281   3.937   4.827 -0.2172  0.2392  0.0376
 6128W        W22389   1.299   6.467  12.547 -0.3148 -0.2568  0.3472
 6129W        W22390  10.394   8.790   0.313 -0.0647  0.2402 -0.0958
 6130W        W22391  10.253  13.526   0.581 -0.2280 -0.1066 -0.2853
 6131W        W22392   8.101  14.545   3.228  0.1413  0.2780 -0.0160
 6132W        W22393  15.398   8.323   5.604  0.0023  0.0519  0.1267
 6133W        W22394  13.978   7.403   3.523  0.1231 -0.1186 -0.0677
 6134W        W22395  10.068   0.655  15.459 -0.1876 -0.0303  0.1237
 6135W        W22396   6.187   5.743   0.663  0.2593  0.0105 -0.0760
 6136W        W22397  17.563   9.005   5.950 -0.1627  0.1963 -0.3809
 6137W        W22398   5.569  17.154  14.584  0.0155  0.1585  0.1604
 6138W        W22399   6.394   4.247   0.552  0.0633  0.0261 -0.0666
 6139W        W22400   8.659   5.878   0.477  0.1828 -0.0962 -0.0714
 6140W        W22401  16.922   1.254   3.292  0.2825  0.1443 -0.1642
 6141W        W22402   9.424   1.070   4.450  0.1545  0.1954  0.0672
 6142W        W22403   2.879   5.321  12.377  0.1791 -0.3121 -0.0884
 6143W        W22404  12.708   5.820   1.403  0.0580  0.0156 -0.0916
 6144W        W22405   6.289   5.335  12.010 -0.0597  0.1059  0.0459
 6145W        W22406   7.751  16.929   3.577 -0.2699  0.1073  0.2620
 6146W        W22407  10.487   5.268  15.373  0.0673  0.0280 -0.3990
 6147W        W22408   7.065   6.108   3.887  0.2991  0.0294 -0.1108
 6148W        W22409   3.581  17.124  13.322  0.0368 -0.1816  0.2275
 6149W        W22410   8.977   0.320   0.457 -0.3270  0.1501 -0.0077
 6150W        W22411   4.954   6.824  13.626  0.2383 -0.1542  0.1635
 6151W        W22412   4.205   2.681  14.028  0.3366  0.1546 -0.1240
 6152W        W22413  14.652   1.505  13.276 -0.0059 -0.0648  0.2576
 6153W        W22414  13.353   8.148   2.536  0.2215  0.2077 -0.1506
 6154W        W22415   8.121   9.226  14.452  0.2624  0.1953 -0.2063
 6155W        W22416   6.147   2.781  11.586  0.2362  0.0275 -0.1455
 6156W        W22417  18.119  10.862   2.584 -0.1522  0.0102 -0.1285
 6157W        W22418   9.618  17.966  13.102 -0.1191 -0.1783  0.2001
 6158W        W22419  16.114   4.909   4.822 -0.0236 -0.0035 -0.1308
 6159W        W22420  16.416   4.236   0.699 -0.0247 -0.2009  0.0570
 6160W        W22421  16.696   1.194  13.942 -0.0759  0.0961  0.2140
 6161W        W22422  10.760  15.547  13.931  0.0727  0.1445 -0.0700
 6162W        W22423  10.862  15.787   5.668 -0.4589 -0.1969  0.0376
 6163W        W22424  12.896   8.901  12.168  0.1152 -0.2735 -0.1307
 6164W        W22425   2.089   4.555  12.875  0.0100 -0.0769 -0.4244
 6165W        W22426  11.468   4.056   2.487 -0.3158 -0.1815 -0.1864
 6166W        W22427  17.567  13.864   3.321 -0.0502  0.1189 -0.2467
 6167W        W22428  18.113   4.348  15.903  0.4386  0.0459 -0.3623
 6168W        W22429   7.917  17.021   3.070 -0.0059 -0.0720  0.2070
 6169W        W22430  12.570   4.917   0.270 -0.2835 -0.1294 -0.1681
 6170W        W22431   2.375  17.433   3.658 -0.2701 -0.7304 -0.1234
 6171W        W22432   4.690   2.524  15.469 -0.2328  0.2678  0.2171
 6172W        W22433   7.833  14.164   3.415  0.1858  0.2089 -0.2517
 6173W        W22434  11.587   1.219   1.863  0.0433  0.0545  0.1367
 6174W        W22435   0.164  10.586   3.754  0.1797 -0.3862  0.3216
 6175W        W22436  10.922   4.203  15.942 -0.1616  0.0223  0.1441
 6176W        W22437  15.234   1.581  14.809 -0.0436  0.2655  0.1167
 6177W        W22438   6.114  14.893   4.470 -0.1196 -0.4433 -0.0367
 6178W        W22439  10.843   4.751  11.167 -0.0748  0.3053  0.1763
 6179W        W22440   4.090   0.090   1.783  0.0415 -0.1963  0.0735
 6180W        W22441  15.187  12.834  11.694 -0.2229 -0.0647 -0.1030
 6181W        W22442   5.665   7.546   1.854  0.2714 -0.1601 -0.1676
 6182W        W22443  17.287   5.889   5.058  0.0464  0.3828  0.3212
 6183W        W22444   9.726  15.984   5.677 -0.1753  0.4138 -0.0657
 6184W        W22445   2.059  17.869  13.676  0.2867 -0.1209 -0.1545
 6185W        W22446  16.431   8.557  11.848  0.2169  0.1978 -0.3213
 6186W        W22447   0.938   5.570   2.591  0.2823  0.0173  0.1355
 6187W        W22448  12.808  17.678   2.292  0.1244 -0.0935 -0.0040
 6188W        W22449   7.629   4.823   0.260  0.0851  0.0588 -0.1318
 6189W        W22450  18.151  11.596   5.626 -0.2794 -0.0496  0.1790
 6190W        W22451  16.502   0.903   2.030  0.2133 -0.0785  0.0239
 6191W        W22452  15.470  16.007   4.148 -0.0308  0.2439 -0.0440
 6192W        W22453   0.330   8.476  11.826  0.2144  0.4074  0.0794
 6193W        W22454   5.391  15.578   5.080 -0.3614 -0.1416  0.3329
 6194W        W22455   5.658   7.510   5.070  0.1643  0.0313 -0.2177
 6195W        W22456   5.229  15.799  13.867  0.0453  0.0354  0.4019
 6196W        W22457   0.975   1.980  16.131 -0.1217  0.0365  0.1615
 6197W        W22458  13.634   0.560   4.518  0.1269  0.0091 -0.2386
 6198W        W22459  12.456   4.522  14.816  0.2713  0.0191  0.0123
 6199W        W22460  17.261   8.143   0.650 -0.1086 -0.0308 -0.0073
 6200W        W22461  16.490   3.725   0.828 -0.2313  0.0856 -0.0873
 6201W        W22462   4.516  16.187  14.239 -0.0647 -0.0130  0.2059
 6202W        W22463  12.418   3.646   2.059 -0.3268 -0.1855 -0.0040
 6203W        W22464  14.687   4.226  11.644 -0.1173 -0.0724  0.0663
 6204W        W22465   0.556   8.943   2.149 -0.0821  0.0918  0.1645
 6205W        W22466   2.229   9.267  14.627 -0.3221 -0.3146  0.0202
 6206W        W22467   7.327   7.973  14.146  0.1517  0.0817 -0.2566
 6207W        W22468   7.765  14.629   5.208  0.0317 -0.0857 -0.0548
 6208W        W22469  11.818   3.505   1.078 -0.1771 -0.0048 -0.1652
 6209W        W22470   0.630   5.217  14.972 -0.0134  0.2156  0.0858
 6210W        W22471  14.075   6.128   3.079  0.0006 -0.1434 -0.1327
 6211W        W22472   8.112   2.393   2.321  0.1044 -0.0781  0.1582
 6212W        W22473   9.843   0.669   1.736 -0.0171  0.3284 -0.0619
 6213W        W22474   0.969   7.633  14.512  0.0755 -0.1315  0.1081
 6214W        W22475  11.679   1.228  16.216 -0.2704  0.0577 -0.0753
 6215W        W22476  16.317   7.921   5.027  0.1974 -0.0263  0.0330
 6216W        W22477   5.931   1.137  13.581 -0.2242  0.1825 -0.2319
 6217W        W22478  17.732  18.134   1.071  0.1778 -0.0498  0.1883
 6218W        W22479   6.856   3.570   3.517  0.2437  0.2379  0.1208
 6219W        W22480   5.439   1.716   3.788  0.0182 -0.0048  0.2799
 6220W        W22481  11.057   5.632   3.876 -0.4442 -0.2388  0.0650
 6221W        W22482  14.062   7.904   4.610  0.0529  0.1652  0.2641
 6222W        W22483  17.797   5.558   2.165 -0.1124 -0.1390  0.1900
 6223W        W22484  18.388  12.319   3.383  0.3001  0.0774  0.0997
 6224W        W22485  12.617  14.869   5.204  0.3296 -0.2182  0.3233
 6225W        W22486   5.800  15.824   1.624 -0.1156 -0.3078  0.0147
 6226W        W22487  13.509   6.085  11.970  0.1766  0.0730  0.2827
 6227W        W22488   0.384   1.475   0.392  0.4103 -0.1194 -0.1502
 6228W        W22489   0.216  11.068   4.465  0.1658 -0.2357  0.0638
 6229W        W22490   8.669   5.775   5.137 -0.1355 -0.2133 -0.3786
 6230W        W22491   4.311   4.845  12.912 -0.2283  0.1703 -0.0854
 6231W        W22492  16.225  10.122   0.180  0.0806 -0.1498 -0.0744
 6232W        W22493  15.438   6.952  14.289 -0.2379  0.0074 -0.3362
 6233W        W22494   1.371  17.431  15.690 -0.1617 -0.0686 -0.0576
 6234W        W22495   6.240   5.086   1.573 -0.1678  0.0184 -0.2924
 6235W        W22496   9.563  13.901  10.399  0.0041  0.3313 -0.2045
 6236W        W22497   7.425  11.548   9.531 -0.2419  0.1828 -0.2191
 6237W        W22498   2.986  17.358   2.872  0.1033  0.0846 -0.1789
 6238W        W22499  14.159  12.247  13.534 -0.1738 -0.3548  0.0377
 6239W        W22500  12.959  16.887  13.542 -0.5275 -0.0922 -0.2365
 6240W        W22501   0.288   9.866   5.877 -0.0503 -0.0469 -0.2095
 6241W        W22502  11.081  12.075  12.490  0.2395 -0.0856 -0.2721
 6242W        W22503  12.598   0.391  14.229  0.0881 -0.2561 -0.0668
 6243W        W22504   7.163  14.903  14.926 -0.1239  0.3002 -0.0321
 6244W        W22505   3.879   6.637   6.065  0.2311 -0.4127  0.2076
 6245W        W22506  17.571   3.581   3.177  0.0496 -0.1558 -0.0246
 6246W        W22507   7.214   3.622  15.212  0.1122  0.0466  0.0294
 6247W        W22508  11.412   8.023  14.962 -0.2479 -0.2082 -0.0527
 6248W        W22509  17.246   4.126   4.727  0.0174 -0.0272  0.2750
 6249W        W22510  13.753   3.215   5.039  0.1438 -0.1744 -0.4383
 6250W        W22511   5.767  18.213   5.042  0.3504 -0.0376 -0.1074
 6251W        W22512   8.440   3.808   2.292 -0.2648 -0.1945 -0.3905
 6252W        W22513  13.858  16.929  14.838  0.1610 -0.1446  0.0793
 6253W        W22514   7.085   8.156  14.524 -0.0378 -0.2929  0.0728
 6254W        W22515   2.514   3.297  14.953 -0.1545 -0.0137  0.3086
 6255W        W22516   4.078   4.295  12.178  0.0829  0.0636  0.0720
 6256W        W22517  16.582   4.932   0.078 -0.1607 -0.3968 -0.0847
 6257W        W22518  18.064   8.463  15.531 -0.3532  0.4227 -0.2468
 6258W        W22519   1.151   9.483   5.158  0.1784 -0.0586 -0.1598
 6259W        W22520  12.247  12.318   4.146  0.2716  0.0159  0.0943
 6260W        W22521   6.099   7.953  15.518 -0.1801  0.0017  0.0050
 6261W        W22522  15.526   6.669   5.999  0.2723 -0.1822 -0.0588
 6262W        W22523   6.052  16.222   5.028  0.1640 -0.1050  0.2849
 6263W        W22524   4.143   6.545  14.188  0.0446  0.1649 -0.2463
 6264W        W22525   6.515   5.005  13.844  0.1924 -0.4602  0.0795
 6265W        W22526   0.592   4.318  12.624 -0.0074  0.2024 -0.1975
 6266W        W22527   9.637  14.080   0.690  0.0250  0.1685  0.0472
 6267W        W22528  17.804  16.104  14.930 -0.2893 -0.1183 -0.1655
 6268W        W22529   4.758  14.535  14.367  0.0787  0.3388  0.1085
 6269W        W22530  12.656  11.091  14.568  0.1378 -0.2793  0.1190
 6270W        W22531   2.832   9.849  13.374 -0.1672  0.0961 -0.2862
 6271W        W22532  16.753  12.409  14.228 -0.2387  0.1621 -0.0404
 6272W        W22533   8.132   1.198  13.610  0.5353  0.1052  0.0957
 6273W        W22534  12.951   6.036   0.171 -0.0874 -0.1721 -0.3768
 6274W        W22535   0.636   6.228   3.151 -0.1670 -0.3010  0.0436
 6275W        W22536   4.177  10.781  13.435 -0.1302 -0.0390  0.0714
 6276W        W22537   5.489  14.990   2.667  0.0806 -0.0667 -0.0798
 6277W        W22538   7.313   1.182  13.730  0.2741 -0.0532  0.0202
 6278W        W22539  12.354   8.033   3.509  0.4733 -0.0834  0.0368
 6279W        W22540  15.226  13.633  14.887  0.2136  0.1417  0.1291
 6280W        W22541  12.186   0.048   0.620  0.0425  0.0684  0.0018
 6281W        W22542   5.096   2.019  16.300 -0.0695 -0.0176 -0.1372
 6282W        W22543   0.941  11.066  12.675  0.2705 -0.1689  0.2204
 6283W        W22544   8.018   0.940   1.590  0.0615  0.0121 -0.5168
 6284W        W22545   3.315   2.834  13.921 -0.1783 -0.0752 -0.2116
 6285W        W22546  16.604   6.466  14.738  0.2096 -0.1154 -0.0497
 6286W        W22547  16.789  14.064   1.398 -0.0263 -0.3300  0.0108
 6287W        W22548   2.159   6.174   4.882  0.2086  0.0828 -0.2892
 6288W        W22549  16.255  13.375   1.731  0.0648 -0.1071 -0.0162
 6289W        W22550  14.059  10.354  13.731 -0.2971 -0.3008 -0.1176
 6290W        W22551  14.419   5.933  12.087 -0.2311 -0.3280 -0.1681
 6291W        W22552  11.975  11.085   0.654  0.2535 -0.2061 -0.1808
 6292W        W22553  18.250   3.155  14.616  0.1440 -0.0856  0.2931
 6293W        W22554   2.289   6.647   1.923  0.0202 -0.1736  0.2627
 6294W        W22555  12.980   6.318   2.273 -0.4337  0.0420 -0.2127
 6295W        W22556   8.025   6.495   4.182  0.2654 -0.2086 -0.2633
 6296W        W22557  14.172   2.524   2.004 -0.0746  0.0250  0.0265
 6297W        W22558  13.970   0.406  11.624 -0.0152 -0.1323  0.1610
 6298W        W22559  18.283   0.893  15.203 -0.1448  0.2508 -0.1774
 6299W        W22560   1.793  10.282   1.714  0.0818 -0.1411 -0.0486
 6300W        W22561   8.785   0.166   3.516  0.0483  0.4056  0.0396
 6301W        W22562  15.244   9.505  15.307 -0.3002  0.0200 -0.0945
 6302W        W22563  11.721  17.346  15.305 -0.0844 -0.0095 -0.0050
 6303W        W22564   7.202   7.106   3.979  0.3182  0.0928 -0.1022
 6304W        W22565   4.850   2.977   0.121 -0.1805  0.0317  0.0501
 6305W        W22566   1.873   3.788   1.547 -0.0706 -0.2737  0.0867
 6306W        W22567   8.332  11.041   3.935  0.0672 -0.1612 -0.3664
 6307W        W22568   1.600   4.474   3.839 -0.2197  0.2639 -0.1006
 6308W        W22569   7.997  15.028   2.625 -0.0457 -0.1148 -0.0106
 6309W        W22570   8.783  10.415  12.602  0.3373 -0.0793 -0.1544
 6310W        W22571  17.114  15.296   6.224 -0.1053  0.1071 -0.0091
 6311W        W22572  11.813  16.329  11.570 -0.1919 -0.1076  0.2534
 6312W        W22573   7.390   9.829   2.632  0.0918  0.1754  0.3690
 6313W        W22574   8.928   3.618   2.556  0.1515  0.0974  0.0037
 6314W        W22575   7.428  13.916   3.580 -0.4909 -0.1209 -0.1554
 6315W        W22576   3.632  17.770  13.676  0.0802 -0.0555  0.2800
 6316W        W22577   6.076  11.556  11.766  0.1652 -0.0278  0.1499
 6317W        W22578  17.584  11.595   3.601  0.2604 -0.1898 -0.3310
 6318W        W22579   1.313  14.341   5.196  0.0466  0.1924  0.2043
 6319W        W22580  13.376   4.280  11.570 -0.0856 -0.1512 -0.0091
 6320W        W22581  13.952   9.699   3.578 -0.1248  0.0098 -0.1756
 6321W        W22582   2.510   1.533   2.058 -0.3608 -0.0135  0.0756
 6322W        W22583   7.120   8.035  13.668 -0.2187 -0.0186  0.1042
 6323W        W22584  11.235  17.359  15.091  0.1734  0.0038  0.1006
 6324W        W22585   2.082  12.887   3.228  0.0987 -0.0139 -0.0509
 6325W        W22586  15.715   2.099   1.219 -0.4758  0.1403 -0.2305
 6326W        W22587  10.104  11.750  15.416  0.3079  0.3010  0.1245
 6327W        W22588  12.376   4.762  16.063 -0.0614  0.1304  0.0704
 6328W        W22589   5.952  13.426   2.856  0.3337  0.1034 -0.0957
 6329W        W22590  15.917  16.625   4.597  0.0286  0.1507 -0.2386
 6330W        W22591  10.066  17.677   2.461 -0.2651 -0.0668 -0.0221
 6331W        W22592  15.549   1.123   3.436  0.0282  0.1606  0.1158
 6332W        W22593  16.766   6.954  13.465 -0.1797  0.0640 -0.2405
 6333W        W22594  17.422  16.066   0.844 -0.0143  0.2601  0.0113
 6334W        W22595   5.705   6.722   0.308 -0.3201  0.0383  0.2089
 6335W        W22596  11.206   5.997  14.895 -0.0505 -0.1753  0.0679
 6336W        W22597   7.929   3.802  13.702 -0.3205  0.2479 -0.2093
 6337W        W22598   5.093  17.297   1.532 -0.1213 -0.3553  0.0330
 6338W        W22599   6.571   9.913  13.804  0.2833 -0.2047 -0.0447
 6339W        W22600   3.895  11.574   3.226  0.1625  0.2166  0.3315
 6340W        W22601   8.107   8.576  16.259 -0.1191  0.2861  0.3069
 6341W        W22602  15.929   8.366  14.840  0.1619  0.2040  0.1007
 6342W        W22603  15.145  10.934  15.250  0.0514 -0.4376  0.0761
 6343W        W22604  12.369   8.393   5.114 -0.1182 -0.4644  0.2566
 6344W        W22605  14.900  11.633  14.530 -0.1121 -0.1023 -0.0414
 6345W        W22606  15.411   4.721   0.773  0.1006 -0.1095  0.0842
 6346W        W22607  18.284   2.077   0.623 -0.0289 -0.1578  0.0191
 6347W        W22608   1.883  10.433  15.863 -0.0877 -0.0320  0.0841
 6348W        W22609   7.546  13.147  12.908 -0.1045 -0.1837  0.1428
 6349W        W22610   2.537   6.582  13.152  0.3088 -0.2329  0.1575
 6350W        W22611   2.867  14.039  12.815 -0.0881 -0.4158 -0.0373
 6351W        W22612   1.631  10.041   0.463  0.2605  0.0169  0.1033
 6352W        W22613  13.855  10.199  11.563 -0.1580 -0.3023  0.0655
 6353W        W22614   5.310  10.338   2.162 -0.1179  0.1679 -0.1791
 6354W        W22615  13.486  18.148   1.126 -0.0778 -0.3402 -0.4029
 6355W        W22616  11.981  17.967  12.900  0.4903 -0.2946  0.2113
 6356W        W22617   2.692  13.594  11.874  0.4384  0.0382 -0.0875
 6357W        W22618   7.788  16.261  12.071 -0.1944 -0.0268 -0.2740
 6358W        W22619   9.227   3.752  15.366  0.0400 -0.2142  0.0285
 6359W        W22620  15.704   7.532  15.962 -0.0972  0.2155  0.1148
 6360W        W22621   5.321   0.618  12.524  0.2554  0.0521 -0.0140
 6361W        W22622  14.574  13.335   5.324  0.1552 -0.2333 -0.1897
 6362W        W22623   3.450   5.563   1.280 -0.1806 -0.1477 -0.0763
 6363W        W22624   9.815  13.772  10.869 -0.1594 -0.0280 -0.1761
 6364W        W22625   1.839  17.491  12.458  0.2343  0.3502  0.1190
 6365W        W22626  12.432  10.933  12.687  0.3315 -0.0180  0.4523
 6366W        W22627  18.260   9.212   1.683 -0.2916  0.1614 -0.3459
 6367W        W22628  12.313  15.632  14.856  0.3802  0.0762 -0.1445
 6368W        W22629   9.669  15.631   0.901  0.3156 -0.3881 -0.4994
 6369W        W22630   8.429  13.263  13.069  0.0446 -0.2903 -0.0979
 6370W        W22631   4.398  14.636  14.026  0.0089 -0.1406 -0.0828
 6371W        W22632   2.730   7.775   1.044 -0.0865  0.2866  0.2944
 6372W        W22633   3.009  18.133  11.808 -0.0460 -0.3786  0.0151
 6373W        W22634   1.100   4.365  12.707 -0.1059 -0.1907 -0.1503
 6374W        W22635   0.285   7.452  16.006  0.1841  0.0148  0.1448
 6375W        W22636   0.161  17.459  12.516  0.0131  0.1634  0.1121
 6376W        W22637   2.545   0.039  14.474 -0.0161  0.0401  0.1777
 6377W        W22638   3.601  11.862   4.644 -0.1109  0.2382 -0.1632
 6378W        W22639   4.431   9.730   1.327  0.0285  0.1148 -0.0957
 6379W        W22640   6.403   1.112  13.795  0.1717 -0.0526 -0.0009
 6380W        W22641   8.738   3.299  14.542  0.1410 -0.3132 -0.1968
 6381W        W22642   0.455   5.691  12.906  0.0003 -0.3029 -0.4403
 6382W        W22643  14.954   5.993  12.248 -0.0285 -0.0372  0.5378
 6383W        W22644  13.605  14.830  12.571 -0.0807 -0.3211  0.2644
 6384W        W22645  12.439  15.404   3.118 -0.1323 -0.0277  0.3983
 6385W        W22646  12.448  15.233  11.958 -0.2283  0.1323  0.1632
 6386W        W22647  15.124  16.657   3.265 -0.3511  0.1329  0.0277
 6387W        W22648  14.751   8.099   1.214  0.2592  0.2090 -0.0991
 6388W        W22649  15.212   2.724  11.968  0.1342  0.0649 -0.3052
 6389W        W22650  10.310   7.066   5.844  0.0016  0.0932  0.1789
 6390W        W22651   6.204  12.191  11.518 -0.1261  0.2363  0.0758
 6391W        W22652   1.586   7.701  15.801  0.1805  0.0619 -0.3369
 6392W        W22653   0.468  12.332   3.523 -0.1181  0.0255 -0.0191
 6393W        W22654   7.999   0.091   1.990  0.0484 -0.0350  0.0599
 6394W        W22655  15.203  12.841   4.086  0.0897  0.1113  0.0897
 6395W        W22656   3.206  17.395  15.441  0.0239 -0.0384  0.0475
 6396W        W22657   2.638  13.292  15.448 -0.0985  0.0207 -0.4731
 6397W        W22658   7.162  10.489  14.030 -0.4372  0.3648  0.2147
 6398W        W22659   8.606  17.167  11.324 -0.1132  0.1492  0.2267
 6399W        W22660   4.618   7.454  14.648 -0.2319  0.0976 -0.0187
 6400W        W22661   6.028   3.806  16.252  0.0106 -0.1578  0.2680
 6401W        W22662   4.442  11.137  13.203  0.1783  0.1795  0.1716
 6402W        W22663   9.463  12.635   0.402 -0.2058 -0.1434 -0.0790
 6403W        W22664   2.853   4.798  13.295  0.3850 -0.2382  0.1565
 6404W        W22665   6.394  14.541   3.307 -0.1744 -0.3548 -0.3537
 6405W        W22666   5.708  11.962  13.651  0.0664  0.0262  0.0738
 6406W        W22667   3.236  11.564  12.112  0.1205 -0.3289 -0.0391
 6407W        W22668  17.792   9.001  14.963 -0.0724  0.3435 -0.0565
 6408W        W22669  11.310  13.957   2.046  0.1637  0.0125 -0.0835
 6409W        W22670   4.661   6.576  15.931 -0.1443 -0.2893 -0.0711
 6410W        W22671  10.438   0.105  13.269 -0.0607 -0.4159 -0.4043
 6411W        W22672  16.633  14.742   3.375  0.2305  0.1998  0.0178
 6412W        W22673   8.146   9.006   0.755  0.0302 -0.0696 -0.1676
 6413W        W22674   9.381  15.941   4.117 -0.2277  0.2205 -0.0191
 6414W        W22675   9.834   2.060  15.742 -0.2558  0.2053 -0.0546
 6415W        W22676   8.249   4.582   3.856  0.1671 -0.3159 -0.2930
 6416W        W22677   3.015   8.622  14.412  0.2797 -0.2777  0.1104
 6417W        W22678   3.353   3.589  13.259 -0.0456  0.1720 -0.0223
 6418W        W22679   6.958   2.824  16.193  0.1119  0.0191  0.0819
 6419W        W22680  15.571   3.370   5.737  0.1592 -0.1725  0.2260
 6420W        W22681  14.625  18.243  15.184  0.2777 -0.0631 -0.0700
 6421W        W22682  13.588  16.543   1.670 -0.0517  0.0877 -0.1215
 6422W        W22683   4.740  11.683   1.134  0.1537 -0.0221 -0.4888
 6423W        W22684  15.260   2.226   5.833 -0.0723 -0.1168  0.3502
 6424W        W22685   6.709   8.021   1.922  0.2416  0.0066  0.1296
 6425W        W22686   1.251   1.201   4.803  0.2350  0.1111 -0.0201
 6426W        W22687  13.637   2.150   4.174  0.1836  0.3828 -0.2639
 6427W        W22688   6.324   0.527  13.104 -0.1985  0.0415  0.0951
 6428W        W22689   5.888  11.475   0.727  0.0678 -0.0280  0.0695
 6429W        W22690   9.726   9.813  11.530 -0.1688  0.0474 -0.4230
 6430W        W22691   3.523   3.190  14.182 -0.0962  0.0447  0.1856
 6431W        W22692   6.875  13.359   3.862  0.3430  0.0403  0.2523
 6432W        W22693   5.651   5.978   3.734 -0.0865  0.0252 -0.1065
 6433W        W22694  14.498  11.985  13.250  0.2275  0.2231 -0.1752
 6434W        W22695   8.405   9.355  13.218 -0.1876 -0.4100  0.0868
 6435W        W22696   6.884   8.725   4.678 -0.1613  0.0048  0.1689
 6436W        W22697  10.794  12.868   0.718  0.0978 -0.3302 -0.0896
 6437W        W22698  11.982   3.041   0.921  0.0211  0.0301  0.1986
 6438W        W22699   3.173  14.929  12.605 -0.3209  0.1349 -0.3395
 6439W        W22700  14.281  10.914  14.179 -0.1638  0.1036 -0.1922
 6440W        W22701   5.511  11.772  11.955 -0.0888  0.0756  0.0928
 6441W        W22702  16.734  14.085  11.686 -0.1151  0.1247 -0.0138
 6442W        W22703  12.043   8.775  13.248  0.1176  0.0780  0.0909
 6443W        W22704  15.539   7.802   3.949  0.0152  0.1414 -0.0858
 6444W        W22705   8.796   2.205  13.338 -0.0122  0.0490 -0.3343
 6445W        W22706   7.575  16.672   4.545 -0.0727 -0.0147  0.1890
 6446W        W22707  18.359   7.774   2.336  0.1979 -0.1295 -0.0227
 6447W        W22708  15.806   7.350  12.278  0.0891  0.1579  0.2008
 6448W        W22709  11.553  11.506   3.526  0.2096 -0.0105 -0.0501
 6449W        W22710   1.725   8.688   3.151  0.0734  0.1557 -0.0996
 6450W        W22711  17.451   3.498   5.619  0.1186 -0.0792 -0.3491
 6451W        W22712  18.350   8.196   2.660  0.0473 -0.0312  0.4151
 6452W        W22713  11.762   7.806  15.397  0.1937  0.1359 -0.0157
 6453W        W22714  18.063   8.077  16.287  0.2435  0.1602 -0.0435
 6454W        W22715   3.671  10.251   2.299  0.2279 -0.1424  0.1656
 6455W        W22716  14.104  17.168  13.499  0.0710 -0.0535  0.3638
 6456W        W22717   7.561  10.262  13.860 -0.2807 -0.2931  0.2798
 6457W        W22718   5.404   1.408  14.261 -0.2806 -0.1540  0.1891
 6458W        W22719  12.275   1.163   3.324  0.1110  0.1791  0.0517
 6459W        W22720  14.501  15.249  14.234 -0.3665 -0.1523  0.0141
 6460W        W22721  14.744   3.998   0.928 -0.0482 -0.0804 -0.1697
 6461W        W22722  13.901   7.356  12.577  0.0701 -0.1815  0.0416
 6462W        W22723  16.881   4.875  12.610 -0.0110 -0.2168 -0.0794
 6463W        W22724   6.520   1.544   0.105 -0.0193  0.1453 -0.0872
 6464W        W22725  12.061  11.572   3.482 -0.1199  0.0241 -0.1454
 6465W        W22726   0.971  15.103   3.254 -0.1841 -0.0754  0.0882
 6466W        W22727   5.010   9.764   3.953  0.1217  0.1556  0.0007
 6467W        W22728   6.448  11.483   0.167  0.0405 -0.0393  0.1862
 6468W        W22729   7.236  11.121   4.800  0.1903 -0.1332 -0.0319
 6469W        W22730   9.781  17.827  14.561 -0.0606 -0.2621 -0.1444
 6470W        W22731   0.014   3.104  16.020 -0.1008 -0.0370 -0.3339
 6471W        W22732   0.742   8.796  15.076 -0.0942 -0.0605  0.2192
 6472W        W22733   0.613   5.598   3.969 -0.1085  0.1024 -0.3353
 6473W        W22734  11.795   7.307  10.867 -0.3151 -0.1338  0.2355
 6474W        W22735  12.016  10.586   1.725 -0.1722  0.1658 -0.1629
 6475W        W22736   0.488  12.500  16.207 -0.0142 -0.1047  0.1220
 6476W        W22737  15.330  13.476   0.628 -0.1240 -0.3154  0.1033
 6477W        W22738  11.883   9.360  15.138 -0.2350  0.1383  0.0327
 6478W        W22739  11.231   4.572   5.036 -0.1073  0.0941  0.2249
 6479W        W22740   1.399   3.940  12.687 -0.1718  0.2115  0.3393
 6480W        W22741   0.376  15.281   3.711  0.0180  0.1141 -0.1285
 6481W        W22742   2.429  16.274  12.566 -0.1296  0.0795  0.0252
 6482W        W22743   5.832   2.198  12.820  0.0561  0.2340 -0.2780
 6483W        W22744  13.017  17.122  12.953 -0.0429  0.1834 -0.2426
 6484W        W22745  11.940  17.873   3.768  0.0346  0.1628  0.0905
 6485W        W22746  15.554   9.772   2.017  0.1229 -0.0184  0.2419
 6486W        W22747  10.498   2.699  10.412 -0.0154  0.0231  0.0360
 6487W        W22748   7.502  11.372   5.671 -0.1138  0.1814 -0.2479
 6488W        W22749   9.093   3.053  12.091  0.0091 -0.2148  0.2721
 6489W        W22750  15.354   4.800  15.608  0.1760 -0.1827  0.0152
 6490W        W22751  12.732  14.119  14.871  0.1620 -0.3591 -0.1484
 6491W        W22752   7.438   8.091   1.762  0.2431 -0.2797  0.0488
 6492W        W22753  16.898   1.847   2.560 -0.1664  0.1403 -0.1814
 6493W        W22754   5.261  10.204  13.250  0.0306  0.0009 -0.4061
 6494W        W22755   8.180   7.488  12.589  0.0314 -0.1031  0.0205
 6495W        W22756   6.099   8.747   5.703  0.0695  0.0675 -0.0444
 6496W        W22757   7.589  10.459  14.845 -0.1186  0.1963 -0.0409
 6497W        W22758   7.797   8.014  11.565  0.5047  0.0055  0.1065
 6498W        W22759  16.823   0.972   1.553  0.0525  0.2477  0.1563
 6499W        W22760   5.387  12.160  12.550  0.0135 -0.0786 -0.0784
 6500W        W22761   3.527  11.759   3.981 -0.1443  0.2588  0.1439
 6501W        W22762  14.428   5.947  14.349  0.2476 -0.0249 -0.0107
 6502W        W22763  17.138   9.192  13.931  0.0648 -0.0579 -0.1488
 6503W        W22764  13.255  17.796  11.558  0.0878 -0.0344 -0.1959
 6504W        W22765  12.831   2.026  14.673 -0.0728 -0.0672 -0.2736
 6505W        W22766  11.729  11.661   4.476 -0.0219 -0.0017  0.1360
 6506W        W22767   8.550   0.102  14.372  0.1688 -0.0975  0.0508
 6507W        W22768   5.573  17.447   3.478 -0.1485 -0.2096 -0.0067
 6508W        W22769  10.970  13.457  11.629 -0.3388  0.0597  0.4849
 6509W        W22770  14.945  12.309   3.197  0.3563  0.3382  0.4120
 6510W        W22771   1.964  12.577   2.386  0.2026 -0.2365 -0.2785
 6511W        W22772  11.601   9.016  16.210  0.0022 -0.2618  0.1166
 6512W        W22773   5.374  14.639  11.081 -0.0964 -0.0129 -0.3626
 6513W        W22774  16.069   1.631   3.024 -0.1200  0.0772 -0.2535
 6514W        W22775  18.203  12.625   4.852  0.3423  0.3696 -0.1191
 6515W        W22776  10.367  14.826   2.079 -0.1079  0.2941  0.2464
 6516W        W22777   5.834   9.074   2.981 -0.1136 -0.2896  0.0285
 6517W        W22778   4.220   4.843   2.261 -0.0485 -0.4684  0.2022
 6518W        W22779  16.699   8.068  15.116 -0.0218 -0.3190  0.0623
 6519W        W22780  15.796   5.618   5.065  0.1401  0.0092 -0.0312
 6520W        W22781  10.471   5.437  12.143 -0.0849  0.4168 -0.0396
 6521W        W22782  14.661   1.714  11.506  0.0873 -0.1299  0.0993
 6522W        W22783   8.546  10.950  13.268 -0.1886 -0.1085  0.1639
 6523W        W22784   9.981   6.557  11.378  0.0998 -0.0233  0.1062
 6524W        W22785   9.059  10.834   1.614  0.0782  0.0711  0.1126
 6525W        W22786   2.319  16.119  11.958  0.1662 -0.3523  0.1126
 6526W        W22787   2.190   6.406  13.460 -0.2490 -0.0004  0.0268
 6527W        W22788  15.820  11.983  14.402 -0.0799 -0.3014 -0.1971
 6528W        W22789   9.156   9.903  16.000 -0.1619 -0.0251 -0.0824
 6529W        W22790  16.333   7.492  11.586  0.2598  0.1514  0.0667
 6530W        W22791   2.572  15.117   0.806 -0.2482  0.2811 -0.1283
 6531W        W22792   3.150   2.980   4.100  0.1183 -0.1209 -0.3125
 6532W        W22793   9.465  10.255   2.659  0.1587  0.2465 -0.2080
 6533W        W22794   6.875   7.004   4.416 -0.0569 -0.1261  0.0527
 6534W        W22795   0.258   0.641   4.050 -0.0277  0.1305 -0.0316
 6535W        W22796   0.684  16.503  14.914  0.0668 -0.3135 -0.0586
 6536W        W22797  17.175  12.035   2.403 -0.0315  0.0552 -0.3228
 6537W        W22798   1.064  10.049  14.009  0.0538  0.0105  0.0688
 6538W        W22799   0.718   6.827   0.595 -0.3183 -0.2054 -0.0778
 6539W        W22800  12.387   9.310   2.584  0.1054 -0.0697  0.1798
 6540W        W22801   7.130  16.702   4.241  0.1597  0.1100 -0.2430
 6541W        W22802   0.608  10.624   3.892 -0.1007  0.0940  0.1969
 6542W        W22803   4.936   2.093  13.347  0.3397 -0.1200 -0.1740
 6543W        W22804  13.245  16.754   1.411  0.3135 -0.0569  0.0818
 6544W        W22805   9.855   4.782   3.057 -0.0406 -0.0649  0.3957
 6545W        W22806  10.110  13.454  15.480 -0.1980  0.2867 -0.0853
 6546W        W22807  10.472  17.390  13.914  0.3321  0.1489 -0.2169
 6547W        W22808   4.450   9.245   1.632 -0.0726 -0.4964  0.1208
 6548W        W22809  11.197   8.349   1.551 -0.3013 -0.0812 -0.1046
 6549W        W22810   0.639  15.618   1.510  0.1693  0.1361  0.3763
 6550W        W22811   0.213   8.813   5.182 -0.1213 -0.2531  0.5499
 6551W        W22812   5.540   3.978   0.633 -0.1106  0.0099  0.0680
 6552W        W22813   9.413  11.652   1.270  0.2058 -0.0289 -0.1718
 6553W        W22814  15.649  12.698  13.318  0.1553 -0.0327  0.3242
 6554W        W22815   6.209   1.357  13.253 -0.0481 -0.2885  0.0817
 6555W        W22816  17.244  10.539   4.325 -0.1790 -0.0438  0.2517
 6556W        W22817   5.224  15.907  11.405  0.0076 -0.2875  0.3505
 6557W        W22818   0.887   0.576  16.018 -0.2721  0.0322  0.0010
 6558W        W22819   0.549  15.983   4.244 -0.2400  0.2246 -0.2598
 6559W        W22820  15.612   6.460  11.664 -0.3156 -0.0898  0.2068
 6560W        W22821   7.556  15.188  14.929  0.3133 -0.2243  0.3004
 6561W        W22822  12.828   4.851  16.155 -0.2392  0.1499 -0.1674
 6562W        W22823  17.947  13.037   2.177  0.1541  0.1576  0.0106
 6563W        W22824   5.205  11.196   3.789 -0.2037 -0.0430  0.3592
 6564W        W22825  12.774   7.709  13.763  0.0031 -0.2831  0.1551
 6565W        W22826   2.094   5.357  13.021  0.2691 -0.1403 -0.4375
 6566W        W22827   3.137  13.320   0.831 -0.0328 -0.0188 -0.1143
 6567W        W22828   1.013   6.691   1.146 -0.0394  0.0682  0.0583
 6568W        W22829  18.150   4.132  15.121  0.1845 -0.0783  0.0150
 6569W        W22830  13.696  11.733   1.055  0.0619  0.2439  0.0530
 6570W        W22831   3.306  16.226  11.890 -0.2083  0.3724 -0.0747
 6571W        W22832   1.161  14.336  13.474  0.0674  0.0693  0.5981
 6572W        W22833   1.779   9.050   5.971  0.0548 -0.1464 -0.1149
 6573W        W22834   8.546   5.362  11.699 -0.0766 -0.1967 -0.0437
 6574W        W22835  18.350   6.073   5.226 -0.4300  0.1657  0.0187
 6575W        W22836   8.586   1.197  12.075  0.1541  0.1981 -0.0690
 6576W        W22837   6.669  12.808   4.225  0.1098  0.3049  0.1102
 6577W        W22838  10.965   2.265   1.552  0.4406 -0.3339 -0.2102
 6578W        W22839   0.890  17.026   1.247  0.1101  0.1127  0.0385
 6579W        W22840   8.952   4.354  16.113  0.3244 -0.2466  0.2585
 6580W        W22841  17.161   4.754   1.165 -0.0861  0.1753  0.0908
 6581W        W22842   5.076  13.939  16.076  0.1964  0.0310  0.5815
 6582W        W22843   8.221   8.256   0.311  0.0561  0.0412  0.2206
 6583W        W22844   0.773  12.382   1.033 -0.0947  0.4849  0.4064
 6584W        W22845  15.570   1.747  12.081  0.0425  0.0407  0.1638
 6585W        W22846  17.311  14.730   4.430 -0.0054  0.0740 -0.1888
 6586W        W22847  13.776   3.614   4.123  0.2502  0.0095  0.0313
 6587W        W22848  15.239  15.357   3.260  0.1033  0.1969 -0.0506
 6588W        W22849  15.530   8.729   3.158 -0.2482  0.0527 -0.1349
 6589W        W22850  16.119  14.883  12.859  0.0794  0.1108 -0.0875
 6590W        W22851   1.325  16.324   2.639  0.3486  0.4680 -0.1192
 6591W        W22852  13.726   6.433   5.321 -0.0505  0.3411 -0.3436
 6592W        W22853   0.803   8.458   1.007 -0.0532  0.0585 -0.0347
 6593W        W22854   5.328  14.384   0.441 -0.0152  0.0164 -0.0347
 6594W        W22855  14.065  12.901   0.397 -0.1292  0.0339 -0.2178
 6595W        W22856  15.509  13.310  13.452 -0.2807 -0.2440 -0.1817
 6596W        W22857   5.227  16.655   5.375 -0.1188  0.1891  0.0898
 6597W        W22858  13.249  15.497   0.720  0.1804  0.0054 -0.1460
 6598W        W22859   1.682  14.975   0.737 -0.2012  0.0365 -0.0154
 6599W        W22860  14.045   6.238   3.647  0.0074  0.0827  0.0649
 6600W        W22861  12.543   9.101   3.054  0.1668 -0.5049  0.1119
 6601W        W22862   8.052   9.793   5.199 -0.1170  0.0193 -0.0726
 6602W        W22863   5.490   5.627  15.888  0.2102 -0.2906  0.0800
 6603W        W22864   0.529   4.636  15.635  0.1213 -0.0188  0.1095
 6604W        W22865   5.946  10.386   2.019  0.1994  0.0147 -0.2809
 6605W        W22866   5.196   8.967  15.980  0.0234 -0.3532 -0.0631
 6606W        W22867   4.281   4.653  13.434  0.0336  0.1820  0.0560
 6607W        W22868   6.853  17.360  15.916 -0.0897  0.0486 -0.0249
 6608W        W22869   5.438   3.014   3.584  0.0432  0.0233  0.0972
 6609W        W22870  16.644   1.863   0.517  0.2142 -0.2345 -0.1563
 6610W        W22871  15.113   3.561   4.905  0.2173 -0.0149 -0.0132
 6611W        W22872   6.606   9.803  15.876  0.0166  0.1667 -0.0438
 6612W        W22873  11.126   5.587  11.519 -0.0742  0.0384 -0.2781
 6613W        W22874   8.832   7.229  15.618  0.1773 -0.0294  0.2146
 6614W        W22875   0.081  12.183   0.718  0.2489  0.1332  0.0709
 6615W        W22876   6.997   5.813   1.035 -0.2429  0.1757  0.2645
 6616W        W22877  13.075   0.073   5.146  0.1084  0.2644 -0.3569
 6617W        W22878   4.330  14.736   1.472 -0.0773  0.0879  0.1974
 6618W        W22879  13.507   6.959   3.912  0.4166 -0.0467  0.0394
 6619W        W22880  17.714   0.891  15.878  0.1672  0.1349 -0.0364
 6620W        W22881   7.444  15.258   2.428 -0.1656 -0.0204  0.0024
 6621W        W22882   4.569  13.139  14.611  0.0201 -0.3111  0.0738
 6622W        W22883   6.084  10.526   4.289  0.1120 -0.3655  0.3997
 6623W        W22884   2.456   7.720  12.473 -0.0626  0.1077  0.3305
 6624W        W22885   4.001   3.836  15.283 -0.3302  0.4381  0.2302
 6625W        W22886  12.335   3.868   2.525 -0.2436 -0.0555  0.0393
 6626W        W22887   7.589  14.031   2.580  0.1812  0.1512  0.0898
 6627W        W22888  14.856   5.678  15.608 -0.0968 -0.2430  0.3452
 6628W        W22889   9.512  12.418   5.593 -0.0458 -0.0901  0.0832
 6629W        W22890  12.039   8.780   1.466  0.1466  0.0101 -0.0289
 6630W        W22891  12.124  10.577   4.441 -0.0109  0.1045 -0.4656
 6631W        W22892  13.001  11.668  14.654 -0.2492  0.0179 -0.1591
 6632W        W22893  10.648   9.252   1.368 -0.0224 -0.1845  0.1302
 6633W        W22894  15.481   8.499   1.173 -0.1647  0.5183  0.4225
 6634W        W22895  11.363  18.363  15.877  0.1601  0.1932  0.1528
 6635W        W22896  11.269   4.027   0.973 -0.2621 -0.4556 -0.3060
 6636W        W22897  10.781   4.507   3.185 -0.0713  0.0334  0.2174
 6637W        W22898  15.370  13.001   0.773 -0.0843 -0.0467 -0.2679
 6638W        W22899   0.728   1.168  15.124 -0.0050  0.1766 -0.0160
 6639W        W22900  17.306   8.816  14.346 -0.0086  0.0600  0.0486
 6640W        W22901   0.542  14.074   2.476 -0.0168  0.2308  0.3713
 6641W        W22902  16.576  14.527  14.360  0.2330  0.2835  0.1073
 6642W        W22903   5.507   7.388   3.349  0.0120 -0.0004  0.0720
 6643W        W22904  14.267   3.069  15.906  0.3500 -0.0556 -0.0920
 6644W        W22905   4.223  16.602  14.310 -0.1395  0.3645  0.0723
 6645W        W22906   6.305  17.241  12.899 -0.2764  0.0073 -0.1358
 6646W        W22907   1.074   2.271   1.942  0.1163  0.1319 -0.0116
 6647W        W22908  11.875   6.623  14.790 -0.2441  0.3090  0.1214
 6648W        W22909   2.616  14.599   4.024  0.1155  0.0366 -0.0376
 6649W        W22910  14.319   8.589  13.127 -0.3080  0.0580  0.2160
 6650W        W22911  16.202   9.237   3.436 -0.0132 -0.0887 -0.3884
 6651W        W22912  10.863  10.405  11.226 -0.1773  0.1745  0.1209
 6652W        W22913   4.100   5.778   2.588 -0.4451  0.0532 -0.0995
 6653W        W22914   7.263  11.446  14.547  0.0196 -0.2488 -0.1254
 6654W        W22915  16.182   4.354   2.100  0.0688 -0.1782 -0.0194
 6655W        W22916  15.276  10.784   4.940  0.1711 -0.0758  0.2205
 6656W        W22917  15.837   1.169   3.029 -0.0175  0.1754  0.0698
 6657W        W22918  15.060  13.211   5.329  0.0557 -0.1390 -0.1675
 6658W        W22919   4.019   7.297   3.301 -0.1342 -0.0254 -0.1988
 6659W        W22920  10.333  11.096  11.664  0.2572  0.0575  0.1207
 6660W        W22921   7.662  14.893  14.037 -0.0105  0.1379 -0.4056
 6661W        W22922   3.732   0.046  12.219  0.0646 -0.0237  0.1747
 6662W        W22923  18.096   3.069  15.134 -0.0571 -0.1943 -0.0763
 6663W        W22924   4.929   0.830  14.992  0.0179  0.0294  0.3457
 6664W        W22925  11.389  16.549   2.231 -0.0293 -0.3348  0.2540
 6665W        W22926  16.911   0.870   6.375  0.0017 -0.0865  0.1680
 6666W        W22927   9.455   5.482   5.567  0.0796 -0.0976 -0.0608
 6667W        W22928   9.843   0.049  13.024  0.0433 -0.0400 -0.0449
 6668W        W22929   5.095   2.466  11.775 -0.2708  0.0414  0.4326
 6669W        W22930   8.755  13.888  15.020  0.2186  0.1815 -0.2904
 6670W        W22931   3.826   9.752   2.745 -0.0620  0.1892  0.1129
 6671W        W22932   9.616   6.062  12.469  0.0106  0.1484 -0.5843
 6672W        W22933  10.660   9.876   3.991  0.1486 -0.2808  0.0587
 6673W        W22934   7.455   1.774   4.249 -0.0819  0.0032  0.0987
 6674W        W22935  11.210   4.264   1.921  0.0192 -0.1252 -0.1339
 6675W        W22936   2.835   5.236   3.230 -0.0896 -0.2712 -0.0567
 6676W        W22937  14.659   8.150   3.800  0.1702  0.0685 -0.0512
 6677W        W22938  18.232   4.119  11.551 -0.6226  0.0022 -0.1990
 6678W        W22939   2.304   3.049  14.560  0.1517  0.1096  0.1740
 6679W        W22940   4.395  15.817   5.145  0.1538  0.0128  0.0886
 6680W        W22941  16.877   9.484   0.684  0.1561  0.2236 -0.2145
 6681W        W22942   2.422   5.618  12.320 -0.2719  0.0652 -0.2660
 6682W        W22943  15.023  10.985   1.209 -0.3245  0.0794  0.1114
 6683W        W22944   1.579  16.755   1.156 -0.1770  0.1384 -0.1482
 6684W        W22945   9.942   1.596  15.523  0.0880 -0.0506  0.1557
 6685W        W22946  14.496  13.077  13.815  0.1149  0.1263  0.0127
 6686W        W22947  11.987   7.529   2.278  0.0591  0.0513 -0.0793
 6687W        W22948  13.282   0.937  12.054 -0.1641 -0.1357 -0.1996
 6688W        W22949  13.356  12.116  14.994  0.2456 -0.0728 -0.2377
 6689W        W22950   9.624   5.196   2.771  0.2998 -0.3469  0.0977
 6690W        W22951   0.549  13.674  14.730  0.2553 -0.0409  0.1753
 6691W        W22952  12.300   2.855   3.742 -0.1459 -0.1776 -0.2664
 6692W        W22953   7.626  16.239  12.592 -0.1435  0.1235 -0.2209
 6693W        W22954   7.537  15.139   4.478 -0.1067  0.2981  0.2656
 6694W        W22955   3.941  16.188   4.938 -0.5350  0.1152  0.2761
 6695W        W22956   3.418  15.220   1.467 -0.0437 -0.2287 -0.3685
 6696W        W22957  10.963  16.460  12.211 -0.1241 -0.2311  0.3638
 6697W        W22958  10.821   5.250   4.690  0.2034  0.0615  0.0985
 6698W        W22959   0.117   1.814  12.856 -0.2305 -0.0731 -0.1245
 6699W        W22960  16.213  17.386   2.312 -0.2296 -0.1639  0.0338
 6700W        W22961   3.757   2.235   1.070  0.0440  0.0922  0.0778
 6701W        W22962  17.070   5.907   5.735 -0.0891 -0.0942 -0.0010
 6702W        W22963  13.122   5.043   0.333  0.1443 -0.1956  0.4334
 6703W        W22964   7.462   5.976   2.414 -0.2784  0.1958 -0.1966
 6704W        W22965  18.154   9.495   3.234 -0.1263  0.1648 -0.2783
 6705W        W22966   7.169  14.325  15.427 -0.0218 -0.0758  0.1350
 6706W        W22967   1.253   4.200  12.249  0.0047 -0.3202 -0.3253
 6707W        W22968   3.353  12.243   5.398 -0.0047 -0.3099 -0.0830
 6708W        W22969   6.924   4.295   0.565 -0.1406  0.3554 -0.4099
 6709W        W22970  16.159  11.136   4.917  0.0901  0.0278 -0.0072
 6710W        W22971   6.067   5.039  13.685  0.0112 -0.3511 -0.1991
 6711W        W22972   1.388   1.280   3.141  0.1269 -0.0820 -0.0441
 6712W        W22973  16.676  13.254  15.505 -0.2155  0.3710 -0.4896
 6713W        W22974   3.215   0.999  15.404  0.0013  0.2062 -0.3073
 6714W        W22975   5.225   7.745   1.694 -0.2548 -0.0723 -0.1426
 6715W        W22976  18.098   6.708  14.383 -0.0119  0.2892  0.0289
 6716W        W22977   8.025  15.423   3.155 -0.2739 -0.1807  0.2345
 6717W        W22978  14.743  17.785   3.163  0.0757  0.0021 -0.5221
 6718W        W22979   6.531  15.951  14.026 -0.2489 -0.0309 -0.3046
 6719W        W22980   2.844   8.791  11.291  0.3808  0.2006 -0.2798
 6720W        W22981   9.753   8.625   9.880  0.5461 -0.0631 -0.1502
 6721W        W22982  11.151  12.261  11.923  0.3086 -0.0106 -0.1985
 6722W        W22983   9.250  11.534  15.717 -0.0229 -0.4997 -0.1616
 6723W        W22984   6.247   3.760   1.200 -0.0926  0.1635  0.3279
 6724W        W22985  17.918  16.602  14.723 -0.0423 -0.1400  0.2040
 6725W        W22986  17.728  17.926   2.407  0.2902 -0.0029  0.0242
 6726W        W22987   1.225  17.603   2.812  0.0734 -0.1036  0.2040
 6727W        W22988   8.802  12.514  14.752 -0.0132  0.1007  0.2856
 6728W        W22989   3.877  11.520  14.396  0.1014  0.1750 -0.2323
 6729W        W22990   8.685   4.596   3.613  0.0115  0.2656 -0.0442
 6730W        W22991  14.936  11.879  11.840  0.1916 -0.2606  0.1605
 6731W        W22992  13.272   4.262   2.384 -0.0311 -0.0158  0.1676
 6732W        W22993  14.840  10.878   4.776 -0.0246 -0.2383 -0.1999
 6733W        W22994   7.238   9.319   5.387 -0.2243  0.2288 -0.0407
 6734W        W22995   9.114   2.475  14.414  0.1427 -0.1495  0.1000
 6735W        W22996   0.173   2.121  16.199 -0.1851 -0.2671  0.1239
 6736W        W22997   8.952   8.177  14.573  0.0156  0.1185  0.2495
 6737W        W22998  15.578   2.593   3.716 -0.1653  0.4488 -0.0568
 6738W        W22999  15.000  16.417   0.532  0.1937 -0.0338  0.0692
 6739W        W23000  15.996   9.652   0.394 -0.2268  0.2339  0.1558
 6740W        W23001   4.474   7.940   1.184  0.1248 -0.1907 -0.0635
 6741W        W23002  17.615  12.222   5.250  0.0702  0.2467 -0.1713
 6742W        W23003   0.580  15.878  13.216 -0.0034 -0.1867 -0.1171
 6743W        W23004  11.991  11.763  15.791 -0.3415 -0.2065  0.1486
 6744W        W23005   5.336   3.005  12.499  0.1458  0.2936  0.2247
 6745W        W23006   2.282  14.764   1.958 -0.0834  0.2460 -0.0697
 6746W        W23007  14.296   3.616  15.756  0.0609  0.3397  0.5117
 6747W        W23008  11.004  14.244  14.772  0.2431 -0.3337  0.0937
 6748W        W23009   6.783  14.820  12.365  0.0647  0.2016  0.0536
 6749W        W23010   1.814   1.614  12.140 -0.0219  0.1455 -0.0098
 6750W        W23011   2.207  10.077   3.736 -0.0945 -0.2066 -0.1207
 6751W        W23012  14.568   2.568   4.805 -0.1071 -0.2596 -0.2130
 6752W        W23013  11.521   3.847  13.248  0.2834 -0.1266  0.0529
 6753W        W23014   3.583   7.578   1.316  0.1885 -0.2243  0.0037
 6754W        W23015   0.504   6.778   2.069  0.0529 -0.1561 -0.0487
 6755W        W23016   8.625  11.509   4.108 -0.0763  0.0510  0.2449
 6756W        W23017  16.881   1.964  14.969 -0.0077 -0.2453  0.2592
 6757W        W23018   6.965  13.417  15.858  0.0264 -0.2179  0.0490
 6758W        W23019   7.283   4.994  11.952 -0.0856  0.0293 -0.0342
 6759W        W23020  15.791  13.445   0.454 -0.0904  0.0461  0.0511
 6760W        W23021   7.008  16.729   5.983  0.1954 -0.0547 -0.2503
 6761W        W23022  13.104   0.064   2.014  0.0110  0.1337 -0.0424
 6762W        W23023   0.963  16.693  13.008  0.0388  0.0393 -0.0553
 6763W        W23024  10.673   5.274   2.607  0.2009  0.2333  0.0531
 6764W        W23025  12.391  14.692  12.679  0.1449  0.0134  0.2232
 6765W        W23026  12.890  14.830   4.310  0.0793  0.0406  0.2038
 6766W        W23027   0.526   4.824   0.039 -0.3721 -0.0316  0.0968
 6767W        W23028  14.921  11.093   2.323  0.1077  0.0383 -0.0321
 6768W        W23029  18.206  11.055  12.839 -0.0005 -0.0692 -0.0263
 6769W        W23030  10.870   6.187   2.343 -0.0418  0.3212 -0.2500
 6770W        W23031   6.831   3.610  11.178  0.3525 -0.1679  0.2144
 6771W        W23032  17.326  17.356   4.231  0.0818  0.0323  0.2203
 6772W        W23033   4.933   6.118   1.991 -0.0860  0.2732 -0.0971
 6773W        W23034   6.281   2.954   4.552  0.0140 -0.1019  0.2798
 6774W        W23035  12.492   1.274   2.153  0.2279  0.0007  0.2484
 6775W        W23036  18.354  13.377   0.360  0.0188  0.1167 -0.2825
 6776W        W23037  15.551   4.526   1.327  0.1855  0.0694  0.0749
 6777W        W23038  15.289   9.409   1.700  0.0508  0.1425 -0.1716
 6778W        W23039   1.370   7.886   2.861  0.4171  0.0609 -0.1370
 6779W        W23040  13.754   6.783   0.308  0.4226  0.1587 -0.2255
 6780W        W23041   8.967   5.676  14.751 -0.0279 -0.0005 -0.1049
 6781W        W23042   1.244   3.330   2.518 -0.1024 -0.1002  0.3142
 6782W        W23043  17.821   2.517   4.710  0.0527  0.0670  0.1365
 6783W        W23044   3.917  16.982   3.203  0.1632  0.1932 -0.0621
 6784W        W23045  10.056   8.238   2.398 -0.0003  0.1109 -0.1533
 6785W        W23046  17.604   1.900   1.783 -0.1528 -0.0779  0.1288
 6786W        W23047  18.329   0.171  13.343  0.2388 -0.2056 -0.1234
 6787W        W23048   4.295   8.889  14.925  0.2561  0.2660 -0.0575
 6788W        W23049   0.577   0.088   1.277  0.1359  0.0126  0.0396
 6789W        W23050   6.068  14.682   3.655  0.0405 -0.0333 -0.0164
 6790W        W23051  16.697   8.167   1.893  0.1185 -0.0905  0.0388
 6791W        W23052  17.455   2.386   1.739  0.0114 -0.0229 -0.2016
 6792W        W23053  11.411  16.604   1.639 -0.0254  0.0689  0.2000
 6793W        W23054   4.350  16.084   4.720  0.0967  0.0951  0.0064
 6794W        W23055  13.131  15.385  15.812  0.0304 -0.1430 -0.0173
 6795W        W23056  10.702   6.082   1.506 -0.0481 -0.1082  0.4101
 6796W        W23057   1.773   2.964   4.769  0.0820 -0.0973  0.2049
 6797W        W23058  17.230  12.659   3.166  0.1606 -0.0354 -0.1325
 6798W        W23059   0.819   8.709  12.407  0.2419 -0.1025  0.1287
 6799W        W23060   9.927  11.550   4.576  0.2520 -0.1842 -0.1442
 6800W        W23061  18.173  17.019   2.922 -0.2059  0.0487  0.1304
 6801W        W23062   1.931  10.496   2.638 -0.0463  0.1096  0.1350
 6802W        W23063   7.518  17.535   0.411 -0.3910 -0.0301 -0.1748
 6803W        W23064   6.114  11.807   3.490  0.3067 -0.1493 -0.0864
 6804W        W23065   7.451   4.989  11.030  0.1704 -0.2056 -0.0666
 6805W        W23066  16.882  14.359  12.465  0.0605  0.2846 -0.0384
 6806W        W23067  17.277  10.455  12.323  0.1540  0.1942 -0.2458
 6807W        W23068  12.443  10.852  11.849 -0.1411  0.0763 -0.0149
 6808W        W23069   3.065  12.534   2.213 -0.0884  0.2006  0.0383
 6809W        W23070  11.679   4.164  14.482 -0.0722  0.1861 -0.0273
 6810W        W23071  12.041  17.928   0.438 -0.0491 -0.1280 -0.4389
 6811W        W23072   5.691   8.053  11.734 -0.0561 -0.1224 -0.0408
 6812W        W23073   8.163   1.701   4.134 -0.2170 -0.0881 -0.1198
 6813W        W23074   2.897  12.470  10.920  0.2491  0.1053  0.0918
 6814W        W23075  11.060   7.478  14.908  0.1578 -0.1917  0.0554
 6815W        W23076   0.736   2.635   4.652 -0.4438 -0.0449 -0.0777
 6816W        W23077  15.716   4.893   0.159  0.1847  0.2780  0.2473
 6817W        W23078   2.164  12.548   5.105  0.1397  0.1188 -0.1111
 6818W        W23079   4.840  11.411   3.544 -0.1295 -0.1428 -0.1762
 6819W        W23080  18.000  15.375   3.961 -0.1443 -0.1717 -0.2547
 6820W        W23081  15.953  11.831  12.894 -0.3990  0.2232  0.0893
 6821W        W23082   5.774  17.712  15.423 -0.1111 -0.0045  0.4412
 6822W        W23083  13.413   5.000   3.101 -0.1802  0.0907  0.0197
 6823W        W23084  12.164  11.384  12.768 -0.2737  0.0605 -0.2927
 6824W        W23085  17.833   6.852  12.881  0.0449  0.1949  0.1445
 6825W        W23086   6.729   0.017  11.104  0.0785 -0.1235  0.2560
 6826W        W23087   0.696  12.257  15.460 -0.2213 -0.2466 -0.1096
 6827W        W23088   1.577  12.130   1.610 -0.2065  0.0736 -0.1278
 6828W        W23089   8.024   8.763   1.501 -0.1835  0.3928 -0.1034
 6829W        W23090  10.920  14.307  13.784 -0.2500  0.3131 -0.0896
 6830W        W23091  17.037   8.912  12.419 -0.0805  0.2238 -0.1347
 6831W        W23092  16.418   1.944  15.228 -0.2893 -0.0058 -0.2772
 6832W        W23093  11.925  15.753   1.914 -0.3928 -0.4933  0.0553
 6833W        W23094   1.098  11.361   6.132  0.2102  0.0463  0.4449
 6834W        W23095  16.937  17.788  14.582 -0.1194  0.1381 -0.0750
 6835W        W23096   2.564  11.681  12.819 -0.1142 -0.3893 -0.1735
 6836W        W23097   3.517   9.482  15.184  0.1197 -0.0391  0.0266
 6837W        W23098  16.073  15.741  16.123  0.0305 -0.1138  0.5769
 6838W        W23099   1.326  16.104   4.382  0.1222 -0.0510 -0.1447
 6839W        W23100   3.566   0.961  15.802 -0.1776  0.1985 -0.2124
 6840W        W23101   6.127   1.451   0.422  0.0572 -0.2809  0.2617
 6841W        W23102  14.603   2.569   1.250 -0.3546 -0.0688 -0.0562
 6842W        W23103  12.588  14.282  14.357 -0.0844  0.1701 -0.0206
 6843W        W23104  17.020  17.177  16.148  0.1110 -0.3112 -0.1355
 6844W        W23105  17.017  11.707   1.358 -0.0682 -0.2184  0.0393
 6845W        W23106   1.754  16.350  13.712  0.1696  0.1631 -0.1726
 6846W        W23107  13.388  12.405  12.241  0.0288  0.1235  0.0765
 6847W        W23108  18.330   8.242   1.040 -0.0564 -0.0246 -0.0809
 6848W        W23109   4.365   7.251   4.640 -0.2074 -0.1409 -0.2495
 6849W        W23110   7.333  15.263  13.783 -0.1338 -0.2657 -0.1009
 6850W        W23111  16.813   0.753  14.740  0.1881 -0.1945 -0.0485
 6851W        W23112  15.697  11.742   3.227 -0.1714 -0.1915 -0.2071
 6852W        W23113  12.608  15.730   5.621 -0.0969 -0.2602  0.0540
 6853W        W23114  15.848   7.819  14.033 -0.3286  0.0996  0.0152
 6854W        W23115  12.645  15.289   4.319 -0.1329  0.1624 -0.3014
 6855W        W23116  13.442   4.356   0.584 -0.0234  0.2254 -0.4656
 6856W        W23117   2.814   9.447   0.278  0.0157  0.4016 -0.0049
 6857W        W23118  16.457  11.412   2.045 -0.1708  0.2588  0.0763
 6858W        W23119  10.702  13.853  13.864 -0.1986  0.3446 -0.2025
 6859W        W23120  12.412   2.749  11.948 -0.0539 -0.1821 -0.0533
 6860W        W23121  18.354  17.805  13.962 -0.3501 -0.1828  0.0436
 6861W        W23122   3.010   3.131   0.043 -0.1852 -0.1553 -0.1172
 6862W        W23123   0.999   6.725  14.584 -0.2694  0.1712 -0.0221
 6863W        W23124   5.572   1.106  16.241 -0.1592 -0.2089 -0.2081
 6864W        W23125  15.471   5.952   3.045 -0.0747 -0.0451 -0.1683
 6865W        W23126   7.860  11.785   4.663  0.1437 -0.1004 -0.0215
 6866W        W23127  15.741   8.963   1.104 -0.2125  0.0202 -0.0183
 6867W        W23128  16.447  10.305   5.601 -0.2799 -0.0438 -0.2349
 6868W        W23129  15.433   7.197   5.215 -0.0773  0.0251  0.0163
 6869W        W23130   8.021   3.098   5.395  0.0497  0.0468 -0.3601
 6870W        W23131  11.568  17.694   4.720  0.3063  0.0399 -0.2032
 6871W        W23132   0.789  13.553   0.684 -0.0666 -0.0899 -0.1060
 6872W        W23133   4.015  10.960   4.903  0.1115  0.0048 -0.0644
 6873W        W23134   8.960  17.970   1.180  0.0486 -0.1428  0.0172
 6874W        W23135   7.974   0.310   2.861  0.0600 -0.1553  0.0828
 6875W        W23136  11.597  10.408  15.285 -0.0130  0.1930 -0.3589
 6876W        W23137  12.367  17.110   4.328  0.2338  0.1120 -0.2589
 6877W        W23138   1.773   8.919   3.550 -0.0563 -0.2030  0.3836
 6878W        W23139   3.553   8.337   4.993 -0.1170  0.0619 -0.2575
 6879W        W23140   7.647   2.787   5.470  0.1418 -0.2720 -0.0345
 6880W        W23141   8.039   9.445  11.863  0.2587  0.2162 -0.0366
 6881W        W23142  15.993   4.219   1.455 -0.2630 -0.0263  0.2317
 6882W        W23143  12.295   4.329  15.819 -0.0792  0.2859  0.2785
 6883W        W23144   1.409  14.008  14.745  0.0466 -0.1390 -0.5063
 6884W        W23145   2.310  18.200   4.062  0.1614 -0.0164  0.2719
 6885W        W23146  16.824   8.190  15.812  0.2462 -0.1193 -0.3611
 6886W        W23147  10.627   3.643   3.913  0.1333  0.2401  0.2067
 6887W        W23148   7.412  15.179   0.290 -0.2258 -0.0264  0.0174
 6888W        W23149   8.535  13.097  14.595  0.1021 -0.2447  0.1125
 6889W        W23150  15.106  10.824  10.824  0.2652  0.2360  0.1791
 6890W        W23151   7.612   5.078   5.080 -0.2320 -0.1557 -0.0992
 6891W        W23152   3.086   2.180  16.040 -0.0792  0.0169  0.0489
 6892W        W23153  13.599   7.997  16.079 -0.1492  0.1171 -0.0063
 6893W        W23154   4.341   6.100   1.331 -0.3988 -0.0391 -0.0584
 6894W        W23155   6.851   7.330  12.184  0.3518  0.2410  0.0479
 6895W        W23156  12.850   8.612   2.093  0.2629  0.1405 -0.0569
 6896W        W23157   0.377  11.944  12.943 -0.0115 -0.0830  0.0305
 6897W        W23158  11.747  10.646  13.341 -0.0301 -0.0047 -0.0216
 6898W        W23159  15.778  12.963   5.074  0.2235  0.2033  0.1537
 6899W        W23160   8.168   3.758   0.998  0.1073 -0.0153  0.1492
 6900W        W23161  12.240   4.054   6.106 -0.0281  0.3445 -0.0295
 6901W        W23162   6.315  16.805   0.335  0.1707  0.0060  0.0086
 6902W        W23163   7.136  18.168  15.488 -0.0335 -0.0784  0.0855
 6903W        W23164   5.293   7.854   3.106 -0.0288 -0.0409  0.0836
 6904W        W23165  17.740   8.932  11.405  0.1399  0.0152  0.1101
 6905W        W23166   1.105   1.906  13.815 -0.0109 -0.1529 -0.0419
 6906W        W23167   3.734   6.101  14.165  0.3125 -0.1631  0.1441
 6907W        W23168   7.231  15.132   4.933 -0.2379  0.0753  0.1374
 6908W        W23169   1.804  14.579   0.319 -0.0009  0.0480 -0.0209
 6909W        W23170   2.260   8.393  13.404  0.0384 -0.1538  0.0957
 6910W        W23171  11.469   8.717  11.310 -0.1080  0.0133 -0.1216
 6911W        W23172  15.259  11.573  11.541 -0.3030  0.1093  0.2095
 6912W        W23173  16.071   9.777  15.408  0.2857  0.0739  0.1203
 6913W        W23174   1.010  15.745  11.601 -0.1235 -0.1605  0.0016
 6914W        W23175   9.456   3.653  12.866 -0.1796 -0.0611 -0.0018
 6915W        W23176  17.345   2.400   0.798 -0.2814  0.2982 -0.1710
 6916W        W23177  10.167  17.791   1.601 -0.0264  0.2247 -0.0094
 6917W        W23178  14.094   6.737  16.053 -0.0652 -0.2608  0.0539
 6918W        W23179  14.518  13.354   1.978 -0.1881 -0.0734 -0.0096
 6919W        W23180  14.917  15.397   1.945 -0.1541  0.0703 -0.1424
 6920W        W23181   4.047   5.081  14.811 -0.0357 -0.3255  0.0590
 6921W        W23182  16.908  10.742  11.704  0.2886  0.1691 -0.0385
 6922W        W23183  18.157  10.427   0.197 -0.3032 -0.3390 -0.0588
 6923W        W23184  10.509   3.619  14.600 -0.1152  0.0972 -0.0606
 6924W        W23185  10.721  15.544  12.589  0.0205  0.2668  0.0297
 6925W        W23186  17.008   3.761  13.260  0.1052  0.2975  0.4024
 6926W        W23187  11.988   7.510   5.237 -0.4882  0.0476 -0.1924
 6927W        W23188   5.596  15.678  13.555 -0.0131 -0.1523 -0.1415
 6928W        W23189   6.312   3.024  16.230 -0.1900 -0.1527  0.4305
 6929W        W23190  15.564  14.425   1.375 -0.0964  0.0743  0.3641
 6930W        W23191   6.433   3.964  12.567 -0.2703 -0.1468 -0.0319
 6931W        W23192   5.954   0.155   5.348 -0.3279 -0.1173  0.0315
 6932W        W23193   2.482   9.570   1.686 -0.2594 -0.1479 -0.0756
 6933W        W23194   5.106  10.755   2.154 -0.1015  0.0147 -0.0984
 6934W        W23195  10.547  13.360  12.099  0.1131  0.0063  0.2728
 6935W        W23196   6.211  16.120   2.400 -0.1254 -0.0410  0.1076
 6936W        W23197   1.740  14.198   2.782  0.1472 -0.0602  0.0093
 6937W        W23198   8.505  13.134  12.521 -0.0167  0.1821 -0.0934
 6938W        W23199   9.185  11.616  12.370  0.0968  0.1944  0.0705
 6939W        W23200  14.547   9.878   2.660 -0.1948  0.1443  0.0783
 6940W        W23201   3.830  17.616   0.206 -0.2123 -0.2676 -0.1620
 6941W        W23202  17.977   1.254   4.472  0.1650 -0.2103  0.1838
 6942W        W23203  12.896  11.667   3.170  0.0001  0.1980  0.0628
 6943W        W23204  15.559  10.501  16.132 -0.0933  0.2521  0.0841
 6944W        W23205   9.931  16.469  11.326 -0.2887  0.2974  0.0358
 6945W        W23206  13.170   9.586  11.720  0.0448 -0.0524 -0.2111
 6946W        W23207  14.958   8.531   1.152  0.1182 -0.0133  0.4090
 6947W        W23208   1.872   3.403   4.933  0.3598 -0.3679 -0.1698
 6948W        W23209   4.114   2.905   1.434  0.1539  0.4461 -0.1115
 6949W        W23210   7.356   8.760   0.929 -0.2330 -0.1950 -0.0364
 6950W        W23211   7.025   9.702  15.418 -0.1736  0.0396 -0.2780
 6951W        W23212   9.661   8.083  14.560  0.0815 -0.4519 -0.1169
 6952W        W23213   6.105  10.770  12.274  0.0837  0.3749 -0.1209
 6953W        W23214  14.618   4.262   2.439  0.0401 -0.0939  0.0625
 6954W        W23215  10.506   2.434   5.796 -0.1976  0.3175 -0.1456
 6955W        W23216   0.087  12.508   5.397 -0.1714 -0.0167  0.0558
 6956W        W23217   0.332   2.645  12.297  0.0659  0.1991  0.1454
 6957W        W23218  10.215   3.337  13.354  0.0010 -0.2150 -0.0865
 6958W        W23219  16.713   5.642   4.344 -0.1269 -0.2781  0.5126
 6959W        W23220  16.493  13.937  15.106 -0.0282 -0.0727  0.1047
 6960W        W23221   3.730   7.972  13.111  0.2977 -0.2215 -0.2217
 6961W        W23222  10.144  10.164   1.068 -0.0445  0.0283 -0.0855
 6962W        W23223  12.822   0.181  12.083 -0.1909  0.3723  0.4018
 6963W        W23224   8.887   8.985  11.855  0.0414  0.1994 -0.5726
 6964W        W23225  15.958  10.597  12.084 -0.2234 -0.0258  0.1651
 6965W        W23226   6.014   5.916   1.314  0.3273 -0.3245 -0.1142
 6966W        W23227   3.348  13.879  13.733  0.0141  0.1805 -0.1267
 6967W        W23228   7.268   1.276  14.877  0.0664  0.1412  0.3580
 6968W        W23229   5.754   9.392  13.610  0.0295 -0.2234  0.0124
 6969W        W23230   2.027   3.379  14.255 -0.1238 -0.4462 -0.1115
 6970W        W23231  15.566   0.467  13.283  0.0879 -0.0347 -0.0806
 6971W        W23232   7.448   7.746   5.123  0.2359  0.0866  0.1891
 6972W        W23233   1.010   5.370  11.861 -0.0816  0.1895  0.1253
 6973W        W23234   5.219   0.240   4.934 -0.1366  0.3107  0.1882
 6974W        W23235  13.496   4.420  13.774 -0.0473  0.2441 -0.0508
 6975W        W23236  14.120  10.841  13.679 -0.1662  0.3212 -0.2917
 6976W        W23237   1.389   1.579  14.228  0.0358  0.1733  0.2293
 6977W        W23238   6.956   1.387   1.948 -0.2801 -0.0706  0.4436
 6978W        W23239  11.796   1.880  12.094 -0.1737  0.2203 -0.2021
 6979W        W23240   1.970  12.583  14.125 -0.1062  0.2718  0.3933
 6980W        W23241  11.323   7.579   2.674  0.1538  0.1093 -0.0964
 6981W        W23242  14.525  11.059  15.484  0.2865  0.0003  0.1219
 6982W        W23243  17.616  13.768   4.312 -0.0824  0.0245  0.1124
 6983W        W23244   5.556  15.627  15.986 -0.0177  0.3097 -0.2931
 6984W        W23245  11.006   4.824   5.587 -0.0419 -0.0955 -0.1752
 6985W        W23246   0.758   7.201   0.324 -0.1181 -0.1110 -0.0901
 6986W        W23247  10.785   0.992   3.514 -0.5366  0.2741  0.0754
 6987W        W23248  12.546   5.865  15.345 -0.1341 -0.1362  0.3398
 6988W        W23249   3.234   1.319  13.744  0.0215 -0.2859  0.1243
 6989W        W23250  14.164  18.106   1.966 -0.0147  0.2662  0.3838
 6990W        W23251  16.114   6.811  15.674 -0.0178 -0.0263 -0.3179
 6991W        W23252   8.726  10.140   3.095  0.1282  0.2378 -0.0738
 6992W        W23253  15.287  10.846  12.766 -0.1861 -0.0735 -0.0529
 6993W        W23254  12.166   6.743   5.938 -0.0478  0.1210  0.0321
 6994W        W23255   3.129   2.334  12.773 -0.3033  0.1677 -0.0768
 6995W        W23256  12.553  16.833  15.465  0.2376  0.2146 -0.1274
 6996W        W23257   6.312   0.700   0.434  0.0980 -0.0364 -0.2339
 6997W        W23258   4.684   2.290  11.373 -0.0022 -0.2338  0.0858
 6998W        W23259  13.107   0.762  12.873 -0.2428  0.0371  0.1092
 6999W        W23260  10.794  11.331   0.298  0.2108  0.0031 -0.1943
 7000W        W23261   2.921   7.113  12.083 -0.0866  0.0781 -0.1560
 7001W        W23262  15.811  16.190   4.422  0.0203  0.2465  0.0740
 7002W        W23263   1.035   8.387   2.032 -0.0497 -0.0260  0.3590
 7003W        W23264   7.635  17.287   1.763 -0.1090 -0.0962  0.0572
 7004W        W23265   7.486  15.501  11.462 -0.0989  0.2465 -0.0972
 7005W        W23266  18.104   0.457  15.450  0.0512  0.0965 -0.2720
 7006W        W23267   7.121   1.791  14.795  0.1396 -0.0568  0.0978
 7007W        W23268   6.424  12.811  11.630  0.0974 -0.3141  0.2547
 7008W        W23269  10.672  13.793  11.816  0.1655 -0.0990 -0.0337
 7009W        W23270  11.202  14.477  10.311 -0.0220 -0.4412 -0.0555
 7010W        W23271  17.678   0.057   4.966  0.0009  0.0295 -0.1080
 7011W        W23272  14.382   5.030  15.838  0.2004  0.2374 -0.1948
 7012W        W23273  11.196  18.081   4.669  0.2275  0.0640 -0.2047
 7013W        W23274  16.473  17.416   4.343 -0.0777  0.0068 -0.0494
 7014W        W23275   9.807   2.268   3.860 -0.1968 -0.1049  0.2183
 7015W        W23276   1.349   3.503   1.130  0.3212 -0.0156 -0.0776
 7016W        W23277  14.057   2.927   2.376  0.2370  0.0477 -0.0354
 7017W        W23278  17.839   8.287   3.663 -0.0185  0.2381  0.3058
 7018W        W23279   0.799  13.250  15.999  0.2545 -0.2499  0.0361
 7019W        W23280   2.215  12.169  13.397  0.1641 -0.1319 -0.0429
 7020W        W23281  14.266   8.099   4.212 -0.1031 -0.4705  0.1577
 7021W        W23282   2.448  14.128   3.849 -0.2358  0.0620 -0.0325
 7022W        W23283   3.091  13.273  13.320  0.0446  0.3307  0.1336
 7023W        W23284  15.688  16.890   3.939 -0.0039  0.1153 -0.0609
 7024W        W23285   9.113  14.068  15.878  0.0517  0.0434 -0.1219
 7025W        W23286   2.088   8.905  13.377 -0.0563  0.0062 -0.1923
 7026W        W23287   8.234  15.619   4.023  0.0700 -0.1408 -0.1581
 7027W        W23288   7.641  11.013  14.378  0.1128 -0.0633 -0.0390
 7028W        W23289   3.451   2.573  13.018 -0.5458  0.2465  0.1843
 7029W        W23290   9.078   1.748  13.325 -0.3480 -0.0276  0.2745
 7030W        W23291  14.491   2.610   3.477 -0.1624  0.1370  0.0598
 7031W        W23292  17.955   7.708  13.911 -0.3946  0.0033 -0.0541
 7032W        W23293  11.652  16.176   3.510  0.1939  0.0478 -0.4196
 7033W        W23294  14.683   6.749   5.461 -0.4155  0.1697  0.1671
 7034W        W23295  14.650   7.817   2.303  0.0060  0.3016 -0.1962
 7035W        W23296  10.690   6.388  11.190 -0.1097 -0.2259 -0.2225
 7036W        W23297   8.128   8.674  14.574  0.2952 -0.3007 -0.0685
 7037W        W23298   1.673   3.103   4.242 -0.0511 -0.0278 -0.2739
 7038W        W23299  11.610   6.627  15.766  0.0068  0.1996 -0.1916
 7039W        W23300  11.215  16.954   0.265  0.0475 -0.1299 -0.1301
 7040W        W23301   6.137  17.184  14.491 -0.0004  0.1671 -0.0993
 7041W        W23302   2.607   3.472  14.364 -0.0662 -0.0846 -0.4869
 7042W        W23303   0.776  14.768   0.559 -0.1389 -0.1035 -0.5318
 7043W        W23304  16.907   2.169   0.990  0.1804  0.1042 -0.1474
 7044W        W23305   6.812  15.526   2.985 -0.2018 -0.0539  0.0335
 7045W        W23306   9.926   8.705   0.570  0.2599 -0.0724  0.0718
 7046W        W23307  15.124   4.847   6.281 -0.0568 -0.1170  0.1896
 7047W        W23308  18.250  17.526   2.734 -0.4339 -0.0377 -0.0325
 7048W        W23309  12.634  17.405   1.167  0.0780  0.0811 -0.3091
 7049W        W23310   4.833   7.022  14.834 -0.0664 -0.0423 -0.2045
 7050W        W23311  15.962   5.559   0.755 -0.2292  0.0585  0.1175
 7051W        W23312  12.087   8.611  12.789 -0.2301  0.0128  0.2382
 7052W        W23313  12.531   8.758   0.319 -0.2567  0.1283  0.3355
 7053W        W23314  17.246   9.417   0.345 -0.0014 -0.0742 -0.1917
 7054W        W23315   0.914  14.797  14.418 -0.0231  0.0464  0.0515
 7055W        W23316   7.497   4.230  16.009  0.1349  0.1231 -0.1853
 7056W        W23317  18.061  12.083  15.154 -0.1578  0.0204 -0.0074
 7057W        W23318  13.588  18.160   0.376 -0.1718 -0.0188 -0.2409
 7058W        W23319   3.314   9.400  11.958  0.0739 -0.1046 -0.4549
 7059W        W23320  17.302   9.640  13.182 -0.1086 -0.3151 -0.1340
 7060W        W23321  17.340   7.961   3.773 -0.0554 -0.0275  0.0567
 7061W        W23322   4.037   9.436  12.287 -0.0821 -0.0284  0.0306
 7062W        W23323   6.163   6.181  14.852  0.0229 -0.1843  0.1412
 7063W        W23324  14.235   1.931  13.877 -0.0590  0.1445 -0.1641
 7064W        W23325   8.543   6.866   5.058 -0.3453 -0.0463 -0.1401
 7065W        W23326  14.462   8.974   2.632  0.3199  0.0209  0.2376
 7066W        W23327   3.147  16.068  14.005 -0.0757 -0.1317 -0.2737
 7067W        W23328   8.632   8.514   0.130  0.0188 -0.1666 -0.0577
 7068W        W23329  13.264  15.647  13.420  0.1173 -0.0909  0.0913
 7069W        W23330  14.530   1.163  16.080 -0.0262 -0.1022  0.0610
 7070W        W23331  10.507  13.799   0.186 -0.2276 -0.1751 -0.2093
 7071W        W23332   9.531  14.374   3.682  0.2971  0.1080 -0.2613
 7072W        W23333  10.129   9.775  11.198 -0.0235 -0.1015  0.1206
 7073W        W23334   4.979  18.309  13.856 -0.0201 -0.1291 -0.0215
 7074W        W23335   5.945   3.034  12.398  0.0475  0.0554  0.0139
 7075W        W23336  15.277  16.836   1.412 -0.0576  0.0951 -0.1664
 7076W        W23337  12.184   0.389   5.096 -0.1858 -0.0380  0.0341
 7077W        W23338   5.774  12.148   4.963  0.1311  0.1157 -0.1406
 7078W        W23339  11.974   7.085  13.649 -0.2443  0.3951 -0.0096
 7079W        W23340  17.431  15.306  11.658  0.1269  0.2023 -0.3982
 7080W        W23341  11.968   6.799  14.219 -0.2097 -0.0743  0.2657
 7081W        W23342  15.221  14.536   2.264 -0.2223 -0.0044  0.1306
 7082W        W23343  14.025   0.955   3.286  0.0423  0.0380  0.1629
 7083W        W23344  12.261   1.387  14.130  0.2419 -0.0205 -0.2075
 7084W        W23345  12.015   3.740  14.717 -0.0126 -0.1304 -0.1292
 7085W        W23346   8.823   9.582  13.817  0.2477 -0.4482 -0.0897
 7086W        W23347   2.642  10.335   0.195 -0.2161 -0.4288  0.0677
 7087W        W23348   8.032  13.691  12.395  0.2284  0.1326 -0.0326
 7088W        W23349   4.786  13.665   4.470 -0.1337  0.2075  0.3296
 7089W        W23350   9.189   1.876   1.126  0.0165 -0.1663 -0.1284
 7090W        W23351   7.611   7.518   3.077  0.2534 -0.0061 -0.1046
 7091W        W23352   5.260   4.498   0.605 -0.1866 -0.0066  0.0461
 7092W        W23353   4.133  16.451   0.013  0.0680 -0.1553 -0.3377
 7093W        W23354   7.653   8.037   2.184  0.1084  0.0794  0.0502
 7094W        W23355   4.708   8.881  11.145  0.0223  0.0980 -0.3161
 7095W        W23356   5.919   5.622  11.756 -0.0917 -0.1076  0.3333
 7096W        W23357   4.930  12.980  14.922  0.2870  0.5374 -0.2211
 7097W        W23358  12.695  12.763   0.293 -0.1061 -0.1610  0.0175
 7098W        W23359   8.000   9.338  10.829  0.3321  0.1353 -0.2450
 7099W        W23360  16.302   4.227  12.774  0.4180 -0.0664  0.2637
 7100W        W23361  14.670   8.518   2.095  0.0731 -0.0488  0.2508
 7101W        W23362   6.879   7.655  14.918 -0.0053  0.0083  0.2970
 7102W        W23363  10.042  16.288  11.774 -0.1069 -0.1462 -0.2406
 7103W        W23364   5.621   1.195   4.710 -0.0139  0.0659 -0.2724
 7104W        W23365  10.071   6.806  15.101 -0.2775  0.3012 -0.1048
 7105W        W23366   6.122  16.336  15.468  0.1728 -0.2011  0.0538
 7106W        W23367   1.023  15.324  14.998  0.3950  0.3218 -0.2702
 7107W        W23368   2.792   9.568  14.679 -0.1270 -0.1466 -0.3082
 7108W        W23369   4.744  12.073   2.697 -0.1339  0.0680 -0.1826
 7109W        W23370   5.507   9.397   2.702 -0.0121  0.1890 -0.0556
 7110W        W23371   8.812  10.510  15.586 -0.0633  0.1143  0.1905
 7111W        W23372  17.843   3.205   6.267  0.0648 -0.2029  0.1648
 7112W        W23373   0.493   1.236   5.471 -0.1369 -0.2848  0.1226
 7113W        W23374  14.942   3.250   2.194  0.2604 -0.2548 -0.0894
 7114W        W23375  10.275   4.798  11.347  0.2248  0.1947 -0.1136
 7115W        W23376   9.717  11.866  15.876  0.0827  0.1831 -0.0935
 7116W        W23377  11.360   2.002   1.302  0.1468 -0.1378  0.0839
 7117W        W23378  15.509   3.994  13.764  0.2643  0.1328 -0.1401
 7118W        W23379   1.627   0.836  14.150 -0.0793 -0.1941  0.2615
 7119W        W23380   3.999   8.953   4.280 -0.1882 -0.0612 -0.2708
 7120W        W23381  14.086  15.795  12.768 -0.0452 -0.4590  0.3537
 7121W        W23382   8.932  14.129   2.987  0.0028 -0.1739  0.2417
 7122W        W23383   7.401   4.444   4.402 -0.0922 -0.0508  0.0048
 7123W        W23384   3.484  17.892   2.966  0.0150  0.2670 -0.1281
 7124W        W23385   1.356  11.352   0.502  0.0064 -0.1901  0.2180
 7125W        W23386   2.970   4.456   2.156 -0.0793  0.0906 -0.2535
 7126W        W23387  13.134   8.159   4.623 -0.0422  0.0960 -0.2251
 7127W        W23388  12.036   7.376  11.960 -0.3206 -0.1905 -0.2929
 7128W        W23389   7.022   2.888   9.903  0.0414  0.2173 -0.2970
 7129W        W23390  15.067   0.731  14.851  0.1335  0.0394  0.0498
 7130W        W23391  15.288  10.995   0.737  0.0913 -0.0958  0.1559
 7131W        W23392  17.325  10.775  14.171 -0.0465 -0.4548  0.0303
 7132W        W23393  18.294   7.286   2.395  0.2593 -0.0427 -0.0947
 7133W        W23394   3.314  15.788   0.010 -0.1868 -0.4944 -0.0354
 7134W        W23395  12.130   5.023  13.085 -0.0932  0.0661 -0.0323
 7135W        W23396   1.731   0.478  14.653 -0.1744  0.5722  0.1118
 7136W        W23397   9.634   4.703  13.797  0.1052 -0.0982 -0.2721
 7137W        W23398  12.366  13.493   3.099 -0.0804 -0.0404  0.0207
 7138W        W23399   6.848   0.865   5.129 -0.2253  0.1456  0.2832
 7139W        W23400   4.417   3.481  15.191  0.1162  0.1765 -0.0347
 7140W        W23401   2.013   7.904   0.413  0.0565 -0.0472  0.1323
 7141W        W23402   6.518  16.136  15.780  0.3213 -0.0483 -0.2071
 7142W        W23403   1.206  12.744   0.972 -0.1615  0.0335  0.0056
 7143W        W23404   5.147  14.988  14.636  0.2232  0.0723 -0.2397
 7144W        W23405   8.951  11.082   4.635 -0.0120 -0.1885  0.5228
 7145W        W23406  15.853   3.478  12.572 -0.0644  0.0385 -0.1901
 7146W        W23407   1.454   4.010  15.426 -0.1520  0.1654 -0.2811
 7147W        W23408  16.492  11.275  12.046  0.1105 -0.2310  0.1222
 7148W        W23409   4.946   8.509   0.656 -0.1501  0.1829 -0.1271
 7149W        W23410  15.241  17.406  11.933  0.0184 -0.2199  0.0421
 7150W        W23411   5.783   2.986  11.874 -0.1850 -0.2342 -0.2384
 7151W        W23412  15.427  16.324  11.989  0.2576 -0.1049 -0.0828
 7152W        W23413   6.005   6.295  13.215 -0.3253  0.2541  0.0435
 7153W        W23414   7.161   4.933  13.903 -0.0973 -0.0949  0.1063
 7154W        W23415  13.471  17.906  13.334  0.1190 -0.0548  0.0456
 7155W        W23416   6.896   9.426  13.627  0.0182  0.2380 -0.0575
 7156W        W23417   4.919   3.987  12.243  0.1603 -0.1485 -0.0355
 7157W        W23418   3.461  15.644   4.785 -0.1690  0.2254 -0.0358
 7158W        W23419  18.314   0.850  12.461  0.0745  0.2741  0.2451
 7159W        W23420   6.025  15.747  14.597 -0.2161 -0.2608  0.0350
 7160W        W23421   1.027  17.183   0.228 -0.2708 -0.0182  0.1897
 7161W        W23422  11.675  16.336  15.349 -0.0670 -0.0934  0.1780
 7162W        W23423   2.474  13.456  11.443 -0.1787 -0.4695 -0.0817
 7163W        W23424   1.520   3.006   5.453  0.1518 -0.3493  0.3936
 7164W        W23425  16.923  16.909  15.041  0.1391  0.2747  0.1099
 7165W        W23426  14.265  13.061  12.342  0.2205  0.1911  0.3221
 7166W        W23427   1.333   3.992   3.798 -0.0209 -0.1228  0.0993
 7167W        W23428  16.129  12.758   1.304 -0.1460  0.0393  0.2594
 7168W        W23429  18.178   4.863   2.919  0.3889 -0.3135  0.5314
 7169W        W23430  17.880   8.539  12.547 -0.0549 -0.0704 -0.3865
 7170W        W23431   6.284   4.739   0.346 -0.0499  0.0849  0.0471
 7171W        W23432  17.410   9.092   0.725  0.1289  0.1580 -0.3107
 7172W        W23433  11.474   2.932  13.747  0.0118 -0.3779  0.3149
 7173W        W23434  13.542   7.887   1.498  0.2729  0.0835  0.2190
 7174W        W23435  15.708   2.862   5.566 -0.0217  0.0327 -0.1462
 7175W        W23436  11.432   4.949  11.947  0.2471 -0.1198  0.3121
 7176W        W23437  10.381   2.766  16.263 -0.0460  0.1883  0.1977
 7177W        W23438  15.717   9.558  16.185 -0.3145  0.0282  0.0133
 7178W        W23439   3.571  10.007   4.645  0.1271 -0.0831 -0.1344
 7179W        W23440   4.857  12.930  14.120  0.5047  0.0452 -0.0917
 7180W        W23441  17.001  14.059  15.473 -0.0347 -0.1799 -0.3284
 7181W        W23442   1.500  14.840  12.775 -0.0818  0.0949 -0.2766
 7182W        W23443   1.883  16.429   3.498 -0.4659  0.2020  0.1293
 7183W        W23444   3.875  13.451   0.093  0.1884 -0.0031  0.3579
 7184W        W23445  16.137  16.279   5.249  0.0334  0.0482 -0.5073
 7185W        W23446  17.777   3.854   1.344 -0.2021 -0.2118  0.3150
 7186W        W23447   8.595  10.653   1.694  0.0114 -0.0243 -0.1075
 7187W        W23448   2.510  14.943  14.428  0.4119  0.0566  0.3655
 7188W        W23449  11.627   7.700   0.731 -0.3267 -0.0537  0.0318
 7189W        W23450  12.854  12.849   1.533 -0.1946 -0.4283  0.2222
 7190W        W23451   1.534   8.506  16.000 -0.1316  0.2814  0.4781
 7191W        W23452   1.653   6.196   0.496  0.0586 -0.2153  0.1429
 7192W        W23453  16.360  10.965  13.743 -0.2204  0.0173 -0.1898
 7193W        W23454  14.584   2.039  12.255  0.4110  0.2007  0.0643
 7194W        W23455   1.502   3.506  15.236  0.4691  0.0760 -0.1085
 7195W        W23456   6.584  12.220  15.295 -0.1580  0.0496  0.0218
 7196W        W23457   7.000  10.637   1.892 -0.2422  0.2121 -0.5050
 7197W        W23458   7.251  12.635  14.661 -0.0689 -0.1572  0.0458
 7198W        W23459  15.339  12.796   5.176  0.0211  0.0714 -0.1517
 7199W        W23460   0.371   2.916   4.708 -0.0590  0.2965  0.0034
 7200W        W23461   2.196   4.177  11.842 -0.1126 -0.0179 -0.1218
 7201W        W23462  16.383  10.972  11.262 -0.0008  0.1461  0.1992
 7202W        W23463  10.146   3.798  11.210 -0.1612  0.0004  0.0168
 7203W        W23464  13.819  18.335  16.272  0.1496 -0.1475  0.2349
 7204W        W23465  10.745   7.943   0.366  0.0793  0.1939 -0.0912
 7205W        W23466  11.369   9.296  11.478  0.0779  0.1176 -0.1228
 7206W        W23467   7.832   4.687   4.231  0.2751 -0.2804  0.0573
 7207W        W23468   1.922  17.091   0.913 -0.2841 -0.1356  0.0653
 7208W        W23469  17.767   1.469   3.380 -0.2600  0.0287  0.0031
 7209W        W23470   2.750  11.721  11.375  0.0616  0.1018  0.3299
 7210W        W23471  15.862  14.636  11.433  0.1145  0.1475 -0.3275
 7211W        W23472   1.871  17.990  15.542 -0.0864  0.1618  0.0148
 7212W        W23473  15.598  10.124   3.580  0.0997 -0.0838 -0.0380
 7213W        W23474   6.131   0.464   3.021 -0.1116 -0.0372  0.2303
 7214W        W23475   3.008  12.567   5.659 -0.0837 -0.0798  0.2951
 7215W        W23476  12.780   6.791  14.972 -0.2243 -0.1032  0.3725
 7216W        W23477  14.331  14.683  12.528 -0.0049 -0.2274 -0.1291
 7217W        W23478  15.001   8.496   5.305 -0.1186 -0.0079  0.0511
 7218W        W23479  12.374  13.246   0.747 -0.1227 -0.0005 -0.0568
 7219W        W23480  17.933  17.352  16.065 -0.1436 -0.0720 -0.1553
 7220W        W23481  11.350   8.479   2.758  0.0538  0.1680 -0.3675
 7221W        W23482  16.215  17.399   0.360 -0.1668 -0.2002 -0.2850
 7222W        W23483  15.575   8.349   0.323  0.0677  0.1996 -0.0117
 7223W        W23484   6.623   5.014   5.244  0.0017  0.1231  0.2924
 7224W        W23485  11.835   5.741   4.454 -0.1815 -0.1870  0.4002
 7225W        W23486   5.411   6.195  15.650 -0.1919 -0.0606 -0.1223
 7226W        W23487  18.033   3.274   0.017 -0.1471  0.0887  0.2031
 7227W        W23488   8.871   3.431  15.578 -0.1641 -0.0416 -0.0127
 7228W        W23489  12.917  14.728   2.235  0.2123  0.1441 -0.0556
 7229W        W23490  15.016  15.246   0.698 -0.1725 -0.0638 -0.1131
 7230W        W23491   5.280  14.043   4.746  0.1350 -0.1738 -0.2479
 7231W        W23492   2.681   7.951   3.634 -0.0700 -0.0357 -0.2573
 7232W        W23493   8.292  10.681   4.259  0.2550  0.1835  0.0927
 7233W        W23494   0.714  14.511   1.000 -0.0103  0.1705  0.1088
 7234W        W23495   2.453   7.977   4.853 -0.1991 -0.0784 -0.2666
 7235W        W23496   5.236  13.034   0.057 -0.0000  0.1720  0.1505
 7236W        W23497   2.084  10.687   1.065 -0.2648  0.3217 -0.0703
 7237W        W23498   7.081   9.106  14.824 -0.2343  0.1182 -0.0523
 7238W        W23499  14.078   9.594  12.318 -0.1600 -0.1011 -0.1443
 7239W        W23500   1.930   0.121   0.194  0.0946 -0.3020  0.0666
 7240W        W23501   3.225  13.379  12.716  0.2244 -0.1855 -0.1203
 7241W        W23502  17.084   6.673  13.168  0.0693 -0.4184 -0.1519
 7242W        W23503   3.418   5.300   2.447  0.1720  0.0212 -0.0013
 7243W        W23504   7.056   3.691  11.652  0.3472  0.2419  0.2333
 7244W        W23505   6.785   0.565   3.792  0.2751  0.0103  0.0526
 7245W        W23506  17.105  11.525   2.319 -0.0246 -0.3063  0.0168
 7246W        W23507   8.609  14.459  12.190 -0.0364  0.1453  0.0952
 7247W        W23508   4.971  12.392  11.006 -0.2733  0.1878  0.1377
 7248W        W23509  13.440  13.638  11.790 -0.2296  0.1705  0.1068
 7249W        W23510  16.030  10.115   3.338 -0.2088  0.1620  0.1262
 7250W        W23511   2.309  14.573  14.112 -0.0415 -0.4089 -0.1984
 7251W        W23512   9.110   4.742  14.459 -0.1534 -0.2017  0.0616
 7252W        W23513   6.924   7.592  14.374 -0.2318  0.1992  0.1278
 7253W        W23514   1.838   6.834  11.669 -0.0590  0.0954  0.1472
 7254W        W23515  15.983  18.364   0.057  0.0587 -0.0183 -0.2093
 7255W        W23516  13.163   4.025   0.891 -0.0208 -0.3555 -0.1453
 7256W        W23517   6.689   8.469  15.951  0.0638 -0.1488  0.0680
 7257W        W23518  14.375  10.117   0.367  0.0831  0.1563  0.1597
 7258W        W23519   3.265   0.847   5.394 -0.0194  0.1767  0.1900
 7259W        W23520  16.210   2.204   1.416 -0.2369 -0.0628  0.0598
 7260W        W23521   8.602   6.909  13.149  0.1702  0.1893 -0.0205
 7261W        W23522  16.452   3.966   1.240 -0.1846  0.2685  0.1850
 7262W        W23523  17.945   2.800  13.280 -0.0542  0.0850  0.1497
 7263W        W23524   1.535  11.674   3.998  0.1598  0.0430 -0.2556
 7264W        W23525   1.855  13.584  15.260 -0.0994  0.3902 -0.0971
 7265W        W23526   6.332   6.357  11.190  0.0136 -0.2045  0.2100
 7266W        W23527   1.822  10.651   6.413 -0.1287  0.1491 -0.0984
 7267W        W23528   2.442  18.328   0.036 -0.0980  0.0491  0.0004
 7268W        W23529   1.056  12.838  14.423 -0.0771  0.1384  0.0999
 7269W        W23530   8.757   3.271  14.038  0.0957 -0.0513 -0.0086
 7270W        W23531   7.569   2.842  15.447  0.2259  0.3707 -0.3358
 7271W        W23532  17.216  13.124   6.143  0.0799 -0.4592  0.2484
 7272W        W23533   6.725   8.197   3.285  0.0142  0.2130  0.1719
 7273W        W23534  11.050   3.765   0.169 -0.0626  0.1197 -0.0189
 7274W        W23535   2.069   9.481  15.404  0.1051 -0.2890  0.2891
 7275W        W23536   4.167  11.610  14.811  0.4845  0.1924  0.3630
 7276W        W23537   3.091  10.266   2.839 -0.5164 -0.4095 -0.2073
 7277W        W23538  15.802   8.248   3.764 -0.1479 -0.0198 -0.1938
 7278W        W23539  11.654   0.486  12.084 -0.0876  0.1921 -0.0481
 7279W        W23540  10.573   5.042  14.895  0.1667  0.1821 -0.0716
 7280W        W23541  14.124   1.374  13.807 -0.1187  0.0177  0.0237
 7281W        W23542   7.985   6.675  15.897 -0.1304 -0.1126  0.1546
 7282W        W23543  16.856  11.306  14.029 -0.2383  0.1200  0.0513
 7283W        W23544   1.241   5.367   1.581  0.2331  0.1940  0.0115
 7284W        W23545   0.316   6.435  11.642 -0.0928  0.2434 -0.1179
 7285W        W23546   7.164  16.992   1.855  0.2176 -0.1610 -0.1750
 7286W        W23547  16.331  14.163  12.509 -0.0158  0.1305 -0.2868
 7287W        W23548  12.381   4.042  12.826 -0.2922  0.1288 -0.1302
 7288W        W23549   2.550  11.248  14.362 -0.1404 -0.3861  0.1483
 7289W        W23550  18.105  11.151  10.223 -0.2602  0.0337  0.0334
 7290W        W23551  15.257   8.047   1.136 -0.0435  0.0969  0.2390
 7291W        W23552   3.818   7.474   2.011  0.0849 -0.2254  0.0258
 7292W        W23553   9.924  17.597   4.793  0.0488  0.2109  0.1867
 7293W        W23554  16.231   0.679   1.666  0.0793 -0.0419  0.2118
 7294W        W23555  16.107  14.015   0.658 -0.1522 -0.0646 -0.1377
 7295W        W23556  16.384   2.480   2.792  0.1174  0.2213  0.0287
 7296W        W23557  13.662   8.218   4.396 -0.0046  0.0832  0.1305
 7297W        W23558  14.545   9.518   1.864 -0.0670 -0.1036 -0.0235
 7298W        W23559  10.926   1.940   1.046 -0.0165  0.0398 -0.2871
 7299W        W23560   7.944   7.111  12.822  0.1721  0.1328  0.1673
 7300W        W23561  11.197  11.928   3.598 -0.1967 -0.1697 -0.0646
 7301W        W23562   2.830   0.728   3.167 -0.1732 -0.0971 -0.0179
 7302W        W23563   9.412   3.645  15.883  0.2212  0.1652 -0.1180
 7303W        W23564   8.851  10.537   1.248 -0.0134 -0.0214  0.1812
 7304W        W23565  16.242   2.325   5.669 -0.3768  0.2786 -0.2104
 7305W        W23566  10.119   0.559  12.169  0.1724  0.0341 -0.0400
 7306W        W23567   3.610  14.736  13.923  0.0314  0.0293 -0.0296
 7307W        W23568   8.875  12.330   4.634 -0.0274 -0.0159  0.4398
 7308W        W23569   9.147  13.512  11.513  0.0212 -0.1441  0.1534
 7309W        W23570   7.049  15.952   4.294 -0.1590 -0.2730  0.0097
 7310W        W23571  11.594   3.837   0.179  0.0803  0.1757 -0.0321
 7311W        W23572  17.983  13.098  12.642  0.0755 -0.1216  0.2892
 7312W        W23573  11.471   4.550   4.580 -0.2889  0.3844 -0.1667
 7313W        W23574  11.204  15.705  12.629 -0.4523 -0.1237  0.2632
 7314W        W23575   8.249  10.975   4.898  0.1103 -0.2525  0.2741
 7315W        W23576   7.168  18.012   4.465  0.0838 -0.2383  0.0263
 7316W        W23577  15.318   0.269   4.994 -0.2351  0.4428  0.1191
 7317W        W23578  11.635  13.467  13.185  0.0234 -0.0500 -0.2021
 7318W        W23579  16.607   0.847   2.497  0.0370 -0.4225 -0.1462
 7319W        W23580   1.526  11.382  11.461 -0.1896  0.3589 -0.3018
 7320W        W23581   0.029   9.471  12.921  0.0752 -0.2502 -0.0421
 7321W        W23582   7.520  14.373   2.174  0.0139  0.0134 -0.0104
 7322W        W23583  16.717   4.361  14.190  0.2854 -0.0156  0.1680
 7323W        W23584  11.131   8.151   2.468  0.1899 -0.3583  0.0231
 7324W        W23585   7.816   0.159   4.086 -0.0126  0.1095  0.3137
 7325W        W23586   3.598  13.050  11.294 -0.1297  0.0970  0.0016
 7326W        W23587  10.010  14.270  15.096  0.1262 -0.1706  0.0471
 7327W        W23588  12.896  12.161   3.292 -0.0091 -0.0241  0.0677
 7328W        W23589  18.017   2.532   0.714 -0.0646  0.0046  0.0593
 7329W        W23590  11.630   8.272   2.347  0.0218  0.3796  0.1317
 7330W        W23591   8.748  13.961   4.242 -0.4794  0.1591  0.3046
 7331W        W23592   6.792  11.251  14.504 -0.0106 -0.0828  0.2240
 7332W        W23593  16.766  13.693  15.729  0.1039 -0.0361  0.0621
 7333W        W23594   6.251   7.129   4.957  0.1698 -0.1467  0.0336
 7334W        W23595   9.212  14.881   2.512  0.0391  0.1361  0.1188
 7335W        W23596   4.979   6.574   3.825 -0.2077 -0.0271 -0.0828
 7336W        W23597  12.826  17.697  13.674  0.1032  0.0843  0.2169
 7337W        W23598  12.915   8.424   0.439 -0.1683 -0.1182  0.0232
 7338W        W23599   3.667  12.670   5.088 -0.0030 -0.0985 -0.2102
 7339W        W23600  12.501  14.298   1.541 -0.2832 -0.0225  0.0635
 7340W        W23601  10.985  11.822   0.218 -0.0151  0.0085 -0.2632
 7341W        W23602   1.326  16.337  15.276  0.0013 -0.1534 -0.2561
 7342W        W23603   7.714   9.658  14.207 -0.4271 -0.0819 -0.0967
 7343W        W23604  17.563   4.305   5.173  0.1819  0.0346 -0.0258
 7344W        W23605  12.683   6.492   0.331  0.0815  0.0318 -0.2388
 7345W        W23606  15.399   3.287  14.544  0.1021 -0.0726 -0.2385
 7346W        W23607  10.075   3.270   1.269 -0.3288 -0.0271  0.1571
 7347W        W23608   3.788  17.607  13.166  0.2177  0.0572 -0.0368
 7348W        W23609  15.020  13.278  11.982 -0.0787 -0.1344 -0.1705
 7349W        W23610   8.048  16.234  12.971 -0.2059 -0.0494  0.0611
 7350W        W23611   9.208   3.548   3.405  0.2598  0.0973 -0.1336
 7351W        W23612   5.941  12.394  12.652  0.0387 -0.2910 -0.2278
 7352W        W23613   3.415   2.366   2.773  0.4492 -0.1351  0.3371
 7353W        W23614   1.268   1.140   0.448  0.0044 -0.0021 -0.3974
 7354W        W23615   0.669  10.585   2.725 -0.3298  0.1303 -0.2619
 7355W        W23616  15.841   3.332  15.463 -0.2850  0.1126  0.0438
 7356W        W23617  17.754   7.704  16.253 -0.0444 -0.1250  0.0256
 7357W        W23618  11.365  11.747   4.013 -0.2473 -0.1730 -0.0050
 7358W        W23619   9.255  16.955  13.378 -0.2499 -0.2260 -0.1608
 7359W        W23620  13.146   9.868   4.227 -0.3026  0.4043 -0.3337
 7360W        W23621   1.054  16.722   2.540  0.0368  0.0238 -0.1049
 7361W        W23622   2.861   0.075   6.010 -0.1103  0.0144 -0.1137
 7362W        W23623   0.051  12.681   4.292 -0.1767  0.0324  0.0052
 7363W        W23624   0.649   3.662   2.940  0.1714  0.0949 -0.1100
 7364W        W23625  15.149   4.415   4.872  0.1964 -0.0488  0.1335
 7365W        W23626  17.897  12.306   3.466  0.0515 -0.2060  0.2171
 7366W        W23627  17.213  17.247  14.821 -0.0334  0.1691  0.4173
 7367W        W23628   4.039  13.698  11.280  0.1698 -0.0571 -0.3019
 7368W        W23629  13.374   4.543  14.676  0.1776 -0.0267 -0.1505
 7369W        W23630  14.048   1.931  12.550 -0.2394 -0.0167 -0.2861
 7370W        W23631  12.569  12.700   4.297  0.1179  0.2765 -0.0655
 7371W        W23632  14.141   5.630  15.222  0.1871 -0.0858 -0.0075
 7372W        W23633  11.375   9.971  14.051  0.4186 -0.1189  0.1153
 7373W        W23634   0.185  13.702   2.792 -0.2039 -0.1549 -0.0520
 7374W        W23635  13.212  17.265   0.233 -0.1980 -0.1612 -0.0588
 7375W        W23636  10.317  12.084  15.687 -0.2754  0.1277  0.1186
 7376W        W23637   3.565   7.515   4.060  0.2275  0.0990  0.1570
 7377W        W23638   9.287  15.053   5.752 -0.2087 -0.0704  0.1909
 7378W        W23639   8.363  15.406   2.713  0.4110  0.1083 -0.0987
 7379W        W23640  17.988  15.268  11.674 -0.0720  0.0941 -0.0293
 7380W        W23641  16.986   6.380  15.182  0.0539 -0.0713 -0.0690
 7381W        W23642   7.219   5.780   5.307 -0.2301 -0.1175 -0.1861
 7382W        W23643   7.623  14.262   4.394  0.0535  0.0934 -0.0381
 7383W        W23644  14.718   2.784   3.950 -0.0661 -0.0019  0.0003
 7384W        W23645  16.151  15.927   4.872 -0.2026  0.3383 -0.0814
 7385W        W23646   3.268   6.298  12.640 -0.0353 -0.3427  0.2372
 7386W        W23647   3.041   8.085  14.225 -0.0485 -0.1492  0.0486
 7387W        W23648   3.654   7.646  11.563 -0.0087 -0.1942 -0.0513
 7388W        W23649  14.000   3.537  14.952 -0.4128 -0.1080  0.3042
 7389W        W23650  13.731   3.775   4.968  0.3948 -0.0038  0.2003
 7390W        W23651   4.199   2.298  15.861  0.2803 -0.1223  0.0560
 7391W        W23652  16.213  14.856   4.703  0.1409 -0.1329  0.0261
 7392W        W23653  11.211  16.211  13.662  0.1407 -0.0861  0.0525
 7393W        W23654  10.963   5.909  13.937  0.3621 -0.0661 -0.1396
 7394W        W23655   2.235  16.591  12.200  0.1216 -0.3397 -0.0976
 7395W        W23656   2.169  17.290   2.551  0.0912 -0.3209  0.0514
 7396W        W23657   5.480  16.526  13.024  0.2621  0.0068 -0.2092
 7397W        W23658  17.654   3.014   0.235 -0.1532 -0.1481  0.1933
 7398W        W23659   7.924   9.076   0.255 -0.1590  0.0745 -0.0490
 7399W        W23660   5.774   9.046  15.996  0.2664 -0.2418  0.1507
 7400W        W23661   9.003   3.907  14.873 -0.1028 -0.1659 -0.0869
 7401W        W23662  13.111  15.326  14.369  0.0991 -0.0437 -0.1216
 7402W        W23663  14.611   5.355   1.488  0.1052 -0.1272 -0.0652
 7403W        W23664   6.365  14.269   2.745 -0.0820 -0.0382 -0.4731
 7404W        W23665   1.335  13.234  14.548 -0.0285 -0.0923  0.0360
 7405W        W23666   6.761  13.886   1.892 -0.0633  0.0389 -0.0812
 7406W        W23667   0.473  15.534  11.674 -0.0398  0.1455  0.0077
 7407W        W23668  13.593   8.812  11.215 -0.1596 -0.1343 -0.0492
 7408W        W23669   3.267  10.179   4.252  0.0688 -0.2225 -0.0754
 7409W        W23670  10.733  14.646   3.212 -0.1305 -0.4051  0.1089
 7410W        W23671  11.145  10.765   3.139  0.0788 -0.4240  0.1769
 7411W        W23672   7.147   8.634  15.974 -0.0661 -0.1663  0.0541
 7412W        W23673  11.755  17.987   6.018 -0.0239  0.2676  0.0282
 7413W        W23674  12.238  14.179   4.658  0.1779  0.3113  0.2682
 7414W        W23675  10.378   9.924   5.639  0.2300  0.0427 -0.4408
 7415W        W23676  10.768   3.892   4.298 -0.1519  0.0816  0.0828
 7416W        W23677  12.248   9.709   0.004  0.2460 -0.3735 -0.0944
 7417W        W23678   0.241  18.270   1.692 -0.1584 -0.0935 -0.1961
 7418W        W23679   1.941   6.084  13.098  0.3848 -0.0632 -0.1863
 7419W        W23680  13.550   7.040   3.382 -0.2050  0.0570  0.0037
 7420W        W23681   9.301   9.601  11.157 -0.0754 -0.1529  0.3212
 7421W        W23682  13.230   5.604   2.642  0.1436 -0.1269 -0.0176
 7422W        W23683  14.817  17.542   4.065 -0.1427  0.1970 -0.4650
 7423W        W23684  15.089   6.256   2.229  0.3773 -0.0593  0.5979
 7424W        W23685  18.156   1.272   2.021  0.1795 -0.0287 -0.0175
 7425W        W23686   7.124   2.089   2.591 -0.0357  0.0200  0.2674
 7426W        W23687   5.067   5.346  12.111  0.0090  0.0667 -0.1640
 7427W        W23688   8.581   6.666   5.569  0.3942 -0.0893  0.0581
 7428W        W23689  15.431   0.792   2.335 -0.1342 -0.0705  0.2503
 7429W        W23690   1.190   4.925   4.429 -0.1101  0.3073 -0.1952
 7430W        W23691  10.092   3.084   0.759 -0.0828  0.0091 -0.1415
 7431W        W23692  17.524  16.932   2.098 -0.4732 -0.1230 -0.0248
 7432W        W23693   5.673   0.371   2.871 -0.3123  0.0909  0.0935
 7433W        W23694   1.685  18.319   4.259  0.1815 -0.1827 -0.2176
 7434W        W23695  16.043   0.667   2.598  0.0935 -0.3213 -0.0701
 7435W        W23696  12.010   8.368  12.326 -0.1384 -0.1831  0.1676
 7436W        W23697   9.541   7.976   0.743  0.2470 -0.1871  0.0160
 7437W        W23698  11.455  13.486   3.787  0.0820  0.0415 -0.5411
 7438W        W23699  16.421  15.573   4.654 -0.1451  0.3332  0.2230
 7439W        W23700   1.746   2.291   2.992 -0.0643  0.1072  0.0602
 7440W        W23701  10.888  16.196   2.802  0.1205  0.1911 -0.4305
 7441W        W23702  16.340  15.935  13.463  0.1324 -0.0326  0.0556
 7442W        W23703  17.737   5.999  12.765  0.2307 -0.4610  0.0127
 7443W        W23704  15.421  11.331   3.486 -0.2006  0.3172 -0.3879
 7444W        W23705   2.176   3.041  15.157 -0.2139 -0.1000  0.1991
 7445W        W23706  16.028  10.784  14.202 -0.4317  0.3103  0.1836
 7446W        W23707  12.447   8.145   4.728  0.1443  0.2522  0.3998
 7447W        W23708   5.175  10.391   3.778  0.0203 -0.2773 -0.0801
 7448W        W23709   3.645   7.949  11.098 -0.2248 -0.2059  0.3147
 7449W        W23710  15.928   0.806   3.583 -0.2690  0.0965 -0.2466
 7450W        W23711   7.947  12.716   4.375 -0.3487 -0.0870 -0.0852
 7451W        W23712  14.479   8.223  14.600 -0.0942 -0.2064  0.1584
 7452W        W23713   3.100  17.385   1.343 -0.1320  0.0675  0.0515
 7453W        W23714   9.628  10.927   1.714 -0.0025 -0.1000 -0.0500
 7454W        W23715   1.248  11.474  11.056  0.1197  0.4682 -0.3459
 7455W        W23716  10.398   5.610   3.517  0.1326 -0.0581 -0.2647
 7456W        W23717  12.846  16.957   4.099  0.4802 -0.0238 -0.0402
 7457W        W23718  10.237   8.706   2.242  0.1179 -0.0699  0.0796
 7458W        W23719   2.600   5.305  16.008  0.1433 -0.1940 -0.1202
 7459W        W23720  14.250   7.442  13.352 -0.2006  0.0311 -0.2468
 7460W        W23721  16.897   7.588  14.742  0.3975  0.0845 -0.0661
 7461W        W23722  16.397   0.839  13.278 -0.0119 -0.0516  0.0144
 7462W        W23723   5.343   6.528  14.392 -0.0098  0.2096  0.1910
 7463W        W23724   0.212  17.290  15.407 -0.1321 -0.1842 -0.1656
 7464W        W23725  17.254   7.318   5.279 -0.2841  0.1756 -0.0771
 7465W        W23726  10.529   1.139  14.964  0.0532  0.0214 -0.2217
 7466W        W23727   6.240  10.098  15.006 -0.0042  0.1496 -0.0007
 7467W        W23728   5.575   8.722  15.126 -0.2456  0.0423  0.0835
 7468W        W23729  16.925   8.631   4.420 -0.5362  0.0525 -0.1854
 7469W        W23730  14.491   2.847  14.284 -0.0933 -0.2798 -0.0583
 7470W        W23731  15.549  10.075   3.091  0.1072 -0.2108 -0.2256
 7471W        W23732   3.921   5.567  13.407  0.1023  0.0828 -0.2534
 7472W        W23733   6.793  16.153  12.067 -0.0989  0.1017 -0.2693
 7473W        W23734   9.862  13.526  15.072  0.3099 -0.0037  0.1346
 7474W        W23735  16.623  14.336  14.813  0.0861  0.1003 -0.0670
 7475W        W23736   9.989   3.453   0.402  0.1038 -0.1768 -0.2371
 7476W        W23737  10.063   2.638  11.483 -0.1034 -0.2161  0.0933
 7477W        W23738  15.591   2.402  14.791 -0.1332 -0.1439  0.1231
 7478W        W23739  14.191   8.985   5.427 -0.1366 -0.0134  0.4094
 7479W        W23740   3.248   1.507  14.235  0.0579 -0.0175 -0.0136
 7480W        W23741   3.942  17.740   1.281 -0.0144 -0.3394  0.1739
 7481W        W23742   3.988  18.085   6.235  0.1838 -0.1813 -0.0020
 7482W        W23743  17.246  16.769   0.156 -0.0781  0.1094 -0.0923
 7483W        W23744  12.978  15.611   2.232  0.0640 -0.2293  0.2016
 7484W        W23745  14.265   5.807  16.238  0.2464 -0.0479 -0.0710
 7485W        W23746  12.033   5.715   0.513  0.1489  0.0186 -0.1179
 7486W        W23747   4.876   2.158  14.575 -0.1948  0.2015  0.1462
 7487W        W23748   4.548  17.764   5.520 -0.1296  0.0810 -0.0507
 7488W        W23749  13.629  18.258  15.285  0.0251  0.3215 -0.1856
 7489W        W23750  14.278   3.565   2.853  0.1183  0.0507 -0.1741
 7490W        W23751  11.433  12.877   1.819  0.0509  0.2350  0.0608
 7491W        W23752   2.100  12.430   1.006 -0.1547  0.1615  0.2045
 7492W        W23753   7.057   7.675   1.943  0.1901 -0.0725  0.2381
 7493W        W23754   6.907   4.150  11.956  0.1891  0.0509 -0.1075
 7494W        W23755  13.815  12.311   0.197  0.0601  0.0969  0.1548
 7495W        W23756   8.237  13.601   5.743  0.0361 -0.3033 -0.0693
 7496W        W23757  14.932  13.464   4.886 -0.0776  0.1311 -0.1345
 7497W        W23758  15.352   1.289  14.425 -0.3556  0.1595 -0.3978
 7498W        W23759  11.273  12.444  11.464  0.1643 -0.1330 -0.3322
 7499W        W23760  12.590   0.750   0.799 -0.3433 -0.4660  0.0366
 7500W        W23761  14.428  10.097  11.010 -0.2544 -0.1333  0.1803
 7501W        W23762  12.523  16.549   5.110 -0.3104 -0.0222  0.4386
 7502W        W23763  13.557  13.320   1.167  0.1775 -0.0714 -0.3901
 7503W        W23764  15.913  17.312  11.406 -0.0663 -0.6644 -0.2358
 7504W        W23765  16.437  15.006   1.630 -0.1776 -0.0315 -0.2297
 7505W        W23766  14.902   2.104   3.701 -0.0588  0.0969 -0.0316
 7506W        W23767  17.549   8.683   2.096 -0.0111  0.2682 -0.0197
 7507W        W23768  14.076  12.767  13.712  0.0751  0.1344 -0.1555
 7508W        W23769  14.240  18.075  13.688  0.1310 -0.2009  0.2028
 7509W        W23770   0.394  15.652   2.683 -0.1077 -0.0877  0.1872
 7510W        W23771   6.278   3.629  14.624 -0.0896  0.0560  0.4379
 7511W        W23772   7.255   2.935   3.301  0.4673 -0.0281  0.2308
 7512W        W23773   6.576   7.177  13.824 -0.0364 -0.1940  0.1238
 7513W        W23774  15.223   6.947  14.798 -0.0179 -0.0217 -0.2517
 7514W        W23775  16.635   6.469  13.925 -0.1228 -0.0209  0.2745
 7515W        W23776  15.016   0.449  11.807  0.0529  0.0770 -0.0579
 7516W        W23777  14.317  16.153  14.448  0.1394 -0.0044  0.0346
 7517W        W23778   5.273  12.870  15.540  0.1794 -0.4354 -0.2345
 7518W        W23779  14.124  15.631   4.353 -0.0594  0.1494 -0.0292
 7519W        W23780  15.500  13.929  13.529  0.1565  0.1635  0.1463
 7520W        W23781  12.016   4.167   3.411  0.1188 -0.0799  0.0595
 7521W        W23782  16.876   7.455   1.408 -0.0795 -0.1223 -0.2617
 7522W        W23783  17.169  16.332   3.248 -0.0062 -0.0861  0.2701
 7523W        W23784   4.348  15.783  14.636  0.2766 -0.4398  0.2556
 7524W        W23785  17.740   5.962  15.530  0.1211  0.0886  0.0500
 7525W        W23786   6.097   7.658  16.052  0.3019  0.0266  0.1163
 7526W        W23787  11.644   9.640   4.085 -0.0768  0.1230 -0.4483
 7527W        W23788   3.029   6.289   4.360 -0.0517  0.4206  0.1802
 7528W        W23789  11.930  10.870   4.800  0.1842  0.0510 -0.0361
 7529W        W23790   3.519   2.241   0.102 -0.3074  0.5351 -0.0895
 7530W        W23791   8.994   4.016   0.577  0.0052 -0.3749  0.1241
 7531W        W23792  18.191  15.838  12.842 -0.0075 -0.0226  0.0846
 7532W        W23793  11.256  15.340   5.645  0.0486  0.2559 -0.0632
 7533W        W23794   1.848   9.161  15.024  0.0850 -0.2410  0.0131
 7534W        W23795   8.022   0.794   3.182  0.1771 -0.0198 -0.0079
 7535W        W23796   6.304  12.090  12.467  0.1449 -0.0204  0.0608
 7536W        W23797   0.555  16.160   2.801  0.0882  0.0289 -0.0640
 7537W        W23798   8.950   4.958   3.799  0.1577 -0.1259  0.0228
 7538W        W23799   1.001  13.127   5.010  0.0141  0.0388  0.0516
 7539W        W23800   1.284  15.238   2.867 -0.0279  0.5151 -0.0805
 7540W        W23801   8.715   3.178   1.616 -0.0011 -0.2592 -0.0333
 7541W        W23802   7.639  15.351  11.919  0.0948 -0.1410 -0.0296
 7542W        W23803   0.630   4.936   5.369  0.0469  0.0309 -0.3810
 7543W        W23804   7.414   7.058   3.257 -0.2276 -0.1345 -0.1428
 7544W        W23805  16.228   7.503   3.733  0.2112  0.1023  0.2878
 7545W        W23806   5.219   8.659   1.588 -0.1394  0.0456  0.3998
 7546W        W23807   0.735   3.622   0.702 -0.0106 -0.0136 -0.3898
 7547W        W23808   2.781   1.952  15.525 -0.0951  0.0728 -0.0151
 7548W        W23809  10.694   0.186   1.863 -0.5031  0.2986  0.1854
 7549W        W23810  11.245  14.401  11.641 -0.0682 -0.1919 -0.0043
 7550W        W23811   5.195   3.483  12.686 -0.0164 -0.2017  0.2012
 7551W        W23812   9.792  15.618  14.523  0.2601  0.1604  0.0054
 7552W        W23813   3.935  18.236  11.610 -0.1363  0.0853  0.0081
 7553W        W23814   8.153   5.077   3.107 -0.0035 -0.0271 -0.0291
 7554W        W23815   9.807  12.202  15.484  0.0278 -0.0078  0.1080
 7555W        W23816  13.961   9.816  16.145 -0.1932  0.0040 -0.1970
 7556W        W23817   2.225  12.114   4.321  0.3084 -0.2423  0.1811
 7557W        W23818   6.852  14.191  14.371 -0.0373 -0.3581 -0.3706
 7558W        W23819  17.767  12.034  15.693 -0.1322 -0.3018 -0.0271
 7559W        W23820  13.947   4.356   5.112 -0.2105  0.0330 -0.0263
 7560W        W23821   8.355  14.163   1.434 -0.1743 -0.2398  0.2843
 7561W        W23822   9.802  14.022  16.082  0.0252 -0.1444 -0.0746
 7562W        W23823  15.307  13.640  12.771  0.1838  0.0422  0.3674
 7563W        W23824  13.800  18.280  13.077 -0.1423 -0.0129 -0.0557
 7564W        W23825   4.570   0.541  11.151 -0.1164 -0.0722  0.0169
 7565W        W23826  16.752  10.345   0.380  0.1567 -0.0240  0.1065
 7566W        W23827  11.083   9.786   0.051  0.1324 -0.0637 -0.1492
 7567W        W23828  12.419   1.371  13.394  0.1852 -0.2579 -0.2968
 7568W        W23829   2.684   4.407   2.589  0.3038 -0.1575  0.1600
 7569W        W23830  12.243  14.709  13.550 -0.1274  0.0542 -0.0947
 7570W        W23831   1.551   4.586  13.436  0.4620  0.0647  0.1495
 7571W        W23832   6.253   4.813   3.488  0.0496  0.1319  0.0878
 7572W        W23833  17.612  15.338  15.507  0.2638  0.1202 -0.0183
 7573W        W23834  17.346  13.839   5.139 -0.0866 -0.1724 -0.2276
 7574W        W23835   2.296  12.650  14.514  0.0024  0.0520  0.1355
 7575W        W23836  11.059   3.365   3.050  0.3182  0.3321  0.1870
 7576W        W23837  14.146   0.882  14.101  0.3052 -0.0800 -0.0843
 7577W        W23838   6.331  14.571  15.178  0.3660 -0.0090 -0.2277
 7578W        W23839   3.913   8.147  13.749  0.1682  0.1644 -0.0288
 7579W        W23840  15.941   9.608  12.725  0.0733  0.1975  0.2115
 7580W        W23841  13.648   7.440   3.842  0.2271  0.4372 -0.0744
 7581W        W23842   4.603   0.308  13.220 -0.1944 -0.4964 -0.3719
 7582W        W23843   1.831  11.055   0.185 -0.2809  0.3234 -0.2923
 7583W        W23844   9.853  16.202   2.902 -0.2752 -0.1915 -0.1098
 7584W        W23845   9.349  13.609   1.986 -0.1142 -0.0987 -0.2495
 7585W        W23846  17.591   8.030   1.851  0.2934 -0.0707 -0.0628
 7586W        W23847  12.851  12.070  15.126  0.3612 -0.1867  0.4439
 7587W        W23848  10.273  17.720  14.315 -0.2703 -0.0570 -0.0213
 7588W        W23849  17.353   0.689   2.006  0.4073  0.0232  0.0574
 7589W        W23850   2.566   5.485   4.029  0.1891 -0.0465 -0.1626
 7590W        W23851   3.150   7.862  15.826 -0.0010  0.1586  0.0946
 7591W        W23852   3.364   9.501   0.204 -0.1615  0.1315  0.1482
 7592W        W23853   4.835  13.871   4.953 -0.7366 -0.2609 -0.0438
 7593W        W23854  14.147  11.133   3.922  0.2970  0.1932  0.3910
 7594W        W23855  16.632   2.734  15.477 -0.1167 -0.1087  0.3312
 7595W        W23856  17.889   0.458   6.078 -0.0437  0.1239 -0.0225
 7596W        W23857  17.843  13.469   2.460 -0.1511 -0.1545  0.0061
 7597W        W23858  10.968   2.357   3.087  0.1410  0.4514  0.0342
 7598W        W23859   6.537   0.235   2.463  0.0983  0.3246  0.2936
 7599W        W23860  12.299  14.096   5.912  0.3574 -0.1093  0.2019
 7600W        W23861   0.192   1.406  15.046 -0.0195 -0.0303 -0.2230
 7601W        W23862  16.255   1.092   3.860  0.1841 -0.1403 -0.2184
 7602W        W23863  11.191   1.703   4.126 -0.1991 -0.0900  0.3337
 7603W        W23864   9.710  14.428  12.738 -0.3313  0.2993 -0.2027
 7604W        W23865   8.671   9.632   3.111 -0.2476 -0.1723  0.2785
 7605W        W23866  13.791   4.404   4.189 -0.1049  0.0748 -0.1395
 7606W        W23867   7.279   7.513  13.789 -0.2047 -0.1861 -0.1725
 7607W        W23868   2.872  15.860   1.295  0.1164  0.0198 -0.1396
 7608W        W23869   5.790  18.291  14.925 -0.0036  0.1276  0.0531
 7609W        W23870   3.687   7.438   5.562  0.1933  0.0629  0.0336
 7610W        W23871  16.622   5.069   5.855 -0.0696 -0.3053 -0.1855
 7611W        W23872  13.769   5.744  13.401  0.2196 -0.2999 -0.0512
 7612W        W23873  10.085   9.485   5.305 -0.1234  0.0099  0.0695
 7613W        W23874  12.886   0.604   5.002 -0.0778 -0.3674  0.0359
 7614W        W23875  17.230  13.176  13.651  0.2258 -0.2666 -0.0094
 7615W        W23876   7.560   6.550   3.293  0.0952 -0.2553  0.1102
 7616W        W23877   6.093  14.027  11.596  0.0600 -0.4230 -0.0825
 7617W        W23878  17.262   5.195  12.302 -0.3920  0.3442 -0.0102
 7618W        W23879   3.365   6.359   4.697 -0.0863 -0.2039  0.1012
 7619W        W23880  17.748   6.800  15.364  0.3950  0.2339  0.1505
 7620W        W23881  13.572   7.680  12.419  0.4851 -0.0671 -0.0883
 7621W        W23882   3.752   0.766  13.087  0.2387 -0.3349  0.1188
 7622W        W23883  11.933  15.652   3.213 -0.0778 -0.0339 -0.0322
 7623W        W23884   5.193   6.836   4.161 -0.0729 -0.2683  0.1253
 7624W        W23885   7.650   0.117   1.264  0.2736 -0.2536  0.3081
 7625W        W23886  11.556   8.038   4.536  0.2109  0.2825  0.1140
 7626W        W23887  10.355   0.112   0.443 -0.1942  0.2834  0.1120
 7627W        W23888   0.014  14.392   1.468 -0.0978 -0.1084  0.0037
 7628W        W23889   4.537   4.241  12.459  0.0213 -0.1820  0.0561
 7629W        W23890   1.614  11.106   4.359 -0.2487 -0.0000  0.0113
 7630W        W23891   1.086  14.567  15.396 -0.0283 -0.0988  0.0175
 7631W        W23892  14.845   7.341  12.539 -0.3004 -0.0148  0.2187
 7632W        W23893  17.919  12.631   1.514 -0.3805 -0.1657  0.4289
 7633W        W23894   6.363  16.786   3.238 -0.1621  0.1929  0.0951
 7634W        W23895   6.955   1.538  14.412  0.1773  0.0113  0.0187
 7635W        W23896   6.849   6.272  12.249  0.1539  0.0654 -0.1047
 7636W        W23897  14.236   5.017   3.003 -0.1712  0.2362 -0.1872
 7637W        W23898   1.242   7.498  12.832  0.1338  0.1331 -0.2477
 7638W        W23899  15.207  14.487  14.156 -0.1105 -0.1002 -0.0462
 7639W        W23900  17.385  10.052   1.345  0.0244  0.0761 -0.0404
 7640W        W23901   4.113  13.317  14.467 -0.1254 -0.4323  0.2826
 7641W        W23902  10.369  12.725   0.472 -0.2364  0.0377 -0.1194
 7642W        W23903  10.069  16.243  13.601  0.0974  0.0395 -0.0914
 7643W        W23904  15.371  14.785  15.109 -0.3561  0.3581 -0.1660
 7644W        W23905   2.727  14.536   3.155  0.4268 -0.2007  0.0325
 7645W        W23906  15.535   5.052  10.538 -0.2205  0.2493 -0.0298
 7646W        W23907   4.938   6.226  14.443 -0.0151 -0.3211 -0.1373
 7647W        W23908  14.712  17.990   2.584  0.3353  0.0535  0.1559
 7648W        W23909  10.854   5.906   5.418  0.1448 -0.3302 -0.2121
 7649W        W23910  17.111   3.290   1.921  0.5267 -0.1898 -0.0631
 7650W        W23911   2.361  15.213  15.336  0.0609  0.2887  0.0787
 7651W        W23912   2.843  14.584   5.426 -0.0022 -0.1560 -0.1112
 7652W        W23913   5.694   6.126  12.817  0.4433  0.2905 -0.0234
 7653W        W23914   3.834  15.876  11.231  0.3430 -0.1911  0.1546
 7654W        W23915  12.442  17.102   2.606  0.2281 -0.3078  0.2447
 7655W        W23916  18.246   8.752  13.657 -0.1782  0.3193 -0.1099
 7656W        W23917   2.704   5.019   5.715  0.0815  0.0424  0.2832
 7657W        W23918  14.930   9.626  12.084 -0.3527  0.0367  0.3454
 7658W        W23919   0.807   3.313   3.463  0.3771 -0.2404  0.3067
 7659W        W23920   0.480  12.496  13.738  0.1665 -0.2093 -0.1619
 7660W        W23921  14.517  15.996  13.567  0.1945  0.0903 -0.0829
 7661W        W23922  12.035  16.666  16.157  0.2471 -0.0226 -0.0676
 7662W        W23923   7.946  16.034   3.521  0.2849  0.1761 -0.0108
 7663W        W23924  15.103   0.842  12.195  0.0589  0.2407 -0.1436
 7664W        W23925   7.049   1.713   0.854 -0.2623 -0.2339 -0.0740
 7665W        W23926  10.288  14.421  12.979 -0.0784  0.1265 -0.0285
 7666W        W23927  15.924   6.529   2.182 -0.1694 -0.1340 -0.2238
 7667W        W23928   9.861  15.730   4.958 -0.3009 -0.0489  0.1405
 7668W        W23929   4.671   6.413   0.291  0.1743 -0.0106 -0.0478
 7669W        W23930  15.868   0.594   0.766  0.1423  0.1951 -0.1041
 7670W        W23931   2.229   7.462  15.492  0.5423 -0.1093  0.1673
 7671W        W23932  16.149  10.573   2.784  0.2270 -0.0754  0.1348
 7672W        W23933   8.356  14.836   3.501  0.0092 -0.1977 -0.2901
 7673W        W23934   2.501  12.023   1.670  0.2070  0.2459  0.0627
 7674W        W23935   7.383   5.305  14.178 -0.4089 -0.0494  0.1549
 7675W        W23936  15.498   2.155   1.861 -0.1625 -0.0350  0.1291
 7676W        W23937  17.778  12.662   4.561 -0.0718 -0.1243  0.3961
 7677W        W23938  14.682  11.185   5.559  0.0433  0.0134  0.0059
 7678W        W23939   6.222   2.510   4.235 -0.1010  0.1380  0.0226
 7679W        W23940   2.150  15.038  15.858 -0.2050 -0.1057  0.0463
 7680W        W23941  15.431   3.171  12.124 -0.2644  0.1351  0.0227
 7681W        W23942  16.530  14.468   1.172 -0.3715  0.1585 -0.0704
 7682W        W23943  15.669   9.542   4.270  0.1190  0.0767  0.0344
 7683W        W23944   0.737   3.446   2.460 -0.1154 -0.1091  0.1480
 7684W        W23945   3.673   2.234   3.173 -0.1040  0.0132  0.3427
 7685W        W23946  12.011   0.871  16.278  0.0610 -0.2573  0.0093
 7686W        W23947   3.114  18.309   2.023 -0.0050  0.2074 -0.0743
 7687W        W23948  13.863  14.517  11.644  0.0284  0.0889  0.0652
 7688W        W23949   6.138   7.201  12.966  0.2072 -0.1327 -0.1989
 7689W        W23950   5.136  13.993  12.239 -0.0044  0.0313  0.0277
 7690W        W23951  18.056   7.877   1.932 -0.0944  0.1825  0.1218
 7691W        W23952   9.769   9.408  12.899 -0.0780  0.0571 -0.1747
 7692W        W23953  16.018  17.843  11.575 -0.0803 -0.0291 -0.0684
 7693W        W23954   4.632   6.083   4.542 -0.1323  0.1364  0.0127
 7694W        W23955   6.614  12.827  15.599 -0.1637  0.0091  0.0792
 7695W        W23956   7.106  18.059   0.214 -0.1593  0.1382  0.0371
 7696W        W23957   0.118  18.356  13.843 -0.1840  0.2707  0.0759
 7697W        W23958  12.905   9.015  12.644  0.1108  0.0415 -0.2348
 7698W        W23959   8.450   6.380  15.938 -0.0739 -0.3407  0.1465
 7699W        W23960   7.475   3.732  16.075  0.2573 -0.0347  0.0445
 7700W        W23961  12.631   4.054  12.057  0.1596 -0.3194 -0.1760
 7701W        W23962  15.019  12.851   6.292  0.2303 -0.1865 -0.0163
 7702W        W23963  13.849  14.193   0.793  0.0159 -0.5702 -0.1704
 7703W        W23964   3.577  14.035  13.156 -0.0555 -0.0902 -0.5473
 7704W        W23965   7.252   0.160   0.447  0.0997  0.2991  0.0323
 7705W        W23966   2.664  10.404   1.013  0.0270 -0.2261 -0.0488
 7706W        W23967   7.814  11.811   3.586  0.0930 -0.0782 -0.0670
 7707W        W23968  15.647   2.227   2.475  0.0801  0.0829 -0.0982
 7708W        W23969  15.710  10.775   0.714 -0.1713  0.0113 -0.2999
 7709W        W23970   3.970   9.622   4.483  0.0290 -0.3299  0.0166
 7710W        W23971  11.859  11.795  14.186  0.0857 -0.1167  0.0802
 7711W        W23972   5.114  12.032   2.263  0.2011  0.1109 -0.2826
 7712W        W23973  12.505  12.889  12.553 -0.1376  0.1094  0.1346
 7713W        W23974   1.477  11.062  12.806 -0.0288 -0.2700  0.1006
 7714W        W23975   1.178  18.118  13.244 -0.3208 -0.3737  0.4227
 7715W        W23976   9.594  14.411   1.572 -0.2065  0.1619  0.3458
 7716W        W23977   6.836   4.634  15.718  0.1828 -0.2634  0.1079
 7717W        W23978  16.962   2.789   0.883  0.1512 -0.2246 -0.0275
 7718W        W23979  14.298  14.908   3.218 -0.2590 -0.1054 -0.1491
 7719W        W23980  13.345  16.902  13.933  0.0231  0.1431  0.3891
 7720W        W23981  10.380   6.318  11.561  0.2067  0.0472 -0.1734
 7721W        W23982   4.368  13.075   0.215  0.3587 -0.0452 -0.4667
 7722W        W23983   0.215  17.626   1.833 -0.0674 -0.0224  0.2353
 7723W        W23984  17.460   2.178  11.831 -0.1042  0.2699  0.0442
 7724W        W23985   1.668   5.659  12.946 -0.1612 -0.1798 -0.3523
 7725W        W23986  10.255  10.286   2.056  0.0545  0.2296  0.0629
 7726W        W23987   1.717  15.527  11.488  0.0197  0.0563 -0.2757
 7727W        W23988  17.809  11.892   0.994  0.2097 -0.0417 -0.2743
 7728W        W23989  15.964  12.923   2.970 -0.2741 -0.1778 -0.3493
 7729W        W23990   8.016  16.822   2.522  0.2157 -0.5404  0.1993
 7730W        W23991   9.328   3.962  13.846  0.0312  0.0688  0.4814
 7731W        W23992  12.245   7.320  12.798 -0.0598  0.2212 -0.1423
 7732W        W23993  13.042   7.808   1.667  0.3810 -0.0505  0.1388
 7733W        W23994   3.431   7.428   2.290 -0.0747 -0.1264  0.0078
 7734W        W23995  12.256  18.302   1.796 -0.2393 -0.0433 -0.0156
 7735W        W23996  14.827  10.899   2.796  0.1319 -0.0649 -0.0042
 7736W        W23997  17.018  15.041   4.772  0.1449  0.0897 -0.2453
 7737W        W23998  15.061  16.391   1.244 -0.1023  0.1990 -0.0996
 7738W        W23999  10.913   9.758   1.374  0.2412  0.0701 -0.1380
 7739W        W24000   7.750  10.895   2.264 -0.0799 -0.0363  0.2050
 7740W        W24001  17.702  10.723   5.799 -0.2603  0.3216 -0.0504
 7741W        W24002  17.006   7.936   2.221  0.2928 -0.0496  0.1775
 7742W        W24003   1.566  18.151   1.080 -0.1986  0.1080 -0.1277
 7743W        W24004  14.076   7.183   1.037 -0.6001 -0.1452 -0.0583
 7744W        W24005   2.302   6.038   1.849  0.0610 -0.2884 -0.0690
 7745W        W24006   2.937   9.615   5.633  0.0016  0.2196  0.0089
 7746W        W24007   3.011   6.802  13.003  0.0981  0.0433 -0.1741
 7747W        W24008  12.846  14.245  16.273 -0.1203  0.0933 -0.1616
 7748W        W24009  12.777  17.293  11.343 -0.0166 -0.0053  0.1549
 7749W        W24010  16.850  15.977   0.343  0.4800  0.0251 -0.0957
 7750W        W24011  13.833   0.926  13.585 -0.0251  0.0220 -0.3608
 7751W        W24012   6.730  15.581  12.526 -0.0825  0.0045 -0.0527
 7752W        W24013   0.661   2.509   2.268  0.0310  0.1980  0.2791
 7753W        W24014  15.132   5.185  11.590  0.2283 -0.0590 -0.1467
 7754W        W24015  18.267  17.885  12.592 -0.2034  0.1109 -0.3745
 7755W        W24016  12.066  11.280  11.724 -0.2376 -0.1778  0.0131
 7756W        W24017   8.816  12.748   3.214 -0.1756 -0.0539  0.2197
 7757W        W24018   5.035  17.674  15.014  0.0022 -0.2864 -0.0876
 7758W        W24019  11.778  12.649   0.203 -0.3732 -0.2494 -0.1309
 7759W        W24020   1.483   8.780   0.205  0.1325 -0.0575  0.0421
 7760W        W24021  12.813   7.420  12.378 -0.1931 -0.0829 -0.0862
 7761W        W24022  16.523   9.907   2.699 -0.0045  0.4043 -0.0098
 7762W        W24023   8.394  10.641  15.915  0.0580  0.1442  0.1487
 7763W        W24024   2.234   5.612  14.068 -0.1475 -0.2326 -0.2016
 7764W        W24025   9.800   7.031   1.957 -0.0430 -0.1993 -0.0364
 7765W        W24026   9.630  11.163   0.382 -0.0427 -0.0517  0.1406
 7766W        W24027  15.780   8.263   2.101 -0.1828  0.0864  0.0189
 7767W        W24028   4.968   7.435  16.186  0.1722 -0.1324 -0.0925
 7768W        W24029   0.308   6.547   2.907 -0.1387 -0.0428 -0.0343
 7769W        W24030   5.114  10.192  12.656  0.1949  0.1980  0.2329
 7770W        W24031   8.333   7.353  14.064 -0.1319 -0.1770  0.0476
 7771W        W24032   9.049   1.078  13.815  0.3874  0.1229  0.0452
 7772W        W24033   4.452   0.621   4.190 -0.3663 -0.0916  0.0941
 7773W        W24034  11.584  10.379  16.240  0.4713 -0.1208 -0.1582
 7774W        W24035   2.355   5.915   3.841  0.2020 -0.0238 -0.1145
 7775W        W24036  12.839  14.223  12.634  0.0151  0.2943  0.4440
 7776W        W24037  16.059   8.634  13.846  0.0546  0.0640 -0.0481
 7777W        W24038   6.217  17.082   2.869  0.2308  0.2551 -0.0359
 7778W        W24039  15.957   7.728  13.566  0.2816 -0.2162 -0.3279
 7779W        W24040  10.984  12.422   0.849 -0.0233 -0.1611  0.0020
 7780W        W24041   5.677  14.633  16.120  0.0918  0.1012 -0.1226
 7781W        W24042   2.347  15.993   6.473  0.1278 -0.0293 -0.1193
 7782W        W24043   4.877   1.729   4.650  0.0506 -0.1614 -0.0148
 7783W        W24044   6.130  17.849   6.001  0.3002 -0.0861 -0.0444
 7784W        W24045   1.031  11.587  14.853 -0.1251 -0.1118 -0.0178
 7785W        W24046   6.583  17.094   1.161  0.3412  0.2619  0.0915
 7786W        W24047   8.564  17.592   2.333  0.2637 -0.0614 -0.0440
 7787W        W24048  10.893   2.766   1.482  0.0880 -0.1168  0.3284
 7788W        W24049   6.637   5.070   3.223  0.2941 -0.0331  0.2499
 7789W        W24050   3.306   5.369   3.400  0.0457  0.2976 -0.1055
 7790W        W24051  14.175   4.318   2.038 -0.0822  0.1148  0.0270
 7791W        W24052  14.915  11.548   2.038 -0.1153  0.1123 -0.1442
 7792W        W24053   2.965  15.475   0.267 -0.0580  0.0827 -0.1214
 7793W        W24054   5.723   8.519   2.630  0.1081  0.1414 -0.1640
 7794W        W24055  11.940   4.266   4.493 -0.0141 -0.1436  0.0833
 7795W        W24056  15.054  16.579  12.436 -0.1769 -0.2272 -0.1348
 7796W        W24057  10.341  11.000   4.105  0.1542 -0.1857  0.0184
 7797W        W24058  12.436   3.158   4.794  0.0684 -0.1314 -0.2234
 7798W        W24059   9.161  12.280  13.219  0.0651  0.1624  0.0733
 7799W        W24060   6.370   0.284   3.445 -0.0564 -0.0888  0.2236
 7800W        W24061  11.911  14.111  14.180  0.1138  0.2087 -0.1527
 7801W        W24062   3.474   0.660  12.676 -0.0729  0.3140 -0.1813
 7802W        W24063  11.711   8.227  15.677  0.0211 -0.0030 -0.0673
 7803W        W24064   5.279  16.773  12.475 -0.0167 -0.0661 -0.3070
 7804W        W24065   1.878  16.340  11.765 -0.1183 -0.1050  0.0922
 7805W        W24066  17.632  17.307  12.846 -0.0584 -0.0261 -0.1229
 7806W        W24067   7.552   0.630   0.568 -0.1080  0.5648 -0.0919
 7807W        W24068   9.347  17.161  11.899  0.1510 -0.2145 -0.0400
 7808W        W24069   1.612  16.788   3.796  0.0007  0.1509 -0.2591
 7809W        W24070   8.048   0.577   0.740 -0.1330  0.1577 -0.3032
 7810W        W24071   7.454   4.066  11.498 -0.0065  0.0680  0.2621
 7811W        W24072  13.535  16.453   5.388  0.0258  0.1298  0.3639
 7812W        W24073  14.114   6.011   0.752  0.0994  0.0634  0.3959
 7813W        W24074  11.896  14.676  15.745  0.0918 -0.0326 -0.0794
 7814W        W24075  14.329   1.225   0.233  0.0676 -0.1206  0.1997
 7815W        W24076   3.184   9.182   3.947 -0.2155 -0.0478 -0.0886
 7816W        W24077   2.615   5.173   1.544  0.2654 -0.0230 -0.4009
 7817W        W24078  17.428  14.357   2.639  0.2126  0.1766  0.3644
 7818W        W24079   3.125   1.129   0.752 -0.1036 -0.0853 -0.0325
 7819W        W24080   8.415  14.404  13.069 -0.3393 -0.2800  0.0201
 7820W        W24081   7.737  14.072  16.083 -0.1910 -0.2797 -0.1354
 7821W        W24082   3.032   8.974   4.427  0.0110  0.0396  0.3299
 7822W        W24083   6.283  14.605  11.096 -0.2035  0.1215 -0.1164
 7823W        W24084  12.819  10.301   9.967 -0.0979 -0.0406  0.1609
 7824W        W24085  13.131  10.580  15.657  0.2987 -0.0849  0.2749
 7825W        W24086   3.850  10.058  11.736  0.0500 -0.0343 -0.0398
 7826W        W24087  16.334  16.054   1.878  0.1143 -0.2132  0.1608
 7827W        W24088  13.498   6.544   2.404  0.0137  0.1253  0.2261
 7828W        W24089   9.618  16.553   3.130  0.1911 -0.0442 -0.0275
 7829W        W24090  17.678   6.823   3.033 -0.2672  0.2608  0.0018
 7830W        W24091  17.669   3.892   4.931  0.2509 -0.0629 -0.3434
 7831W        W24092   6.541   8.620   2.751 -0.0283  0.2027  0.2677
 7832W        W24093   8.264   5.700   3.717 -0.0391 -0.1416  0.0187
 7833W        W24094  14.908   3.169  11.900 -0.1293  0.1547 -0.0600
 7834W        W24095   9.054   9.254   0.976  0.1912  0.1314  0.0245
 7835W        W24096   6.226   4.266   3.684 -0.2167  0.1551 -0.1175
 7836W        W24097  16.192  12.040  12.433 -0.0648  0.3234  0.1983
 7837W        W24098  16.132   6.441  12.107  0.1836  0.2046 -0.0823
 7838W        W24099   6.067  15.804  16.120  0.0967  0.0193  0.0058
 7839W        W24100  11.321   3.639   0.616  0.0263 -0.1149 -0.1367
 7840W        W24101   0.810   3.659  13.486 -0.1100  0.0377  0.2578
 7841W        W24102   1.344  13.605  15.050 -0.2135  0.1242  0.2809
 7842W        W24103  13.060   1.765   0.294  0.0977  0.0226  0.0593
 7843W        W24104   2.032  15.210   1.730 -0.2742  0.1387  0.3419
 7844W        W24105   4.376   2.788   5.373 -0.0958 -0.1458  0.2269
 7845W        W24106  15.832   1.609   6.432 -0.0142 -0.3452 -0.1050
 7846W        W24107  13.913   0.911   1.223 -0.1556 -0.3070 -0.1605
 7847W        W24108  15.946  18.019   2.957 -0.0083 -0.0259 -0.2163
 7848W        W24109   4.375   1.381   2.265  0.0331 -0.0536  0.4968
 7849W        W24110   7.800   6.553   2.829 -0.1959  0.3948  0.0313
 7850W        W24111  11.492  18.064  14.632 -0.1448  0.1472  0.2638
 7851W        W24112   3.406   3.781   3.328  0.0281  0.2901 -0.2748
 7852W        W24113  14.281  14.558  11.319  0.2308 -0.0630  0.0425
 7853W        W24114   9.813  11.024   4.265  0.3424  0.0736 -0.1390
 7854W        W24115   8.393   8.971   3.815 -0.1792  0.1396  0.2328
 7855W        W24116  12.864  12.644   5.375  0.2186 -0.1371 -0.0702
 7856W        W24117   9.094  12.398   3.466  0.0231  0.3984 -0.0790
 7857W        W24118  13.846  10.870  15.507 -0.2201 -0.0753  0.1964
 7858W        W24119   4.943  14.851   2.066  0.0681 -0.1911 -0.0132
 7859W        W24120  17.880   0.322   0.652 -0.0571 -0.1699  0.3169
 7860W        W24121   9.436  12.399  12.033 -0.1534  0.1482 -0.3732
 7861W        W24122   9.914   3.715  13.437  0.0017  0.0177  0.0381
 7862W        W24123   6.871  16.748  14.106 -0.0195  0.0846  0.1371
 7863W        W24124  15.410   7.774  11.263  0.1339 -0.1773 -0.3482
 7864W        W24125   3.329  13.576   4.916 -0.2152  0.1891  0.2082
 7865W        W24126   1.590  13.973   5.427  0.1008 -0.3957 -0.0155
 7866W        W24127   5.770  15.226  13.367 -0.0554  0.1445  0.0709
 7867W        W24128   5.488   8.989   0.182  0.0013 -0.0557  0.0295
 7868W        W24129  12.327   8.275  10.146 -0.0257 -0.0738 -0.2603
 7869W        W24130   1.752   0.916   2.195 -0.3940  0.3149  0.1105
 7870W        W24131  17.665   0.776   3.784  0.4305  0.1038  0.0964
 7871W        W24132  12.653  15.740  12.798 -0.1513  0.0364  0.0160
 7872W        W24133  18.325  17.558  11.670  0.4302  0.1262 -0.4055
 7873W        W24134   6.382   6.923  14.732 -0.0961 -0.1815  0.0989
 7874W        W24135   0.336  15.842   0.102 -0.2210 -0.0651  0.0692
 7875W        W24136  15.583  14.949  12.794 -0.5016  0.1277 -0.3617
 7876W        W24137   5.085   7.309  13.792  0.5357 -0.3832  0.0373
 7877W        W24138   3.574  17.353   3.129  0.3898 -0.2321  0.0616
 7878W        W24139   3.282  11.218  15.147 -0.0503  0.0182  0.0083
 7879W        W24140   1.844  18.303  13.482 -0.1242 -0.4134  0.0323
 7880W        W24141   7.705   0.956  13.912  0.4601 -0.1147  0.1423
 7881W        W24142   7.974  14.314  10.656  0.0721 -0.1442 -0.0758
 7882W        W24143  10.747  11.134  15.329 -0.1780  0.0058  0.1209
 7883W        W24144  10.219  10.336  15.761 -0.3067 -0.0946 -0.0984
 7884W        W24145  11.954  14.198  15.457 -0.2875 -0.0880  0.1951
 7885W        W24146  10.025  11.950   2.471  0.1794 -0.0316  0.1678
 7886W        W24147   0.594  17.734  13.945 -0.0269  0.1622 -0.0305
 7887W        W24148  17.713   9.337  12.004  0.2530  0.1312 -0.3093
 7888W        W24149   7.617   7.526  11.265 -0.0447  0.2344 -0.0205
 7889W        W24150   3.110   8.471   4.220  0.2882  0.1015 -0.3056
 7890W        W24151  15.845  11.590  16.072 -0.1235 -0.1555  0.2626
 7891W        W24152  18.249  18.092   1.458  0.0417  0.1927  0.1847
 7892W        W24153  15.115   1.586   5.824 -0.0903 -0.0732 -0.0566
 7893W        W24154   0.894   9.037   2.626  0.2133 -0.1698  0.4067
 7894W        W24155   3.450  14.335  13.585 -0.1805 -0.1685  0.1557
 7895W        W24156  13.400  11.556  12.372  0.1345  0.1267 -0.0379
 7896W        W24157   1.962  11.704  16.273 -0.1863  0.0758 -0.0128
 7897W        W24158   4.099   8.449   3.284 -0.0797 -0.2469 -0.0434
 7898W        W24159  11.253   3.620  15.195 -0.1939 -0.2752  0.2258
 7899W        W24160   0.464   1.147   4.052  0.0938  0.2600 -0.0736
 7900W        W24161  17.174  12.688   5.121 -0.0852 -0.0569  0.0511
 7901W        W24162  17.093   6.090   0.083 -0.0602  0.1939  0.0974
 7902W        W24163   0.537   2.644  13.397  0.4016  0.0060  0.0566
 7903W        W24164   5.904   8.883  15.534  0.0644  0.1416 -0.1933
 7904W        W24165  18.347   2.558   3.758 -0.0156 -0.1052  0.2226
 7905W        W24166   3.326  17.049   0.031  0.1877  0.1626  0.1407
 7906W        W24167  15.864   7.208  15.402 -0.0810  0.0537 -0.2401
 7907W        W24168  15.844   9.126  12.281  0.2953 -0.0892  0.0260
 7908W        W24169  16.492   4.661   2.978  0.1709  0.1600 -0.1107
 7909W        W24170   8.108   7.718   2.250 -0.1405  0.0270  0.0698
 7910W        W24171  16.579  16.534   4.256  0.0304  0.1667 -0.2184
 7911W        W24172   2.905  14.333   3.628  0.2029  0.2377 -0.1235
 7912W        W24173   0.044   8.983  16.245  0.2245  0.0175 -0.2053
 7913W        W24174  12.119   3.251  15.914  0.1304  0.0202 -0.1073
 7914W        W24175   9.884  16.910  15.382 -0.0460  0.0947  0.1071
 7915W        W24176   4.243   2.474   3.859 -0.3012 -0.2644  0.2222
 7916W        W24177   7.151  10.480  14.509 -0.1545 -0.0335 -0.0670
 7917W        W24178   7.534   3.790  14.862  0.2716  0.0889  0.0248
 7918W        W24179  10.305   6.243  13.459 -0.1981  0.1562 -0.1563
 7919W        W24180   2.452   6.609   1.440  0.0400 -0.0381 -0.1806
 7920W        W24181  14.673  11.029  14.513 -0.0451 -0.1510 -0.2015
 7921W        W24182   5.520   8.801   4.024  0.1578  0.1595  0.1031
 7922W        W24183  12.557   8.083  16.010 -0.0889 -0.2260  0.3433
 7923W        W24184  13.312   9.625   1.389  0.1357  0.1113 -0.0573
 7924W        W24185  15.986  14.335   4.176  0.2768 -0.1745  0.0097
 7925W        W24186  14.845   0.598   0.952  0.0711  0.0761 -0.2263
 7926W        W24187  17.690  12.427   1.128  0.1804 -0.2383  0.0442
 7927W        W24188  13.760  11.910  16.180 -0.0459  0.2837 -0.3040
 7928W        W24189  12.015  11.961   3.044 -0.1443 -0.2891  0.2823
 7929W        W24190   9.072  18.373  14.395  0.2043  0.4347 -0.2601
 7930W        W24191   8.702   7.385   5.428 -0.0590 -0.1069  0.0601
 7931W        W24192   3.992  14.229   2.537 -0.0632 -0.1241  0.0129
 7932W        W24193   5.559  16.635  14.709  0.0510  0.1184  0.4632
 7933W        W24194  10.534   0.713  11.923  0.1497 -0.0930  0.0623
 7934W        W24195   7.972   8.220   3.990  0.0626  0.0301  0.2777
 7935W        W24196  18.005   8.499   1.370  0.0881  0.0558  0.1300
 7936W        W24197   6.391  12.989   1.872 -0.2879 -0.1107  0.2507
 7937W        W24198  11.018   0.544   3.442 -0.2031 -0.2837 -0.1504
 7938W        W24199   8.446  11.883   1.045  0.0677  0.0150  0.2197
 7939W        W24200   8.917  14.703  12.985 -0.1153  0.0425  0.2468
 7940W        W24201   7.146  12.660  15.483  0.2241 -0.3066  0.3754
 7941W        W24202  11.799  14.610  12.080  0.2253 -0.1042  0.2918
 7942W        W24203   2.912  12.164   2.588  0.0064 -0.0903  0.3880
 7943W        W24204   2.845   8.100  12.743 -0.2391 -0.2577 -0.2570
 7944W        W24205  16.259  13.462   0.754 -0.2140 -0.3297  0.0008
 7945W        W24206  13.359   6.267  14.056 -0.1957  0.2453  0.3285
 7946W        W24207   4.132  10.245   5.970 -0.2083 -0.4635  0.1522
 7947W        W24208  15.232   2.286   0.347 -0.1986 -0.0563 -0.1614
 7948W        W24209   8.098  11.616  12.403  0.0415  0.0083 -0.1110
 7949W        W24210   7.257  14.802  13.758  0.4389 -0.0907  0.1640
 7950W        W24211   3.401  12.957   0.623  0.6476 -0.2091  0.1690
 7951W        W24212  17.652  12.048  11.792  0.3873 -0.0544 -0.1041
 7952W        W24213   7.044   2.343  16.157 -0.2069 -0.0728  0.1231
 7953W        W24214   4.178  15.335  12.047 -0.1147 -0.0735 -0.2610
 7954W        W24215  10.202  10.172  11.422  0.0356 -0.1171 -0.2025
 7955W        W24216  15.176   8.053  12.073  0.0524 -0.1480  0.0588
 7956W        W24217  18.250   3.828  15.490 -0.2111  0.1340 -0.2159
 7957W        W24218   4.394   6.287  12.766 -0.0546  0.1027  0.0517
 7958W        W24219  16.274  15.977   0.361  0.3142 -0.0601 -0.0150
 7959W        W24220   5.461  15.287   0.977  0.2034 -0.2031 -0.1369
 7960W        W24221  12.135  10.128   0.950 -0.0463  0.1733 -0.3313
 7961W        W24222   2.077   6.496  15.694  0.1426  0.1202 -0.0181
 7962W        W24223  16.458   1.387   3.172 -0.1029  0.1921  0.0536
 7963W        W24224   6.175  16.704   5.783  0.3271 -0.1846 -0.0234
 7964W        W24225   1.650  16.582  13.008 -0.0739  0.1453 -0.2710
 7965W        W24226  17.460  11.851  14.635 -0.1014  0.0136  0.0276
 7966W        W24227   7.391  12.150   3.993 -0.0610  0.3190  0.1352
 7967W        W24228   3.508  13.083  15.343 -0.0457 -0.2274 -0.0284
 7968W        W24229   8.492  14.309   2.928  0.0605 -0.0473  0.3151
 7969W        W24230  12.073   9.647  12.692 -0.1215  0.3788  0.2268
 7970W        W24231  14.362  13.477  15.602 -0.0638  0.2865  0.1036
 7971W        W24232  13.558   1.456   1.244  0.2512 -0.1778  0.3825
 7972W        W24233   1.155  10.197   0.076 -0.1874 -0.3725 -0.0807
 7973W        W24234   9.511   4.088  11.640  0.0629  0.0208  0.1035
 7974W        W24235   2.053   7.687  16.088 -0.1633 -0.0357 -0.0444
 7975W        W24236   6.500   1.182   2.239 -0.0329 -0.0333 -0.0599
 7976W        W24237  13.818  12.614  13.271 -0.0130 -0.0212  0.0071
 7977W        W24238   7.707  15.655   2.131 -0.2971 -0.0731  0.1353
 7978W        W24239   7.165  18.231  12.574 -0.1322  0.2357 -0.4020
 7979W        W24240   0.791  12.310   5.019  0.1155 -0.1339 -0.1189
 7980W        W24241   7.614   9.554   2.957  0.2583 -0.0846  0.0548
 7981W        W24242   4.145   1.520  14.092  0.0014  0.1512  0.2632
 7982W        W24243  11.232   9.724  12.473 -0.0291 -0.1848  0.2111
 7983W        W24244  12.112  16.354   1.533  0.0863 -0.1811 -0.1385
 7984W        W24245  16.459   2.750  15.988  0.0501 -0.1982 -0.0402
 7985W        W24246  18.056   2.955   3.984  0.0877 -0.1128  0.0162
 7986W        W24247  12.043  18.134  13.482  0.1867  0.2142 -0.1307
 7987W        W24248  17.983  18.318  14.724 -0.0295 -0.1423 -0.0810
 7988W        W24249  12.002   1.632  15.011  0.0203 -0.1897  0.0776
 7989W        W24250  16.884  18.326  13.200 -0.1121 -0.2198  0.1715
 7990W        W24251   3.469  13.085  13.673  0.1344  0.1225 -0.1283
 7991W        W24252  12.651  13.625   1.869  0.1377  0.0048  0.1316
 7992W        W24253   4.843   4.712  12.999 -0.0806  0.1356 -0.0810
 7993W        W24254   6.298   9.598   0.487 -0.0825 -0.1070  0.4370
 7994W        W24255  14.269  12.180   4.961 -0.1107 -0.0866  0.1289
 7995W        W24256   0.806   2.308  14.520 -0.1990 -0.1855 -0.1052
 7996W        W24257   9.993   1.180  15.187 -0.0629  0.3885 -0.1723
 7997W        W24258  18.371   9.900   2.961 -0.0124 -0.2842 -0.2577
 7998W        W24259  15.736  11.258   1.615  0.0406 -0.0426 -0.3223
 7999W        W24260   2.698   6.359   1.917 -0.2783 -0.2033  0.0559
 8000W        W24261  12.681  11.140   2.293 -0.3021 -0.4468  0.1839
 8001W        W24262   7.247   5.298   3.897  0.1107  0.2875  0.2697
 8002W        W24263   9.782   6.225  14.300  0.1075  0.1150  0.0201
 8003W        W24264  12.317  10.381  13.906  0.0365 -0.3286  0.0618
 8004W        W24265   3.836  17.257   4.841  0.3568 -0.0724 -0.1182
 8005W        W24266   3.835  12.985   1.906  0.0513 -0.0967 -0.2381
 8006W        W24267   0.083   4.920   2.501 -0.0412 -0.2543 -0.0075
 8007W        W24268  17.748   8.459   2.750 -0.0137  0.1212  0.0739
 8008W        W24269  11.985   4.636  13.380  0.3436 -0.4988 -0.0535
 8009W        W24270   6.632  15.452  14.317  0.3375 -0.4417 -0.0937
 8010W        W24271  17.661   2.763   3.688  0.0592 -0.1372  0.1718
 8011W        W24272   3.007   0.496   4.595 -0.0182 -0.1184 -0.1091
 8012W        W24273  11.815   5.936  12.263  0.1387 -0.1947  0.1128
 8013W        W24274  13.054   8.300  13.972 -0.2061  0.1990  0.1655
 8014W        W24275   1.720  10.165  15.329 -0.0555 -0.0113 -0.3174
 8015W        W24276  14.850  14.567  14.890  0.2237  0.2180 -0.1906
 8016W        W24277   6.168   9.648  14.182  0.0750 -0.0823  0.5755
 8017W        W24278   8.473  15.472  12.914  0.0864 -0.0054 -0.1938
 8018W        W24279   5.786  11.493   1.688 -0.0928 -0.0610 -0.1170
 8019W        W24280  14.192  13.016  15.672  0.4272 -0.4349  0.1255
 8020W        W24281   6.781  12.487  14.029 -0.3116 -0.1538  0.0191
 8021W        W24282   3.160   1.792   4.567 -0.2929  0.0032 -0.1364
 8022W        W24283   9.972  14.410   2.159 -0.3698  0.0764 -0.1261
 8023W        W24284  17.354  11.908  13.644  0.2242 -0.0176  0.0818
 8024W        W24285   7.027  17.931   0.674  0.3295 -0.1068  0.1774
 8025W        W24286   4.494   5.417   1.399  0.1924 -0.1818  0.0919
 8026W        W24287   7.693  13.085   0.008  0.0978 -0.1849 -0.0544
 8027W        W24288   6.514  11.565   4.816 -0.0856  0.3314 -0.0810
 8028W        W24289  12.381   0.223   3.220  0.3224 -0.0171  0.0792
 8029W        W24290  14.698  12.155   3.939 -0.0031 -0.1677 -0.1551
 8030W        W24291   4.806   2.690  14.034 -0.0402  0.0988  0.0477
 8031W        W24292   4.703  16.307   6.024 -0.0892  0.1918 -0.1133
 8032W        W24293  13.864   6.302   1.091  0.0525  0.0600  0.0074
 8033W        W24294  11.805   5.772   5.362 -0.1708  0.1052  0.0488
 8034W        W24295  16.797  12.422   5.469  0.6387 -0.2191 -0.1709
 8035W        W24296  11.389  12.801   0.683  0.1138  0.0686  0.0100
 8036W        W24297   7.772   6.332  15.544 -0.0821 -0.1865  0.0995
 8037W        W24298   6.895  17.869  13.577  0.1003  0.0703  0.1564
 8038W        W24299  15.401   6.364   0.568  0.0694  0.0586  0.0695
 8039W        W24300   0.376  18.007  12.688  0.1671  0.3037 -0.3043
 8040W        W24301   3.780  11.406   1.720 -0.1421 -0.0316 -0.2611
 8041W        W24302   3.434   2.688  11.979 -0.1549 -0.0630  0.0714
 8042W        W24303   5.674   9.755   0.339  0.2793 -0.0801  0.0047
 8043W        W24304   4.927   5.190  15.389  0.0046  0.0313 -0.1539
 8044W        W24305  13.474  16.049   2.374  0.1894  0.0833 -0.1093
 8045W        W24306  12.773  10.270   4.981 -0.1075 -0.0105  0.1609
 8046W        W24307  15.555   3.560  15.845 -0.3699  0.1936  0.0445
 8047W        W24308   2.250  12.231   2.146  0.0623  0.1090 -0.1194
 8048W        W24309   1.389  13.817   4.082 -0.1969  0.0751  0.0600
 8049W        W24310   3.561  10.784   2.245 -0.1611 -0.2349  0.2708
 8050W        W24311  12.579  12.418   2.897  0.0739 -0.2006  0.1595
 8051W        W24312   6.295   0.134  11.387  0.0526 -0.2325  0.0856
 8052W        W24313   9.758   3.282  13.127 -0.2776  0.1726 -0.1977
 8053W        W24314   6.943   0.479  14.448 -0.0134 -0.0897 -0.1428
 8054W        W24315   6.167  17.853   5.062 -0.2463  0.1647  0.0519
 8055W        W24316   8.759  11.109   1.868 -0.0929 -0.2751 -0.3374
 8056W        W24317  10.229  15.063   2.497  0.0120 -0.0147  0.3299
 8057W        W24318  11.433   9.540  15.000  0.1085  0.0911  0.1167
 8058W        W24319  13.856   0.358   5.109 -0.2121  0.1072  0.2815
 8059W        W24320  16.571   6.786   0.317 -0.1729 -0.1840 -0.1548
 8060W        W24321   6.649  16.440   3.117  0.0833  0.2616  0.1368
 8061W        W24322   3.538  10.909  12.942 -0.2311 -0.0748  0.1424
 8062W        W24323   4.101  13.642   2.288 -0.1974  0.1759  0.0453
 8063W        W24324   1.906   2.886   1.128 -0.2271 -0.2323  0.2931
 8064W        W24325  14.605  10.329   2.705 -0.0906 -0.0680 -0.2244
 8065W        W24326   4.121   0.228   3.044  0.3182  0.1175 -0.5230
 8066W        W24327   9.063   1.931  15.591  0.3871 -0.0641  0.1153
 8067W        W24328   2.901   3.849   1.247 -0.0945  0.1290  0.1322
 8068W        W24329  12.488   5.529   3.050 -0.0583 -0.0568  0.0417
 8069W        W24330   3.674  14.847   3.612  0.0068  0.2304 -0.0338
 8070W        W24331   9.501   1.964  14.696  0.2795 -0.2284  0.3259
 8071W        W24332  10.379  13.259  15.854  0.1835 -0.1834 -0.2794
 8072W        W24333  10.396   1.345  12.637 -0.0370 -0.1947  0.1574
 8073W        W24334   7.756   0.217   0.281  0.0245  0.0500  0.1031
 8074W        W24335  13.397   9.343   3.880  0.0582 -0.1818  0.1028
 8075W        W24336  18.075  16.299   3.046 -0.1371 -0.1182 -0.2833
 8076W        W24337  18.072   1.931   3.404 -0.0388 -0.0799  0.3645
 8077W        W24338  13.492  16.188   3.247  0.1562 -0.1079  0.1048
 8078W        W24339   8.502  11.133   4.464 -0.0538 -0.2001  0.0363
 8079W        W24340  10.559  17.333   0.815 -0.1384 -0.0284  0.3889
 8080W        W24341   7.637  11.974   2.968  0.0443  0.4025 -0.0914
 8081W        W24342  17.352   4.124   5.809 -0.1707 -0.0107  0.0485
 8082W        W24343  13.393  15.158   3.330  0.2013  0.0835 -0.0438
 8083W        W24344  17.885   9.311   0.755  0.4560 -0.0678 -0.1871
 8084W        W24345   1.086  17.063  15.831 -0.1966 -0.0962 -0.2371
 8085W        W24346  15.447  11.106  11.435 -0.0343 -0.0567  0.1064
 8086W        W24347   0.682   7.892  13.492  0.3611 -0.1270  0.0752
 8087W        W24348   5.272   1.164   5.132 -0.2323 -0.1577 -0.2290
 8088W        W24349   2.642   8.700   4.394  0.1886  0.0555  0.1361
 8089W        W24350   0.233  12.284  15.301 -0.0124  0.2386  0.0991
 8090W        W24351  16.793   0.775   1.050  0.0421  0.1248  0.0416
 8091W        W24352   1.146  11.363   2.887  0.3068 -0.0783  0.2285
 8092W        W24353  14.548   4.966   1.175  0.0160 -0.1401 -0.1051
 8093W        W24354   7.108   8.080   2.243  0.1335  0.0249  0.1947
 8094W        W24355  16.188  13.509  14.569 -0.1934 -0.0698  0.1441
 8095W        W24356   0.315   6.712   0.207  0.0754  0.2303 -0.0783
 8096W        W24357  18.223   6.662  15.338 -0.0949 -0.1714  0.2110
 8097W        W24358  18.182  12.387  11.940 -0.0719  0.2143  0.2235
 8098W        W24359   7.542   0.818  11.767  0.0718  0.1723 -0.0609
 8099W        W24360  13.537  10.081  13.944  0.0320  0.1926  0.2377
 8100W        W24361  10.826  15.293   0.876 -0.2800  0.0124  0.1197
 8101W        W24362   4.555  11.526   5.631  0.1814 -0.3310  0.2819
 8102W        W24363   5.802   4.192   5.042  0.1180  0.3011 -0.3863
 8103W        W24364  14.522   6.566   4.452 -0.0048  0.3519 -0.3486
 8104W        W24365   5.404  16.807   0.681 -0.1667  0.1055  0.0153
 8105W        W24366  14.851   0.370  12.332 -0.1167 -0.1000  0.1005
 8106W        W24367   8.433   8.077   1.957 -0.2912 -0.0274 -0.0385
 8107W        W24368   4.135   5.077  16.020  0.0152 -0.1472  0.1273
 8108W        W24369   2.301   1.552   0.054 -0.0426  0.0401  0.1228
 8109W        W24370  13.626  11.078   1.317 -0.3989  0.0978 -0.0850
 8110W        W24371   1.178   0.633   4.980 -0.1956 -0.1187 -0.1338
 8111W        W24372  12.943  18.014  14.047 -0.1647  0.1373  0.0056
 8112W        W24373   6.901  16.377  15.025  0.0099 -0.1193  0.0693
 8113W        W24374  10.652  11.412  11.891  0.0816 -0.0981 -0.2299
 8114W        W24375  18.083  14.498   0.009  0.2853  0.1609  0.2655
 8115W        W24376  11.113  11.200  11.168 -0.1407  0.0018 -0.1168
 8116W        W24377   9.595   3.367   5.152 -0.2377 -0.1957  0.1295
 8117W        W24378   4.573   6.566  11.424  0.2377 -0.0101 -0.1394
 8118W        W24379  15.765   4.519  15.756 -0.0701 -0.1233  0.0719
 8119W        W24380  10.200  10.419  13.368  0.2517  0.0236  0.0678
 8120W        W24381  12.438   7.344  13.627  0.2660  0.0776 -0.1365
 8121W        W24382  10.607   9.169  13.766 -0.2181  0.2172  0.1914
 8122W        W24383   4.409  12.071  12.189  0.1469  0.2995  0.2365
 8123W        W24384  13.305   7.479   3.432 -0.0425 -0.3674 -0.0382
 8124W        W24385   1.294   0.611   0.889  0.2840 -0.0543  0.0360
 8125W        W24386  11.243   1.538  14.603 -0.1742 -0.0800 -0.1229
 8126W        W24387   7.575  10.386  12.400 -0.1384 -0.1818  0.0804
 8127W        W24388  15.981   4.398   3.891 -0.5609  0.0625 -0.2154
 8128W        W24389  13.557  13.632   3.809  0.3557 -0.1452 -0.0839
 8129W        W24390   4.296   8.603   5.327  0.0908  0.1374 -0.1245
 8130W        W24391   2.885   6.722   1.268 -0.1188  0.1614  0.0146
 8131W        W24392  17.521  15.323  14.125  0.0133  0.3441  0.0746
 8132W        W24393  17.195   5.313  14.893  0.1418 -0.0391  0.2882
 8133W        W24394  17.736  15.891   3.406  0.0280  0.3176  0.1850
 8134W        W24395  12.039  18.136   4.193 -0.0832  0.0082  0.0782
 8135W        W24396  11.985   9.734  11.021 -0.2086 -0.1397  0.0258
 8136W        W24397  11.002   9.643  15.657 -0.1605  0.1168 -0.0584
 8137W        W24398   9.147   9.142   5.937 -0.1776  0.0082 -0.2025
 8138W        W24399   3.126  13.276  12.179  0.0141 -0.0895  0.1112
 8139W        W24400   2.365  12.962  11.667  0.1493  0.1327  0.0501
 8140W        W24401   5.075   3.361  16.241  0.1538  0.0976 -0.1146
 8141W        W24402   1.512  12.702   2.134  0.0309 -0.1195 -0.2375
 8142W        W24403   2.059   2.053  16.237 -0.0230  0.1358 -0.3179
 8143W        W24404  14.219  17.264   2.297  0.0695  0.1218 -0.0692
 8144W        W24405  16.046  12.737  15.557 -0.2408  0.4333  0.1554
 8145W        W24406   6.345  10.727  11.488 -0.3153  0.0711 -0.0391
 8146W        W24407   3.258  11.893  11.304 -0.2065 -0.1125  0.0131
 8147W        W24408   5.145  16.345  13.682  0.2169  0.0254 -0.0745
 8148W        W24409   0.341  15.265   4.361 -0.1581 -0.1653  0.0710
 8149W        W24410  14.654   9.250   1.478  0.3074 -0.2012 -0.1473
 8150W        W24411   4.937   1.277  14.018 -0.1168  0.1841  0.1176
 8151W        W24412   5.440   7.629  13.076 -0.0247  0.3854 -0.0426
 8152W        W24413   0.217   2.758   1.009 -0.0553  0.2217 -0.2616
 8153W        W24414   0.852   2.935  12.830 -0.1938  0.0121 -0.0320
 8154W        W24415   9.189   9.941  13.113 -0.0706  0.0538 -0.3476
 8155W        W24416  16.737   3.844  11.067 -0.0346 -0.1185 -0.0154
 8156W        W24417  12.405  14.281  15.941  0.2172  0.2533  0.0277
 8157W        W24418  17.943  15.481  12.479  0.0036 -0.1321  0.0765
 8158W        W24419  18.128   4.216   0.700 -0.3823 -0.0348 -0.1773
 8159W        W24420   9.971  16.419   1.939 -0.2278 -0.3097 -0.1501
 8160W        W24421  10.442  11.812   2.091  0.0805 -0.1682  0.0540
 8161W        W24422   8.374  14.407  16.153  0.0955  0.3584 -0.3640
 8162W        W24423   0.976   3.304   4.804  0.2877  0.3566  0.2589
 8163W        W24424   8.359   2.929   2.665 -0.0817  0.1128 -0.0922
 8164W        W24425  18.292   6.424  11.923 -0.2139  0.0491 -0.3297
 8165W        W24426   0.793   2.091   2.674  0.0164 -0.3504  0.1948
 8166W        W24427   7.648   8.118   0.417  0.2467 -0.0499  0.0870
 8167W        W24428   5.391   9.039  15.533 -0.0646  0.0198 -0.0559
 8168W        W24429   8.090  18.244   3.103 -0.2174 -0.2360 -0.0218
 8169W        W24430  12.778   3.803   1.742 -0.3131  0.1833  0.1585
 8170W        W24431   3.039  13.329   4.504  0.2894 -0.0219  0.1259
 8171W        W24432   8.706  17.718   4.250 -0.0542 -0.1677 -0.2076
 8172W        W24433  16.748   5.877  11.667 -0.3555  0.0543 -0.1573
 8173W        W24434  17.532   9.465  13.661  0.2698 -0.0685 -0.0795
 8174W        W24435  11.208  11.052   2.723 -0.3018 -0.1904 -0.1158
 8175W        W24436   1.725  11.311  11.899  0.3085  0.1304 -0.0805
 8176W        W24437   3.144  17.876   2.518 -0.2040  0.2707 -0.0785
 8177W        W24438   3.404  11.483   2.998 -0.0296 -0.2997  0.1462
 8178W        W24439  15.314   6.294  13.876  0.0442  0.1974 -0.0162
 8179W        W24440  17.036  15.513  14.081 -0.1443 -0.1864 -0.1465
 8180W        W24441   8.438  10.376  10.567  0.1038  0.0678  0.1728
 8181W        W24442  14.064  11.594   4.100 -0.0346 -0.1356 -0.1735
 8182W        W24443  10.770  16.568  11.591 -0.0155 -0.1824  0.3152
 8183W        W24444  17.478   4.474   1.489  0.0464  0.2466  0.1988
 8184W        W24445   1.508  12.529  13.419 -0.2800  0.0186 -0.1314
 8185W        W24446   5.099  17.438  15.411  0.1929  0.1315  0.0577
 8186W        W24447  14.303  11.314  12.910 -0.2508 -0.1741  0.1899
 8187W        W24448  11.388   8.107   1.923 -0.0210 -0.0978  0.2232
 8188W        W24449   2.041   6.774   2.648  0.1350  0.1976 -0.0852
 8189W        W24450   6.550  10.160   4.230  0.1605  0.3307  0.2029
 8190W        W24451  10.319   6.536  12.937  0.1566 -0.0179  0.0079
 8191W        W24452  15.818   8.187   9.839 -0.1343  0.1108 -0.0931
 8192W        W24453  17.923  10.201   4.793  0.1758  0.1689 -0.0400
 8193W        W24454   6.035   4.674   1.829 -0.4994 -0.3734  0.1827
 8194W        W24455  10.388   7.456   4.766 -0.0179  0.3439 -0.0176
 8195W        W24456   3.766  16.046  11.662  0.1124 -0.2054  0.1995
 8196W        W24457   6.759   1.799   2.649 -0.1409 -0.0687  0.0428
 8197W        W24458  11.820   7.004   5.084 -0.1812  0.3319  0.0746
 8198W        W24459  14.773  15.888   5.343 -0.2743  0.0670 -0.0255
 8199W        W24460  17.002  17.429   2.744 -0.3604 -0.0747 -0.2170
 8200W        W24461   8.688  17.656  15.376 -0.0378 -0.0064 -0.1155
 8201W        W24462  17.844  14.563   4.557  0.3014 -0.2406  0.2674
 8202W        W24463   1.273   8.186  14.042  0.1543 -0.1628  0.0370
 8203W        W24464  14.343  18.034   3.503  0.3175  0.0720 -0.1552
 8204W        W24465   0.758   5.789  14.909  0.0914  0.3760  0.2716
 8205W        W24466   4.065   3.458  16.038  0.0769 -0.0719 -0.0836
 8206W        W24467   1.358  14.008  13.098  0.2468  0.0809 -0.0368
 8207W        W24468  15.172   3.799   4.020  0.0820  0.0513  0.2932
 8208W        W24469   8.850   7.032  13.731 -0.0956 -0.0991 -0.1084
 8209W        W24470   5.684  11.266  11.939  0.1498  0.0729  0.3236
 8210W        W24471  10.659  10.533   3.954  0.1606  0.0628  0.1877
 8211W        W24472   0.818  11.046   3.951 -0.0508 -0.3849 -0.0427
 8212W        W24473  11.819  10.295  12.153 -0.0523 -0.0012  0.0162
 8213W        W24474  13.233  11.582   1.158  0.1458 -0.1200  0.0393
 8214W        W24475  13.472   3.718  15.752  0.2677  0.1317 -0.0033
 8215W        W24476   5.453   9.747  13.427 -0.1794  0.0555  0.3193
 8216W        W24477   0.752   6.541   4.234 -0.1625  0.3150  0.1658
 8217W        W24478  14.730   1.415   0.555  0.1998  0.0816 -0.2737
 8218W        W24479   2.369  12.170  14.817  0.1094  0.0510  0.0071
 8219W        W24480   4.079  13.777  15.711 -0.0037  0.0457  0.2121
 8220W        W24481   9.147   4.445   3.878  0.1221 -0.1495  0.0447
 8221W        W24482  16.640  14.205   0.671  0.1318 -0.1257 -0.4088
 8222W        W24483   9.499  17.740   5.054  0.3134 -0.1772 -0.0903
 8223W        W24484  14.408  14.404  12.942  0.0844 -0.1307  0.0020
 8224W        W24485   6.583   9.104   2.830 -0.2650 -0.1463  0.0669
 8225W        W24486  12.953   3.073   0.525  0.2539  0.2496 -0.2326
 8226W        W24487   7.578   9.557  10.677 -0.1570 -0.0156  0.1321
 8227W        W24488  12.192   7.272  14.061  0.0529  0.0795  0.3526
 8228W        W24489   3.788  13.406   3.298  0.2794 -0.2581  0.1081
 8229W        W24490   6.790   1.093  14.540 -0.3557 -0.2234  0.0442
 8230W        W24491   1.189  16.124  11.958 -0.1082 -0.0807 -0.2002
 8231W        W24492   0.247  11.015   3.995 -0.0930  0.0396  0.0567
 8232W        W24493  11.192  13.772  13.796 -0.0398  0.0415  0.2089
 8233W        W24494  16.230  15.551  14.135 -0.2669  0.0784  0.2870
 8234W        W24495  17.352  13.138   5.114 -0.1057  0.1270 -0.0678
 8235W        W24496  12.753  15.045  15.684  0.2849  0.2350  0.1592
 8236W        W24497   6.976   4.429   5.318 -0.1145 -0.3132 -0.0828
 8237W        W24498  17.639   0.674   1.493  0.0577  0.0476  0.2209
 8238W        W24499   0.522   7.297   1.192 -0.0289 -0.5696  0.2796
 8239W        W24500   1.032   0.188   0.596  0.1552 -0.1023 -0.0438
 8240W        W24501  11.249   1.943   4.848 -0.0192 -0.0714  0.4082
 8241W        W24502   8.223   5.652  11.391  0.2534 -0.0316 -0.1163
 8242W        W24503   6.646  11.219   4.487 -0.1654 -0.0990 -0.1282
 8243W        W24504  11.961   3.869   5.249  0.2708 -0.1636 -0.1084
 8244W        W24505   3.210   8.574   4.695  0.0988  0.1226 -0.0370
 8245W        W24506  12.253   8.054  14.487 -0.0217 -0.0899  0.0141
 8246W        W24507  15.941   7.886  12.467 -0.1567  0.1301  0.0389
 8247W        W24508   7.752  13.137   4.845  0.2954 -0.2513 -0.1980
 8248W        W24509   0.942  16.662   1.947  0.1741 -0.0114 -0.0992
 8249W        W24510  10.757  16.617   4.934 -0.0185  0.0412  0.1203
 8250W        W24511  18.075   1.932   5.402 -0.0057 -0.0902  0.1029
 8251W        W24512   9.312  16.666  11.955  0.0749 -0.1799 -0.0284
 8252W        W24513   4.337  13.622  12.893 -0.1763  0.2837 -0.1121
 8253W        W24514   9.633   8.442   3.434  0.2918 -0.0391 -0.1472
 8254W        W24515   5.528  12.893  14.050  0.0014 -0.1911 -0.0239
 8255W        W24516   5.763   1.678  15.221 -0.3014 -0.1957 -0.2646
 8256W        W24517  11.784   6.467  13.921 -0.0912  0.2611 -0.1841
 8257W        W24518   4.396  10.199   0.304  0.3557  0.0933  0.0205
 8258W        W24519  13.453   0.726  11.617 -0.2046 -0.0308  0.2233
 8259W        W24520   0.253   4.068   2.991  0.0803  0.1016 -0.0534
 8260W        W24521  10.309   5.242   4.513  0.0938 -0.2119 -0.2924
 8261W        W24522  13.874   5.311   2.737  0.0745 -0.0205  0.1904
 8262W        W24523  17.516   6.427   1.957  0.1900 -0.3149  0.0400
 8263W        W24524   7.826   0.418  11.960 -0.4465  0.0363 -0.3152
 8264W        W24525  10.459  13.836   3.235  0.0344  0.1313 -0.0169
 8265W        W24526  14.246   5.012  12.113  0.1476 -0.3106  0.0765
 8266W        W24527  15.424  17.913   0.650  0.1737 -0.2114 -0.3189
 8267W        W24528  17.897   9.384  15.308 -0.3945 -0.1435  0.0438
 8268W        W24529  13.728   0.100  12.009 -0.1465 -0.2796 -0.1760
 8269W        W24530   2.143   2.388   0.330  0.1659  0.4777 -0.0790
 8270W        W24531  12.077   1.102  15.041 -0.1166 -0.2111  0.0491
 8271W        W24532  13.914  15.115  15.006  0.0665 -0.1634  0.1097
 8272W        W24533   0.668   8.133   1.802 -0.2510  0.1099  0.0902
 8273W        W24534   1.643  16.448  14.495  0.0544  0.1729  0.3295
 8274W        W24535   9.986  13.263   1.697  0.0863 -0.0716 -0.2618
 8275W        W24536  18.015  11.827   0.556 -0.2973 -0.0444  0.2177
 8276W        W24537   5.016  13.756  13.780 -0.0449 -0.2123 -0.2608
 8277W        W24538   2.096  13.295   1.141 -0.2152  0.0390  0.1292
 8278W        W24539   5.354   0.777  11.528 -0.0982 -0.1491  0.4946
 8279W        W24540  11.607  10.615   3.337 -0.3657 -0.2325 -0.3917
 8280W        W24541   9.947   8.956   1.578 -0.1238  0.0547  0.2749
 8281W        W24542   5.924  18.070  13.549 -0.2212 -0.1602  0.1024
 8282W        W24543   9.676  15.317   4.642 -0.1196  0.1196  0.1181
 8283W        W24544   2.991  18.031   0.956 -0.1519  0.2522  0.2562
 8284W        W24545  14.303   6.803  12.049  0.1482 -0.3746 -0.0414
 8285W        W24546   6.383   4.648   1.426 -0.0438  0.1553 -0.0805
 8286W        W24547   3.576   3.354   5.573 -0.0017 -0.0895 -0.0363
 8287W        W24548   9.549   5.259   5.155 -0.2535 -0.1438 -0.1889
 8288W        W24549  15.571   2.004   2.990 -0.0532  0.1748  0.0999
 8289W        W24550  16.252  10.692   3.339  0.1152  0.0725 -0.1934
 8290W        W24551   5.045  17.657   4.145  0.0888  0.0084 -0.1725
 8291W        W24552  15.761  13.536  13.121  0.0426 -0.4495  0.0628
 8292W        W24553   3.663   9.483  13.225 -0.1331  0.0379  0.0527
 8293W        W24554   1.229  10.621  14.116  0.1249 -0.1157  0.0487
 8294W        W24555  10.848   9.875  14.375  0.0722  0.4557  0.0733
 8295W        W24556  14.676   5.984  13.679 -0.1343 -0.0483  0.0151
 8296W        W24557   3.374   7.930  10.639 -0.0994  0.0648  0.1960
 8297W        W24558  18.041  10.904   0.167 -0.3887 -0.1637 -0.0329
 8298W        W24559   1.255   0.943  15.875 -0.0480 -0.0725 -0.0281
 8299W        W24560   9.445   3.166   3.210  0.3310  0.3814 -0.2899
 8300W        W24561  14.820   2.483  13.596 -0.1583  0.1365  0.2811
 8301W        W24562  13.604   4.168   0.128  0.3751  0.0620 -0.0621
 8302W        W24563  10.748  16.643  12.950  0.1958  0.1227 -0.2570
 8303W        W24564   4.645  15.389   2.663 -0.0998 -0.0457  0.0660
 8304W        W24565   7.209   7.048  14.031  0.1104 -0.3140 -0.2970
 8305W        W24566   0.263   2.177   0.960 -0.0591 -0.2086 -0.3098
 8306W        W24567   4.242  12.648   1.074  0.1540  0.0856 -0.0645
 8307W        W24568  15.540   2.280   4.867  0.0434 -0.1973  0.4246
 8308W        W24569  13.554   3.735   0.992  0.1465 -0.1841 -0.0733
 8309W        W24570  15.534  14.596  12.445  0.2773  0.0830  0.0466
 8310W        W24571   7.126   2.752   1.477  0.3358 -0.2189 -0.1502
 8311W        W24572  11.053  11.151   1.891 -0.3220  0.0577 -0.0622
 8312W        W24573  12.505   7.311   1.403 -0.2414  0.1893 -0.2557
 8313W        W24574   2.449   1.733  13.214  0.3371 -0.2798 -0.1503
 8314W        W24575   0.000   8.638  12.709  0.3024  0.1423 -0.3200
 8315W        W24576   2.969  10.749  15.162  0.3875 -0.0940  0.0366
 8316W        W24577  11.613   2.537  15.910  0.3183 -0.0342 -0.0394
 8317W        W24578   6.374   7.935  11.651  0.0951 -0.1528 -0.1182
 8318W        W24579   7.951  11.852  11.987 -0.2052  0.2950 -0.2824
 8319W        W24580   2.008   7.319   3.473 -0.0374 -0.0856  0.0069
 8320W        W24581   7.379  14.255  14.384  0.0579 -0.0039  0.2392
 8321W        W24582   5.231   4.956  16.207  0.0957 -0.2186  0.2016
 8322W        W24583   1.390   9.421  13.368  0.0862  0.2821 -0.0205
 8323W        W24584   5.404   9.391   4.236  0.1049  0.2382  0.2229
 8324W        W24585   7.177  12.253   2.662 -0.1169  0.0123  0.2924
 8325W        W24586   0.041  16.446  11.621 -0.1629 -0.0696 -0.2894
 8326W        W24587   5.488  12.782   2.522 -0.2370 -0.0221  0.3212
 8327W        W24588   3.924   8.035   2.034 -0.1205 -0.2249  0.0255
 8328W        W24589  15.417   0.698   3.750  0.1342 -0.0422 -0.2759
 8329W        W24590  12.640  12.148   2.406  0.0519  0.0223 -0.2309
 8330W        W24591   4.762   7.684   0.612  0.0914  0.0030 -0.0361
 8331W        W24592   2.183  18.126  12.325  0.3173  0.3530  0.1596
 8332W        W24593   4.183   4.183   0.262 -0.1533 -0.1629 -0.1272
 8333W        W24594  17.076   8.700   5.649  0.1370 -0.0830 -0.1420
 8334W        W24595  17.186   8.996   1.938 -0.0616 -0.0545  0.1012
 8335W        W24596   6.531  17.161   0.646  0.0882  0.1695  0.1031
 8336W        W24597   2.723   3.923  16.190 -0.2825 -0.1259  0.0484
 8337W        W24598   7.127   0.595   4.595  0.0246 -0.3653 -0.0985
 8338W        W24599   6.878  15.162  12.764  0.2671 -0.0978  0.1458
 8339W        W24600   7.782   3.472  15.204  0.1134  0.1410 -0.1587
 8340W        W24601   6.587   9.128  12.479 -0.0320  0.0851 -0.2326
 8341W        W24602   7.240   0.062   0.930  0.2187 -0.3480  0.0151
 8342W        W24603   9.395   1.358  12.778  0.0797 -0.1803  0.1996
 8343W        W24604  17.126   4.513   5.325  0.2980 -0.0241  0.0248
 8344W        W24605  13.763  14.970   1.404  0.2950  0.0355 -0.0769
 8345W        W24606   6.487   8.149  12.207 -0.1043 -0.3207  0.1115
 8346W        W24607  14.879   5.018   5.507  0.0244 -0.1009  0.0439
 8347W        W24608   2.781   0.747   3.723  0.1192  0.2264 -0.0774
 8348W        W24609  14.671   0.891   2.002 -0.1008  0.1108  0.5358
 8349W        W24610  16.336  12.786  14.289  0.2478 -0.3262 -0.1452
 8350W        W24611  13.238  14.058  14.860 -0.0535  0.1861 -0.0018
 8351W        W24612   8.657   9.497   6.198  0.1415  0.0846  0.3162
 8352W        W24613   5.258   6.165  15.140  0.1713  0.0599  0.0921
 8353W        W24614  13.951   4.475   0.343  0.2424 -0.2666 -0.1201
 8354W        W24615   6.032   7.404   0.642  0.4630  0.1708  0.0880
 8355W        W24616  17.420   0.711  14.884 -0.0131 -0.1504  0.3490
 8356W        W24617   8.545  12.312  12.497 -0.0910  0.2758  0.0767
 8357W        W24618   7.425   7.100   4.392 -0.1798  0.0009 -0.0625
 8358W        W24619  15.164   4.508   3.233  0.2626  0.1796  0.1119
 8359W        W24620   0.880   9.713  13.374 -0.1174 -0.0558  0.2330
 8360W        W24621   5.433  12.878  15.015  0.1073  0.1737 -0.3042
 8361W        W24622   9.076   8.405  11.609 -0.4532  0.1073  0.0344
 8362W        W24623   0.512   0.564  15.155 -0.1160  0.0511 -0.0261
 8363W        W24624   1.211   2.768   5.715  0.5062 -0.1099  0.0000
 8364W        W24625  13.177  12.587   3.213 -0.0931 -0.0898  0.2535
 8365W        W24626   0.496  12.003  13.978  0.0162 -0.1454 -0.2763
 8366W        W24627   5.922   6.746   4.113  0.0357  0.2078  0.2611
 8367W        W24628  17.762  15.190  13.406 -0.0247 -0.2966  0.1100
 8368W        W24629   3.843   1.239   4.707  0.1334 -0.0222 -0.0171
 8369W        W24630   5.042   7.747  12.389  0.1314  0.2143 -0.0005
 8370W        W24631  11.204  17.123   3.084  0.1338 -0.3524  0.5244
 8371W        W24632  16.423  13.258  11.810  0.2792  0.4022  0.1218
 8372W        W24633  17.850   3.125   4.362 -0.2847  0.3453 -0.4851
 8373W        W24634   5.153  12.461  12.961  0.1446 -0.0204  0.0808
 8374W        W24635   0.942  11.454   1.433  0.0178  0.1324  0.0330
 8375W        W24636   9.752  15.437  13.991 -0.3100  0.1568 -0.0586
 8376W        W24637   2.289   2.480  13.783  0.1232 -0.0756  0.1322
 8377W        W24638   3.913   6.969  14.561  0.1294  0.1777  0.0834
 8378W        W24639  10.617   6.146  13.003 -0.2270 -0.0273  0.0072
 8379W        W24640  13.866   5.769  12.162 -0.0588 -0.2387  0.1220
 8380W        W24641  17.034   9.899   2.621  0.1505  0.0058 -0.0298
 8381W        W24642  17.259   3.513  14.344  0.2923  0.2430 -0.0062
 8382W        W24643  14.623  16.376   4.081 -0.1277  0.2361 -0.2195
 8383W        W24644  15.743   5.451   5.535  0.1526  0.1484  0.0725
 8384W        W24645   7.749   2.183  15.850 -0.1986 -0.2281 -0.1647
 8385W        W24646  12.000  12.329   1.153  0.3290 -0.1774 -0.0542
 8386W        W24647   0.291  16.567  15.928 -0.1098 -0.2525  0.1843
 8387W        W24648   6.801   6.248   1.896 -0.0602 -0.1065 -0.0311
 8388W        W24649  10.896  14.117   3.966 -0.1265  0.1963 -0.0398
 8389W        W24650   0.642  13.793  12.504  0.3849  0.0981  0.0847
 8390W        W24651   5.857   2.617   3.477  0.3315 -0.1223  0.2051
 8391W        W24652  13.810   4.471  12.701 -0.2634 -0.1163 -0.2626
 8392W        W24653   3.664  17.366   2.155 -0.2253  0.3743  0.0962
 8393W        W24654  16.212   0.760   4.729  0.1281  0.0723  0.2335
 8394W        W24655   4.821  13.278  16.208  0.0503  0.0896  0.0947
 8395W        W24656   9.306   8.485  14.468  0.1375 -0.0318 -0.0575
 8396W        W24657   1.400  13.603   2.248  0.0996 -0.0761  0.1497
 8397W        W24658  16.914  11.169  12.999  0.0153 -0.0372  0.0311
 8398W        W24659   3.494  11.423   0.238 -0.2078  0.5638 -0.0242
 8399W        W24660   8.506   5.203   1.333 -0.0205 -0.1060  0.0336
 8400W        W24661   6.002   2.080  13.512  0.2370  0.1169  0.1101
 8401W        W24662  11.525   5.927  11.662 -0.1326 -0.2626  0.3370
 8402W        W24663   6.223  12.948   5.166 -0.1310  0.1640 -0.3407
 8403W        W24664   9.971   2.995   0.117  0.1758 -0.0355  0.1504
 8404W        W24665  15.175   1.627  11.780 -0.0198 -0.1809  0.4189
 8405W        W24666  12.325   6.618  14.523 -0.3006  0.1423  0.2167
 8406W        W24667   4.906   4.549  16.133 -0.0528 -0.2928  0.1476
 8407W        W24668  11.885   6.633   6.347 -0.3189  0.1895 -0.0578
 8408W        W24669  14.235  12.764  16.231 -0.0907  0.3326  0.0963
 8409W        W24670  16.489   8.418   4.449  0.2427 -0.3211 -0.1926
 8410W        W24671   4.248  15.554   3.556  0.0478  0.2236 -0.1028
 8411W        W24672   9.228  15.122  12.506  0.1437  0.3170  0.1720
 8412W        W24673   8.105   8.684   2.754 -0.2708  0.1840 -0.0299
 8413W        W24674   8.198   6.850   2.848 -0.0785 -0.6048 -0.0294
 8414W        W24675   8.224   9.129   2.607  0.2581  0.0217  0.2062
 8415W        W24676  11.739  11.252   0.100 -0.0641  0.1842 -0.2822
 8416W        W24677  13.792  15.997   4.505 -0.2282 -0.0156  0.0936
 8417W        W24678   0.676  11.483   0.871  0.1816  0.1090  0.2122
 8418W        W24679   6.885  18.158   1.122  0.0842 -0.5234  0.0748
 8419W        W24680  15.836  12.308  11.886 -0.2239  0.0421  0.2159
 8420W        W24681   6.892   5.725  13.415 -0.1052  0.1525  0.2265
 8421W        W24682   2.976   6.964   2.570  0.4109  0.2249  0.0958
 8422W        W24683   5.681  14.790  12.669  0.0079 -0.0666  0.1382
 8423W        W24684   3.218  10.262  15.964  0.0923  0.1178 -0.1248
 8424W        W24685   9.968   6.889  14.052  0.0273  0.0180 -0.3133
 8425W        W24686   4.992  15.268   4.978  0.1793 -0.0894 -0.1934
 8426W        W24687  10.157   9.873   3.268 -0.1328 -0.0693  0.0863
 8427W        W24688   0.447   6.771  14.696  0.2715 -0.1865  0.1035
 8428W        W24689  13.183  14.399  14.055 -0.0849  0.1364 -0.0559
 8429W        W24690  14.894  11.529   0.079 -0.0717 -0.2063  0.1884
 8430W        W24691  17.263  16.462   5.663  0.0132  0.0791 -0.2119
 8431W        W24692   2.108  11.210   5.193  0.2463  0.4002 -0.0616
 8432W        W24693  13.030   3.397  14.372 -0.1572 -0.2834  0.1523
 8433W        W24694   7.238  18.338  12.120 -0.1179 -0.1572 -0.0649
 8434W        W24695   1.422   3.427   4.581  0.0056 -0.0428 -0.0269
 8435W        W24696  14.551  18.349   2.208  0.2970  0.1445  0.2935
 8436W        W24697   1.893  13.958  15.587 -0.0191  0.1266 -0.1330
 8437W        W24698  12.204   9.220  13.357 -0.1210 -0.4037 -0.0637
 8438W        W24699  15.316   1.994   0.906  0.0521 -0.0005 -0.1874
 8439W        W24700  10.197   1.014   4.418  0.1653 -0.1050  0.1810
 8440W        W24701  15.952   2.629   5.139  0.0061 -0.3177 -0.2297
 8441W        W24702  12.135  10.136  12.740  0.1561  0.1514 -0.1713
 8442W        W24703  10.954   6.929   1.763  0.0823 -0.0836  0.0704
 8443W        W24704  15.255   6.292  12.671  0.0150 -0.0324  0.5311
 8444W        W24705   5.363   4.964  12.189  0.0603  0.0605  0.2507
 8445W        W24706   4.029  16.486   0.968 -0.3472  0.3763 -0.0463
 8446W        W24707   4.278   3.036  13.703 -0.2737 -0.1751 -0.0245
 8447W        W24708   9.596   4.229   4.775  0.1069  0.2512 -0.4089
 8448W        W24709  17.501   0.724   4.806 -0.0045  0.3945 -0.2375
 8449W        W24710   7.145  11.389  15.966 -0.1606  0.1699 -0.0741
 8450W        W24711   1.691   9.548  13.759 -0.1366  0.0830 -0.1473
 8451W        W24712   6.893  12.683  15.051 -0.1760 -0.0131 -0.3220
 8452W        W24713   6.098   2.513   2.441  0.0833  0.1749  0.0066
 8453W        W24714   0.567  14.354  11.897  0.1474 -0.0737 -0.2191
 8454W        W24715  12.817   4.520   2.425  0.2822  0.0302 -0.0393
 8455W        W24716  12.462   9.742  11.508 -0.0002 -0.1325 -0.0475
 8456W        W24717  14.724  11.702  12.861  0.0510  0.0304  0.0144
 8457W        W24718  17.094   4.853   5.713  0.0461 -0.0587 -0.0526
 8458W        W24719  11.013   8.513   4.703  0.1165  0.0125  0.0205
 8459W        W24720  17.543  14.742   2.941  0.0514 -0.0914 -0.0432
 8460W        W24721   2.104  15.404  13.579  0.2791  0.0166 -0.3342
 8461W        W24722   8.965  16.797  14.836 -0.0373 -0.2361 -0.0592
 8462W        W24723  15.069  17.732   1.118 -0.1754 -0.0697 -0.0945
 8463W        W24724   1.307  17.611  14.481 -0.0359  0.0685  0.2204
 8464W        W24725  13.012  13.480   3.177  0.3680 -0.1186 -0.0289
 8465W        W24726   8.418   0.957   4.272  0.0923  0.3003 -0.0416
 8466W        W24727   4.893  13.168   5.334 -0.2636 -0.3458 -0.1904
 8467W        W24728  17.706   4.472  13.966  0.2941  0.0937 -0.1172
 8468W        W24729   1.094  10.114   6.342 -0.0499 -0.0780  0.1039
 8469W        W24730   5.240   3.172  13.779 -0.0207 -0.0222 -0.2523
 8470W        W24731  15.435   2.767  14.485  0.1961  0.1919 -0.2394
 8471W        W24732   3.850   3.059  11.856  0.2640 -0.2582  0.0389
 8472W        W24733   4.605   3.688   2.489  0.2064 -0.0655 -0.1027
 8473W        W24734   3.655  11.156  12.535 -0.0769 -0.2951 -0.0011
 8474W        W24735  11.706  13.958   4.321 -0.4310  0.2793  0.1558
 8475W        W24736  17.468   0.053   3.260  0.2806  0.1085 -0.2279
 8476W        W24737  10.520  14.918  11.638 -0.2219  0.0414 -0.2616
 8477W        W24738   9.175   0.750  12.073 -0.0259 -0.3727  0.1785
 8478W        W24739   1.771   9.690  13.212  0.1385  0.4021  0.1699
 8479W        W24740   6.049   3.208  15.802  0.0252 -0.4719 -0.2883
 8480W        W24741   8.150   6.799  14.345  0.0890 -0.3337  0.3274
 8481W        W24742  14.948  18.291   3.287 -0.1550 -0.0809 -0.2735
 8482W        W24743  12.713   0.748   3.459 -0.0005  0.3060  0.2357
 8483W        W24744  12.069  14.754   5.199 -0.0634 -0.1901 -0.0549
 8484W        W24745  11.294  16.078  10.859 -0.1514  0.0057 -0.0614
 8485W        W24746   8.108  13.648  11.365  0.1134 -0.0669 -0.2036
 8486W        W24747  15.098   1.259  15.960 -0.2673  0.1510 -0.0062
 8487W        W24748  12.510  13.172  13.509 -0.1581 -0.3081  0.0065
 8488W        W24749   8.761  13.820  13.585 -0.1492  0.0240 -0.1323
 8489W        W24750   4.828   0.716  14.155 -0.2487 -0.1204 -0.1224
 8490W        W24751   1.803   4.963   2.029 -0.1896 -0.0165  0.1725
 8491W        W24752  17.476   1.202  15.049  0.0514  0.0800 -0.0637
 8492W        W24753   2.988  14.577  16.111 -0.0494 -0.0821  0.2312
 8493W        W24754  11.684  12.003   3.482 -0.1809  0.2978  0.1024
 8494W        W24755   5.490   2.752  12.899 -0.1212  0.2193 -0.3664
 8495W        W24756  15.168   0.114  16.039  0.0903 -0.1186 -0.0710
 8496W        W24757  10.927  14.836  13.366 -0.0273  0.2774 -0.0819
 8497W        W24758  11.152  13.571   2.498 -0.1605 -0.3458  0.1531
 8498W        W24759   6.464   2.457   2.808 -0.1138 -0.0107 -0.1218
 8499W        W24760  15.819  15.484   5.245  0.2794  0.0829  0.1065
 8500W        W24761   4.787  17.355   4.490 -0.0583  0.2466 -0.0316
 8501W        W24762  17.748  16.448   5.395  0.2770 -0.1796 -0.0236
 8502W        W24763   8.747   8.556   3.803 -0.1257  0.0179 -0.1965
 8503W        W24764   3.461   9.828  12.281 -0.1879  0.5291  0.0101
 8504W        W24765   7.575  14.399  11.889  0.1944 -0.3822 -0.1034
 8505W        W24766  17.192   3.366   2.472  0.0067  0.2255 -0.0827
 8506W        W24767   5.652  14.307   2.006 -0.1984 -0.1619  0.0614
 8507W        W24768   5.724   0.726   0.401 -0.1173  0.0669  0.2347
 8508W        W24769  17.746   7.701  11.507 -0.2623  0.0537  0.0463
 8509W        W24770   4.492   6.642   3.148  0.0509 -0.2438 -0.0431
 8510W        W24771   5.667   1.430   1.583  0.1448 -0.0476 -0.0938
 8511W        W24772   4.807  12.944  12.510  0.1531  0.1904  0.1168
 8512W        W24773   5.118   6.800  12.134 -0.0174 -0.1484  0.1152
 8513W        W24774  12.249  10.313   3.674  0.4663 -0.0727  0.2148
 8514W        W24775  10.515   9.229  15.119 -0.1298 -0.0978  0.0942
 8515W        W24776   0.974   5.255   5.141 -0.2438 -0.0039  0.0105
 8516W        W24777  11.481   1.395  12.788  0.2257  0.1855 -0.1375
 8517W        W24778   3.600  11.112  10.634 -0.1674 -0.1519  0.2694
 8518W        W24779   3.048  15.748  15.780  0.1031 -0.4369 -0.2792
 8519W        W24780   8.623  11.027  11.989  0.0679 -0.1861 -0.0067
 8520W        W24781  14.992   4.646   3.835 -0.2821  0.2235 -0.2351
 8521W        W24782   0.862  13.313  14.245 -0.1139  0.0331 -0.1770
 8522W        W24783   7.693   8.697   1.926  0.0111 -0.0369 -0.1312
 8523W        W24784  16.269   6.878  12.410 -0.3585  0.5661 -0.1277
 8524W        W24785   0.034   4.313  13.369  0.1989 -0.1600  0.1905
 8525W        W24786   6.397  16.553  12.854 -0.1710  0.0733  0.1081
 8526W        W24787   1.423   9.728   3.244  0.0602 -0.1862 -0.1009
 8527W        W24788   1.898   7.812  14.288  0.2756 -0.0111 -0.1782
 8528W        W24789   1.034  13.381  12.105  0.1379 -0.0202  0.0840
 8529W        W24790   6.359   5.723   5.899  0.1005 -0.1319  0.1085
 8530W        W24791   9.491   6.556  12.117 -0.3993  0.0299 -0.1408
 8531W        W24792   5.519  15.811   2.607 -0.2935 -0.2059 -0.0360
 8532W        W24793  10.347   9.762   1.314  0.2600  0.0252 -0.1640
 8533W        W24794  16.939  11.640   2.768  0.0468 -0.0441 -0.2711
 8534W        W24795   7.840   2.003   0.611  0.1742  0.3037 -0.1898
 8535W        W24796  10.874   8.077   5.308  0.0287 -0.2480  0.1528
 8536W        W24797  10.588   2.227   2.819  0.1221 -0.4183 -0.2797
 8537W        W24798   4.795   5.561   2.178 -0.2540 -0.0041  0.0048
 8538W        W24799  17.724  12.901   2.777  0.0848  0.4128 -0.0484
 8539W        W24800   1.710  15.262   1.337  0.1998 -0.0946 -0.0938
 8540W        W24801   9.297   2.403   1.670 -0.0263 -0.0412 -0.4133
 8541W        W24802  10.410   6.831   4.002  0.1127  0.3145 -0.1530
 8542W        W24803  14.362   0.131  14.011  0.2298 -0.1747  0.0384
 8543W        W24804   7.184  14.242   4.184  0.1763 -0.0795 -0.1332
 8544W        W24805  14.541  15.468  11.887 -0.0781 -0.2017 -0.0216
 8545W        W24806   3.114  10.899  11.530  0.1532 -0.3101  0.3104
 8546W        W24807   3.904   9.814   5.981 -0.1547  0.1371  0.0512
 8547W        W24808   6.342  10.932  14.746 -0.1862 -0.4099 -0.0788
 8548W        W24809  16.151   8.306  12.207  0.1988  0.1154 -0.1328
 8549W        W24810   0.336   9.185   4.899 -0.4193  0.0293 -0.0183
 8550W        W24811   1.294  12.993   2.626 -0.5014  0.1382 -0.0740
 8551W        W24812  12.240  11.150   3.996  0.0570  0.0118  0.0947
 8552W        W24813  16.231  14.733   2.557  0.1918  0.0749 -0.1546
 8553W        W24814  12.719  13.280   0.178  0.1118 -0.0879  0.1523
 8554W        W24815   3.751   0.256  14.424  0.2950 -0.2405  0.1889
 8555W        W24816   2.943   4.721  13.802  0.2290  0.1968  0.0081
 8556W        W24817   2.093   5.765   3.235  0.1656  0.2438  0.1057
 8557W        W24818  10.523   5.488  10.944 -0.0803  0.2804 -0.1099
 8558W        W24819   9.786  12.893   3.609 -0.2091 -0.0025  0.2627
 8559W        W24820   4.040   3.565   4.600  0.1412  0.1781  0.0002
 8560W        W24821  15.326  16.653   6.379 -0.2907 -0.0231  0.2154
 8561W        W24822  10.171   5.955   0.990 -0.0282 -0.0528  0.0202
 8562W        W24823   5.250   2.118   2.191 -0.0244 -0.0684  0.3902
 8563W        W24824   5.673  11.934  15.103  0.2819  0.1097 -0.0940
 8564W        W24825  12.438   9.255  14.975 -0.0066  0.1010  0.0736
 8565W        W24826   6.720   9.205   4.355 -0.0730 -0.4525  0.2491
 8566W        W24827   0.809  12.937  15.211  0.1304 -0.1016  0.0179
 8567W        W24828   1.985  11.767  12.553 -0.0987 -0.1188  0.0831
 8568W        W24829  14.261  10.452   1.495  0.1289 -0.0092  0.3042
 8569W        W24830   3.861  14.396  16.128  0.0173 -0.0534  0.0549
 8570W        W24831   7.405   8.045   2.695 -0.1473 -0.2282 -0.0138
 8571W        W24832   7.801  17.911  11.503  0.0444 -0.0718 -0.1431
 8572W        W24833  10.087   7.326   0.138  0.0942  0.1643  0.0924
 8573W        W24834   8.162   6.199  13.499  0.2425  0.1968 -0.0988
 8574W        W24835   7.670  18.363  11.234 -0.2700 -0.1525 -0.0659
 8575W        W24836   7.127  17.575  11.415  0.0756  0.0756  0.1285
 8576W        W24837  12.947  14.925   4.803 -0.1528 -0.1284 -0.2303
 8577W        W24838  11.121   9.710   2.050  0.1287 -0.1955  0.0724
 8578W        W24839  14.734  10.594   2.105  0.2289 -0.2124  0.0937
 8579W        W24840   2.922  17.017   3.876  0.0780  0.0726 -0.1257
 8580W        W24841  13.257  12.120  15.966 -0.0018 -0.1585 -0.1438
 8581W        W24842   9.953   7.995  15.547 -0.2467 -0.1748  0.1390
 8582W        W24843   9.588   4.629   3.994 -0.0689  0.1899 -0.0259
 8583W        W24844   7.596   5.019   1.043  0.1031  0.0709 -0.0372
 8584W        W24845   0.520  15.730  15.945 -0.0187  0.1992  0.2536
 8585W        W24846   0.241  10.629  15.092  0.3185 -0.0662 -0.0001
 8586W        W24847  16.352   0.147  14.265  0.1436 -0.2368  0.3799
 8587W        W24848   3.789  10.429  15.218 -0.2031  0.2112 -0.3285
 8588W        W24849   3.650  11.824   2.042 -0.0924 -0.3182  0.1939
 8589W        W24850  17.458   0.370   0.913  0.1262  0.0948  0.0506
 8590W        W24851   8.344  16.647   0.085 -0.1712 -0.0540  0.0412
 8591W        W24852   0.173   9.137   4.232  0.0231  0.0326 -0.2030
 8592W        W24853   9.382   0.877   0.108 -0.0609  0.3459 -0.1943
 8593W        W24854   4.722   4.155   5.185 -0.0121  0.1545 -0.0467
 8594W        W24855   8.518  15.284   3.217 -0.0850  0.1150  0.0759
 8595W        W24856  15.811  11.967   2.793 -0.2814 -0.0335  0.3543
 8596W        W24857   7.336   6.619   3.734  0.1397  0.2370  0.5129
 8597W        W24858   3.750   8.184  14.826 -0.0228 -0.0433  0.1491
 8598W        W24859  13.052   6.474  15.272 -0.0912  0.1051  0.0383
 8599W        W24860  11.232  17.371   4.845 -0.2994  0.1561 -0.1107
 8600W        W24861   7.556   5.504   2.581  0.0686 -0.0527  0.1433
 8601W        W24862   9.907  14.615  11.272  0.0226  0.2225 -0.1281
 8602W        W24863  17.687   0.290  13.671  0.1087 -0.0105  0.0384
 8603W        W24864   7.191  16.224   2.463  0.2679 -0.2202 -0.0391
 8604W        W24865   7.962  18.371   5.009 -0.0765  0.1178 -0.1375
 8605W        W24866   4.671  10.786  11.574 -0.0314 -0.4612  0.2298
 8606W        W24867  14.306  16.738   5.383  0.2201 -0.1293 -0.0695
 8607W        W24868  10.538   7.140  13.645 -0.2632  0.1932  0.0337
 8608W        W24869   5.585  12.663  10.446 -0.1919  0.0911 -0.0215
 8609W        W24870   0.334   9.074  11.361 -0.2556  0.1034  0.0373
 8610W        W24871   5.248   0.872  14.391  0.0602 -0.0886 -0.0112
 8611W        W24872   5.318   0.196  13.529  0.1088  0.0015  0.2790
 8612W        W24873   3.627  18.298  13.805 -0.0918  0.0656 -0.1006
 8613W        W24874   6.409  17.769  12.081 -0.0901  0.2475  0.1678
 8614W        W24875  15.150  15.062  12.993  0.2033  0.2614  0.1202
 8615W        W24876   7.317   3.915   4.479  0.3707  0.1063 -0.2220
 8616W        W24877   4.260   0.096  14.454  0.2111  0.1519  0.0594
 8617W        W24878   7.282   3.479  12.502  0.2395 -0.4639 -0.0519
 8618W        W24879   3.486   2.548  12.503 -0.0088 -0.0042 -0.1503
 8619W        W24880   6.502   3.214   2.944 -0.2945  0.0532 -0.1193
 8620W        W24881   6.725  16.744   4.566 -0.1336 -0.1154 -0.2701
 8621W        W24882   4.718   8.119  14.714  0.0715 -0.2265  0.4552
 8622W        W24883   7.198  15.601   2.065  0.2389 -0.2807  0.2340
 8623W        W24884   1.618   5.908  12.419 -0.2656 -0.3618 -0.2630
 8624W        W24885  11.636  13.137   1.014  0.0249 -0.1278  0.0130
 8625W        W24886   9.346   0.555  11.162 -0.1517 -0.2408 -0.3754
 8626W        W24887  16.632   6.978  12.765 -0.1708 -0.0434  0.0952
 8627W        W24888   6.902   8.936   1.049  0.3911 -0.1398  0.0944
 8628W        W24889   1.407  18.098   5.344  0.3838 -0.2372 -0.1495
 8629W        W24890  14.896   2.965   5.062  0.1874 -0.1080  0.3285
 8630W        W24891   9.677   2.196  15.232  0.0930 -0.1893 -0.1377
 8631W        W24892   0.382  15.349  11.202  0.2244 -0.2718 -0.0043
 8632W        W24893  15.561   7.847   2.898  0.2034 -0.2950  0.1997
 8633W        W24894  15.721  12.054   2.242  0.2128 -0.0535  0.0450
 8634W        W24895   6.065  15.106   0.184  0.0852  0.0842  0.2516
 8635W        W24896  13.842  16.314  13.975  0.0313 -0.0400 -0.2730
 8636W        W24897  16.237  10.202  15.495  0.0137 -0.0477  0.1033
 8637W        W24898  16.599  15.998   5.031  0.0478 -0.1935  0.0865
 8638W        W24899  16.695   7.502  11.918 -0.0256 -0.1259 -0.3873
 8639W        W24900  17.710   8.991   4.762  0.1089 -0.0617 -0.0184
 8640W        W24901   5.848  14.730   1.792  0.0343  0.5189  0.1373
 8641W        W24902  10.456   2.088  12.286 -0.3531 -0.0822  0.1436
 8642W        W24903  13.403   6.839  14.981 -0.2421 -0.0162 -0.1109
 8643W        W24904   4.478   3.459  11.516 -0.0924 -0.3165  0.3448
 8644W        W24905  15.156  13.759   4.398  0.1511  0.0700 -0.0850
 8645W        W24906  15.198   8.071  12.930 -0.2973  0.1988 -0.0790
 8646W        W24907   7.231   4.386  15.636 -0.2558 -0.3856  0.2274
 8647W        W24908   6.932  15.798  15.150  0.0796 -0.1027  0.2184
 8648W        W24909  16.740   9.077   4.772 -0.0823 -0.1535  0.2835
 8649W        W24910  12.440  12.475  11.347 -0.0543  0.4155 -0.0196
 8650W        W24911   7.785   0.521  12.945  0.2581  0.1546 -0.0009
 8651W        W24912   0.258  14.542   0.472  0.5372 -0.0487 -0.4530
 8652W        W24913   9.132   1.589  14.650 -0.1382  0.3527 -0.0095
 8653W        W24914   3.300   1.687   3.287 -0.3366  0.1171 -0.1113
 8654W        W24915  14.297   2.916   0.173  0.1673 -0.1410 -0.1670
 8655W        W24916  10.300   3.579   3.502 -0.0158 -0.1394 -0.0448
 8656W        W24917   4.772   6.334   3.387 -0.0019 -0.0133  0.4017
 8657W        W24918  17.627  16.184  12.017  0.0805 -0.0494 -0.0994
 8658W        W24919   1.264  10.804   0.644  0.0004 -0.3306 -0.0888
 8659W        W24920   8.354   8.698   1.100  0.0911  0.0699 -0.1632
 8660W        W24921  13.786  12.546   2.389 -0.1876  0.3228 -0.1210
 8661W        W24922   7.087  12.168  13.662  0.0902  0.0238  0.0239
 8662W        W24923   9.989   9.042   0.103  0.1373 -0.1630  0.1731
 8663W        W24924  17.250  17.572  12.739  0.2069 -0.3034  0.0081
 8664W        W24925  12.083  11.671  11.345  0.3326  0.1751 -0.2201
 8665W        W24926   7.561   7.321  14.897 -0.0436 -0.0631 -0.2281
 8666W        W24927   4.870  12.358   0.416 -0.0661  0.1387  0.1067
 8667W        W24928   3.408  12.053   2.902  0.1262  0.0753  0.3621
 8668W        W24929   1.840   6.457  14.686  0.0170  0.1019  0.1673
 8669W        W24930  11.938   8.227  14.131 -0.0901  0.0396 -0.0368
 8670W        W24931   8.506  10.168  14.291 -0.1729 -0.0065  0.1636
 8671W        W24932  17.986   7.052   4.444  0.0416 -0.0867  0.3267
 8672W        W24933   1.242   7.334   2.718 -0.2195 -0.0584  0.1402
 8673W        W24934   1.984   0.159  12.103  0.2066  0.3546  0.1895
 8674W        W24935  16.130   8.829  11.579  0.1943 -0.0407  0.0899
 8675W        W24936  13.938  10.883  12.810 -0.0812  0.1418  0.1942
 8676W        W24937  12.487  12.498   5.108 -0.1798  0.4176 -0.2979
 8677W        W24938   1.011  18.231  11.780  0.1178 -0.3048  0.0785
 8678W        W24939  12.860   8.445  11.335  0.2006  0.0742 -0.2049
 8679W        W24940   4.863   3.899  15.506 -0.2173 -0.0001  0.1738
 8680W        W24941  10.050  12.788   2.768 -0.0140 -0.0170  0.1898
 8681W        W24942  10.224  16.854   1.876 -0.1467  0.1009  0.3038
 8682W        W24943  14.037   7.656  12.965  0.2808  0.0348  0.0023
 8683W        W24944   3.082   1.716  16.297  0.4110 -0.2352 -0.1446
 8684W        W24945   3.663  14.111  12.326 -0.0487 -0.1097  0.2241
 8685W        W24946   8.628   2.487   0.887 -0.1558 -0.1253  0.2502
 8686W        W24947  11.637   4.395   2.091  0.2811  0.3228 -0.3320
 8687W        W24948  13.673   8.457   4.847  0.3177  0.3284 -0.1854
 8688W        W24949   9.494  11.447  15.011 -0.2468  0.0456  0.3118
 8689W        W24950  10.328  18.204   1.268  0.1921 -0.2903 -0.0362
 8690W        W24951  16.022  10.073  14.614  0.1253  0.0530 -0.1171
 8691W        W24952  11.256   9.015  10.986 -0.1066  0.2378  0.1776
 8692W        W24953   2.783   3.645   5.036 -0.2205 -0.0202  0.1398
 8693W        W24954   4.006   4.695   0.221  0.0054  0.0970 -0.1938
 8694W        W24955   5.478   2.530   4.899 -0.0140 -0.0667 -0.1610
 8695W        W24956   2.564  15.060   2.322  0.1546 -0.0968  0.0813
 8696W        W24957   1.297   3.656  13.727  0.1061  0.0361 -0.2435
 8697W        W24958   6.705  11.303   1.848 -0.2372 -0.1000 -0.1303
 8698W        W24959  15.102   8.179   3.536  0.0953  0.1242  0.0362
 8699W        W24960   6.585  18.071   5.222 -0.2296 -0.0180 -0.1895
 8700W        W24961   1.743   8.076  16.059 -0.4262 -0.0455 -0.1426
 8701W        W24962  11.833   6.086  11.053 -0.0369  0.1211 -0.0633
 8702W        W24963   2.478   9.522  14.223 -0.3449  0.2171  0.1305
 8703W        W24964   4.488  11.725  11.570 -0.1983  0.0103  0.2810
 8704W        W24965  13.607  10.606   4.381  0.0459  0.0618  0.1175
 8705W        W24966   9.878   1.413   3.138 -0.1794 -0.0336  0.2165
 8706W        W24967  14.840   7.234   5.540  0.1108 -0.0588  0.1987
 8707W        W24968   2.321  11.680  13.589 -0.1300  0.0953 -0.4037
 8708W        W24969   3.791  15.500  12.328  0.0530  0.2205 -0.1076
 8709W        W24970   8.982  12.198   1.912  0.1167 -0.0374  0.0974
 8710W        W24971   1.860  16.872  14.047  0.2212  0.1452  0.0500
 8711W        W24972   3.658  13.449   0.617  0.0844  0.0951 -0.2303
 8712W        W24973   6.659  16.067  12.694  0.0282  0.2211 -0.2872
 8713W        W24974  16.326   7.781   0.466 -0.1830  0.1115  0.6870
 8714W        W24975   6.358   7.653   3.902 -0.2841  0.0058  0.0909
 8715W        W24976   8.405   7.408  12.075 -0.1445  0.4064  0.1993
 8716W        W24977   7.028   3.406   3.013 -0.0176  0.0064 -0.3419
 8717W        W24978  11.436   9.506   0.360  0.0145 -0.2002 -0.0893
 8718W        W24979  11.554  14.479  16.146  0.0451 -0.0561 -0.0812
 8719W        W24980   5.221   1.238  11.618  0.1030 -0.2022 -0.1591
 8720W        W24981  11.299  13.618  16.022 -0.3566 -0.1934  0.2491
 8721W        W24982   7.749  13.195   2.198 -0.0466  0.0315 -0.2760
 8722W        W24983   3.371  16.139  14.625 -0.2353 -0.2406  0.1715
 8723W        W24984   9.459  16.629   0.635 -0.0260  0.0217  0.0801
 8724W        W24985   0.855  18.222   2.598 -0.0460  0.2019 -0.1380
 8725W        W24986   6.344   1.315  15.966 -0.1525 -0.1216  0.1270
 8726W        W24987  10.978  16.400  15.021  0.0545 -0.1820  0.2831
 8727W        W24988  12.457   9.516  13.005  0.2303  0.1454  0.0621
 8728W        W24989  18.201   0.370  13.816  0.0031 -0.0518 -0.1331
 8729W        W24990  12.310   7.272   2.938  0.2284 -0.3000  0.1409
 8730W        W24991   4.685  10.797  13.494 -0.2307 -0.1285 -0.0983
 8731W        W24992  15.867  11.469   2.056  0.0581 -0.2017  0.0249
 8732W        W24993  15.632  13.895   0.523 -0.1303  0.0762  0.0747
 8733W        W24994   2.677  14.202  14.049 -0.0134  0.2173 -0.2046
 8734W        W24995  18.389   6.782   3.559  0.1470 -0.0083  0.2952
 8735W        W24996  15.535  17.302   5.697  0.2846 -0.2002 -0.2692
 8736W        W24997   1.994  16.304   2.089 -0.0469 -0.2281 -0.1764
 8737W        W24998  13.367   0.507   3.687  0.1287 -0.1994 -0.1046
 8738W        W24999  15.332   3.978  12.023 -0.3281  0.2277 -0.0199
 8739W        W25000   4.761   4.320  13.417 -0.0178  0.2179 -0.0532
 8740W        W25001   2.911  17.571  11.649 -0.0479  0.0529  0.3176
 8741W        W25002  11.046  10.203   3.814  0.0043  0.1563 -0.2612
 8742W        W25003  13.014  10.995   0.862  0.0001 -0.1043 -0.3614
 8743W        W25004   6.206  14.818  14.742  0.2586  0.1940  0.0150
 8744W        W25005  16.223   6.620   2.628  0.2658 -0.0204  0.2427
 8745W        W25006   7.075   2.065   5.389  0.1115  0.1089  0.0679
 8746W        W25007  15.832   1.030  14.528 -0.0165 -0.1194 -0.0196
 8747W        W25008   6.636   5.773  14.836  0.0106 -0.0166  0.2100
 8748W        W25009  10.262  13.006  10.495 -0.0366  0.1299 -0.1520
 8749W        W25010  15.519   6.558  15.395 -0.1842 -0.4389  0.0703
 8750W        W25011  14.322   1.188   2.918 -0.0570  0.0095 -0.0621
 8751W        W25012   9.154  15.901  11.531 -0.0813 -0.1741  0.0112
 8752W        W25013   6.263   3.062  11.974 -0.0398  0.0798 -0.0410
 8753W        W25014  15.588  12.444  14.546 -0.3568  0.1730 -0.0095
 8754W        W25015  12.176  15.375  11.586  0.2401 -0.2552  0.2018
 8755W        W25016   7.361   9.482  15.091  0.0014 -0.1472  0.1931
 8756W        W25017  11.084  15.671   2.726  0.1988  0.2167  0.0139
 8757W        W25018   5.899   3.888  13.207 -0.2079  0.3007  0.0453
 8758W        W25019  16.607   2.114   5.455 -0.3315  0.1572 -0.2476
 8759W        W25020   1.649   7.234  16.183  0.4033 -0.1689  0.1903
 8760W        W25021   4.566  14.847   4.690 -0.1465  0.1364  0.0284
 8761W        W25022  17.363   1.497   3.063 -0.1899  0.3674 -0.2540
 8762W        W25023   7.371  10.605   0.686 -0.2376 -0.0646  0.1185
 8763W        W25024   5.560   2.695   3.898 -0.1014 -0.0453  0.0758
 8764W        W25025  13.641   1.576  15.826  0.0099  0.2467 -0.2167
 8765W        W25026  14.475  13.045   4.428 -0.1844 -0.1171 -0.0076
 8766W        W25027  16.296  12.463   3.593 -0.1177  0.1584 -0.1515
 8767W        W25028   2.153   9.352   4.932 -0.1771  0.2143  0.0301
 8768W        W25029  11.513  14.845  11.709  0.2478  0.0844  0.0085
 8769W        W25030  12.492  15.913   3.069  0.2955  0.1435 -0.3640
 8770W        W25031  17.480   9.289   1.296 -0.0848 -0.0701 -0.1055
 8771W        W25032  15.172   9.628  13.678  0.1222  0.1281 -0.2486
 8772W        W25033  14.351  17.744   0.458 -0.0214 -0.0715  0.2058
 8773W        W25034   7.044   5.726  14.089 -0.0903  0.1174  0.0305
 8774W        W25035  16.318  17.734   3.220  0.1869  0.1760  0.2427
 8775W        W25036   8.620   0.057   2.344  0.2161  0.2547 -0.0536
 8776W        W25037  17.051  14.934   4.067  0.1753 -0.2604  0.0181
 8777W        W25038   0.934   6.048  14.151  0.2849  0.1882  0.0535
 8778W        W25039  14.986   8.915   0.750 -0.3337  0.1658  0.0522
 8779W        W25040   3.432  16.087   2.544  0.1080 -0.0848 -0.1337
 8780W        W25041  10.333  16.450   4.462  0.1646 -0.1060 -0.0288
 8781W        W25042   4.128  16.840   1.336 -0.0375 -0.1320 -0.3084
 8782W        W25043  12.710  14.351  11.763 -0.0593 -0.1470 -0.2757
 8783W        W25044  14.524   9.747   1.360  0.1165 -0.1997  0.0350
 8784W        W25045   5.212  14.840  12.389 -0.0344  0.2582  0.0850
 8785W        W25046   2.708  14.015   1.230 -0.0197 -0.0249  0.1743
 8786W        W25047   4.752   7.565   3.902 -0.2177 -0.4673 -0.0610
 8787W        W25048  10.726  10.686   5.808  0.4807 -0.2290  0.2490
 8788W        W25049  15.720   9.129  11.726  0.0498  0.0449  0.1347
 8789W        W25050  16.358   5.981   4.967  0.1091  0.0825 -0.1137
 8790W        W25051   8.858  14.985   3.578 -0.0686  0.1970  0.1857
 8791W        W25052   6.035   3.367   4.715 -0.2014  0.1112 -0.0809
 8792W        W25053   1.353   4.894   3.922 -0.2317 -0.0086 -0.0844
 8793W        W25054   4.807  14.268   2.209 -0.3304 -0.2604 -0.2405
 8794W        W25055   8.359  15.703   3.427  0.4012 -0.0190 -0.1305
 8795W        W25056   8.650   7.405  14.990  0.2285 -0.0997 -0.0583
 8796W        W25057   8.378   0.512  13.930 -0.1008  0.0519  0.1192
 8797W        W25058  13.102  13.448  12.983 -0.0750 -0.0046 -0.1792
 8798W        W25059   5.612  14.644   4.650 -0.3535  0.0658  0.2551
 8799W        W25060  14.726   8.247  12.012 -0.0075 -0.1508 -0.1092
 8800W        W25061   8.670  17.169   5.216  0.1425 -0.0232  0.2637
 8801W        W25062  12.767  10.710   5.307  0.1463 -0.0605 -0.1998
 8802W        W25063   0.738   4.175  13.568 -0.0915 -0.0489  0.1205
 8803W        W25064   7.859   0.938  13.280  0.0365 -0.2661 -0.0514
 8804W        W25065  15.122  10.697  14.759  0.0490 -0.2877 -0.2134
 8805W        W25066  13.313   3.034  12.186 -0.0912  0.0037 -0.4356
 8806W        W25067  17.307   1.567   2.540 -0.3032  0.1393 -0.0793
 8807W        W25068  17.404  11.927  16.056 -0.0624 -0.0653 -0.0507
 8808W        W25069   5.272  15.288  16.209  0.2208 -0.0657 -0.0803
 8809W        W25070   5.091   8.562  11.200  0.1240  0.0639 -0.0180
 8810W        W25071  14.559   6.842   2.968  0.0659  0.1772 -0.1702
 8811W        W25072  17.180   5.023   0.260 -0.0688  0.2781 -0.5274
 8812W        W25073  15.782   1.355   5.578 -0.0755  0.1335 -0.2878
 8813W        W25074   4.706  11.709  15.006  0.0030  0.1425  0.2755
 8814W        W25075  13.040   8.519   3.512 -0.3073 -0.3310 -0.0415
 8815W        W25076   6.360   9.475   2.088  0.1520 -0.0434  0.1543
 8816W        W25077  15.335  12.885   0.297 -0.0926  0.0637 -0.1677
 8817W        W25078  17.011   7.724  16.054 -0.0944 -0.0089  0.0615
 8818W        W25079   3.516   2.287   5.851  0.2251 -0.3864  0.0865
 8819W        W25080   6.170   7.353  15.050  0.1457 -0.1177 -0.3460
 8820W        W25081  11.907   4.339  12.552 -0.1722  0.0002 -0.0696
 8821W        W25082  16.828   9.840   3.104  0.1408 -0.3167 -0.1058
 8822W        W25083   1.637   3.877   4.943 -0.3105  0.0462 -0.0245
 8823W        W25084   6.936   9.875   3.563  0.1098  0.0262 -0.1940
 8824W        W25085  16.145   0.323   6.217  0.0158  0.0276  0.1900
 8825W        W25086  14.563  13.531   3.693  0.0430 -0.0019  0.0874
 8826W        W25087  17.096   3.378  12.330  0.1765  0.0211  0.2285
 8827W        W25088  11.297   6.861  15.400  0.2665  0.0225  0.0474
 8828W        W25089  14.173   0.921  11.723  0.1795  0.2986  0.3006
 8829W        W25090  17.582  10.589   4.816  0.2176 -0.2428  0.1170
 8830W        W25091   2.153  13.024   4.843  0.3094  0.0049  0.1992
 8831W        W25092  14.538  13.440  11.984 -0.2502  0.0298 -0.0523
 8832W        W25093   6.037   3.848   5.392  0.1033  0.0366  0.2969
 8833W        W25094  17.210   4.830  12.979  0.1254  0.1289 -0.0567
 8834W        W25095  13.351   5.899  15.527 -0.0392  0.1267  0.2866
 8835W        W25096   8.721   1.511  12.497  0.0918 -0.0561  0.0946
 8836W        W25097  16.846   3.770   0.449  0.3952 -0.1185  0.2904
 8837W        W25098  14.380   0.318   4.116  0.3411  0.1390 -0.2197
 8838W        W25099   2.913  10.663  12.633 -0.1882 -0.2982 -0.0235
 8839W        W25100  16.654  10.328   1.731 -0.1078  0.2620 -0.1252
 8840W        W25101   2.296   7.098   4.377  0.2195 -0.0822 -0.0754
 8841W        W25102   9.391  14.282  13.958  0.0499 -0.1639  0.3133
 8842W        W25103  17.068  11.817   3.541  0.0068 -0.2183  0.3111
 8843W        W25104   8.506  15.728  12.359  0.3329  0.2625 -0.1939
 8844W        W25105   3.268   2.670   2.249  0.2996 -0.3421 -0.1461
 8845W        W25106  13.618   2.685   2.577 -0.1310 -0.0277 -0.1772
 8846W        W25107   6.459  16.897   5.075  0.0580  0.0406  0.1165
 8847W        W25108  10.498  17.251  12.347 -0.2332 -0.0069  0.0386
 8848W        W25109   7.352   8.718   5.035  0.2287 -0.0909  0.3535
 8849W        W25110  10.233   9.575   4.690 -0.0799  0.1017  0.3519
 8850W        W25111   2.608  11.411   0.544  0.0256  0.2714  0.6095
 8851W        W25112  12.972   5.487  13.910 -0.3935 -0.0685  0.1140
 8852W        W25113  14.766   8.883  11.308 -0.0636  0.0186  0.3815
 8853W        W25114  15.086  16.766  14.584 -0.1674  0.0044  0.3051
 8854W        W25115  12.033  13.523  13.500 -0.1428 -0.0216 -0.1089
 8855W        W25116  16.099  16.659   5.562 -0.0960 -0.0514 -0.1629
 8856W        W25117   1.039   4.236   4.222  0.2576  0.0817  0.0011
 8857W        W25118  13.617  16.823  15.540  0.1694 -0.1453  0.3100
 8858W        W25119   0.631  16.720   4.734 -0.0192  0.0641  0.2886
 8859W        W25120   4.650   1.821   2.266 -0.2110 -0.0063 -0.0305
 8860W        W25121  14.505  10.989  12.646 -0.2356 -0.0648 -0.1031
 8861W        W25122   9.027  16.804  15.837  0.1167  0.0943 -0.1331
 8862W        W25123  17.208   4.957   1.791  0.0906  0.1323 -0.0952
 8863W        W25124   3.177   4.123   0.141 -0.0191  0.2999 -0.0269
 8864W        W25125   8.950   1.736  12.071 -0.0180  0.2592  0.1655
 8865W        W25126  15.231  14.760  11.862 -0.1777  0.2996 -0.0076
 8866W        W25127  13.021   7.215  12.919 -0.0500  0.0692  0.2462
 8867W        W25128   4.771  13.967   3.516 -0.0721  0.0965 -0.0058
 8868W        W25129   4.477   1.876  14.289  0.2067  0.4635  0.0618
 8869W        W25130  17.530  17.684  16.021 -0.2662 -0.0744  0.1100
 8870W        W25131   2.913   8.891   5.017  0.1668  0.0364  0.2820
 8871W        W25132   8.485   6.710  13.672  0.0163  0.2543 -0.0209
 8872W        W25133  12.475  10.809  11.056 -0.2135 -0.0969  0.2371
 8873W        W25134  17.540  17.926   4.718 -0.1794 -0.0202 -0.1606
 8874W        W25135   5.914   7.886   1.559  0.3220 -0.1839 -0.2197
 8875W        W25136  10.027   6.634   9.602  0.2480  0.1569 -0.0437
 8876W        W25137  15.192   9.770   3.293  0.2394  0.2024 -0.1823
 8877W        W25138  13.708   2.861  12.813  0.2425 -0.2342 -0.1443
 8878W        W25139   9.807  14.874   0.284  0.1276 -0.1669 -0.0436
 8879W        W25140   7.922   7.239  14.449  0.0186 -0.3709  0.2590
 8880W        W25141  10.146   4.894  12.294  0.1578  0.1979  0.2684
 8881W        W25142  10.122  16.063   5.356 -0.0754  0.2177 -0.1720
 8882W        W25143  10.261   0.557   4.793 -0.2435  0.0272 -0.0374
 8883W        W25144   0.580  14.097  11.449  0.4013  0.1770 -0.0224
 8884W        W25145   9.439  12.200  11.130 -0.1564  0.1549  0.1113
 8885W        W25146   4.255   1.726   1.969  0.2446  0.0756  0.2198
 8886W        W25147  14.920   0.210   6.027 -0.2615  0.0608  0.2491
 8887W        W25148   0.264   5.953   1.937  0.1842 -0.0249 -0.1390
 8888W        W25149  15.503   5.187   4.324  0.0686  0.2279  0.0189
 8889W        W25150   7.319   6.311   0.192 -0.1078  0.2221  0.3023
 8890W        W25151  10.035  11.487   4.108  0.3032 -0.0404 -0.0251
 8891W        W25152   6.274  14.872   1.459  0.0581 -0.1148 -0.3276
 8892W        W25153  14.886   4.889  15.838 -0.2760 -0.1181 -0.1000
 8893W        W25154   1.149   2.709  14.405 -0.1221  0.2728  0.2059
 8894W        W25155   9.740  14.401  10.805  0.2462 -0.1844 -0.1514
 8895W        W25156   5.266   8.509   4.361 -0.1150 -0.0083  0.0221
 8896W        W25157   8.016  18.263  12.738  0.0995 -0.0686 -0.3124
 8897W        W25158   8.986  10.544   0.737 -0.2725  0.3428 -0.2552
 8898W        W25159   0.926  11.584  13.928  0.1768  0.0187 -0.1591
 8899W        W25160   9.012  12.257  10.870 -0.1693  0.2461  0.2556
 8900W        W25161   6.017   0.312   0.386 -0.0051 -0.0998  0.1028
 8901W        W25162  12.884  16.446   1.140  0.1709 -0.3231 -0.1620
 8902W        W25163   1.362   9.278   1.761 -0.1738 -0.2900  0.2068
 8903W        W25164  11.642  12.837  14.881 -0.1570 -0.1765 -0.1749
 8904W        W25165  13.787   5.550  15.509 -0.1723 -0.0440 -0.3099
 8905W        W25166   3.033  12.333   3.030  0.1712  0.0395  0.2404
 8906W        W25167  12.666   6.168   0.983  0.1046 -0.0635  0.0857
 8907W        W25168   1.723   8.444   3.909 -0.1934 -0.4879  0.0643
 8908W        W25169  17.732  16.082   4.447  0.0570  0.2820  0.1598
 8909W        W25170  16.424   2.862  13.270  0.1872  0.0120  0.2833
 8910W        W25171   4.507   0.457  10.579 -0.3679  0.1730 -0.2295
 8911W        W25172  17.708  13.997   5.440 -0.2557 -0.3368  0.0925
 8912W        W25173   0.661   9.256   4.084 -0.3020  0.2344 -0.1193
 8913W        W25174  13.327  13.161  11.991 -0.1755  0.2354 -0.1359
 8914W        W25175  13.610   4.228   1.982  0.3791 -0.0424 -0.0261
 8915W        W25176  16.655  12.652   2.324  0.0315 -0.1103  0.0483
 8916W        W25177   5.188  17.202   3.702  0.0905 -0.2639 -0.2154
 8917W        W25178  10.103  10.776   0.451 -0.2143 -0.3320 -0.0676
 8918W        W25179  15.923  18.285  15.323  0.0130  0.0054 -0.0453
 8919W        W25180  16.720   2.425   1.406  0.0471  0.3010 -0.0088
 8920W        W25181   7.119   3.006   0.896  0.0544  0.2770  0.1276
 8921W        W25182  14.670   4.644   1.959 -0.1920 -0.1327  0.2891
 8922W        W25183  17.145   2.658   1.309 -0.1150 -0.2776  0.3237
 8923W        W25184  15.296   3.121   1.851  0.0660 -0.1395 -0.0826
 8924W        W25185   8.762  15.420   2.304 -0.1602  0.1812  0.4032
 8925W        W25186  11.872   5.575  14.902  0.2531 -0.2136  0.0059
 8926W        W25187   5.866   9.785   1.890  0.2548 -0.2673 -0.3322
 8927W        W25188  15.287   4.073   2.465  0.3849  0.1063  0.0135
 8928W        W25189   3.839   4.912   6.275 -0.0047 -0.2486  0.0060
 8929W        W25190  16.704  13.975  12.175  0.0323 -0.0799 -0.0312
 8930W        W25191  11.684  17.394   0.491  0.1884 -0.3739  0.1620
 8931W        W25192   7.568   3.607  12.886  0.1685  0.0717 -0.1794
 8932W        W25193   3.627   3.460   0.835 -0.1353  0.1425  0.1751
 8933W        W25194   9.384   5.326   1.658  0.1068  0.2996  0.1850
 8934W        W25195   9.943   0.301  14.530 -0.2043  0.1119 -0.0817
 8935W        W25196   3.163  11.919   4.302  0.1489  0.0524  0.1288
 8936W        W25197  17.753  16.974  11.413 -0.2204 -0.1013 -0.2092
 8937W        W25198  15.855   8.212   5.331  0.2054  0.2238  0.1627
 8938W        W25199   6.431   4.135   5.336 -0.1580  0.1252 -0.0245
 8939W        W25200  16.547   8.668   0.633 -0.0921  0.4074 -0.1203
 8940W        W25201  17.701  11.425  13.700 -0.3693  0.0834 -0.1392
 8941W        W25202   3.618   4.971   3.362  0.1587 -0.2250 -0.0177
 8942W        W25203   1.887   2.718   3.962  0.0483  0.0979 -0.0665
 8943W        W25204  13.457   8.419   1.067 -0.3747  0.1216 -0.0896
 8944W        W25205  16.227  11.845   1.910  0.0526 -0.0211 -0.0675
 8945W        W25206   2.559   5.699   3.020 -0.0097 -0.0433 -0.0803
 8946W        W25207   2.542  12.503   3.089 -0.0768  0.0711  0.2529
 8947W        W25208   0.783  15.804  13.717  0.3227 -0.2230  0.2515
 8948W        W25209   4.713   3.330  15.681 -0.1558  0.3125 -0.1322
 8949W        W25210  11.343   5.424  15.384  0.1427  0.4931 -0.1165
 8950W        W25211  12.595   0.678  12.184  0.1305  0.3598 -0.0892
 8951W        W25212  15.958  11.479   2.869 -0.0834  0.0271 -0.0405
 8952W        W25213   1.984  16.775   4.319  0.1770 -0.0679  0.2525
 8953W        W25214  10.154  12.697   1.295  0.0645 -0.2319 -0.1242
 8954W        W25215   0.746  12.963  12.000  0.1185 -0.0183 -0.0616
 8955W        W25216   7.331   4.650  14.826 -0.2946  0.0152  0.0158
 8956W        W25217   4.231  10.454  13.921 -0.2271 -0.0691 -0.2563
 8957W        W25218   7.327  11.257   6.153  0.1055  0.3112  0.0843
 8958W        W25219   7.692   6.741   1.943 -0.0048 -0.0141  0.0525
 8959W        W25220   9.790   3.648   4.233  0.1947 -0.0307 -0.0163
 8960W        W25221   3.761  12.904   2.982  0.2303  0.2211 -0.0237
 8961W        W25222   5.763   2.738   0.975 -0.0161  0.1205  0.2100
 8962W        W25223   8.400   7.900  12.766  0.0230 -0.1461 -0.1025
 8963W        W25224  11.445  17.317   4.366 -0.0570  0.0629  0.3685
 8964W        W25225   3.864  13.223  12.533 -0.2773  0.0254 -0.1572
 8965W        W25226   6.086  13.551   2.382 -0.0463 -0.2755 -0.1498
 8966W        W25227   7.269   8.765  11.107 -0.2498  0.1281  0.0851
 8967W        W25228  14.129  17.572  11.391  0.0666  0.2999 -0.0453
 8968W        W25229   5.331  16.082  16.104  0.3188 -0.1460  0.1211
 8969W        W25230  17.752   3.031   2.925  0.6760  0.1305  0.1584
 8970W        W25231   4.120  15.383  10.549  0.0990  0.1675 -0.0894
 8971W        W25232  17.714  12.176   2.003  0.0530  0.0813  0.0129
 8972W        W25233  13.293   9.790   2.440  0.1523  0.2966  0.0053
 8973W        W25234   8.907  14.062   1.310  0.2561 -0.0153  0.0285
 8974W        W25235  17.469   1.579  13.312  0.1992  0.0971  0.0947
 8975W        W25236   1.469  17.798   4.955 -0.1010 -0.0763  0.1942
 8976W        W25237  15.430  17.836  15.008  0.2680 -0.1439  0.2935
 8977W        W25238  18.054  12.760  12.283  0.2193 -0.0900 -0.1086
 8978W        W25239  13.209  13.021   4.876  0.2200  0.0496 -0.0935
 8979W        W25240  10.098  17.626  11.537  0.1041 -0.3549  0.1752
 8980W        W25241  10.598  14.543   0.491 -0.1700  0.1481  0.3870
 8981W        W25242   5.449  14.380   4.229 -0.3022  0.0127 -0.1976
 8982W        W25243  18.376  11.509   3.992  0.0574 -0.2287  0.2145
 8983W        W25244   6.786  12.626  12.134  0.1398  0.5417 -0.0450
 8984W        W25245  14.555   5.987   3.430  0.2103 -0.0132  0.1815
 8985W        W25246   4.764   2.179  15.890 -0.1374  0.0670  0.1908
 8986W        W25247   9.991   4.715  14.480  0.3174  0.2951 -0.2042
 8987W        W25248   6.925   4.167   1.549 -0.2071 -0.0277  0.1402
 8988W        W25249   1.378  14.675   2.139 -0.2684 -0.4396  0.0390
 8989W        W25250  12.675   0.607  15.703  0.1900  0.2676  0.0145
 8990W        W25251  17.465   7.059   4.526  0.1062  0.1695  0.0340
 8991W        W25252   8.462  13.073   3.350 -0.1029  0.0965  0.0765
 8992W        W25253   0.389   8.111   2.367  0.1375  0.1893  0.0081
 8993W        W25254   9.127   4.464   0.828 -0.0269  0.0159 -0.0054
 8994W        W25255  11.733  15.818   0.232 -0.2292 -0.0640  0.2062
 8995W        W25256   3.075   6.133  15.719  0.3616  0.0162  0.1693
 8996W        W25257  10.512   0.866  12.689 -0.0663 -0.2958 -0.0690
 8997W        W25258   1.939  18.199   2.400  0.1118 -0.0258 -0.1645
 8998W        W25259   7.461   1.427   1.216 -0.2368  0.1492  0.2035
 8999W        W25260  14.173   5.359   1.880 -0.0515 -0.0843 -0.1652
 9000W        W25261  11.217  17.337  11.377 -0.0384 -0.2267  0.0357
 9001W        W25262   9.093  17.649   4.646 -0.1685 -0.2731 -0.0806
 9002W        W25263   3.019  15.714   2.350 -0.1559 -0.0790 -0.0221
 9003W        W25264   1.859  12.811  15.777 -0.2335  0.2903 -0.0318
 9004W        W25265  12.668   6.859  15.452 -0.0116  0.2028 -0.1066
 9005W        W25266   1.317  16.084   4.848  0.0777 -0.1483 -0.0711
 9006W        W25267  13.524  17.381   1.047  0.0149  0.1754 -0.2573
 9007W        W25268   2.754  11.812  12.206 -0.2447  0.1421  0.0105
 9008W        W25269  11.231   2.746  15.616 -0.0336  0.0171  0.0520
 9009W        W25270   3.240   3.814   4.263 -0.4517 -0.1115 -0.0321
 9010W        W25271  13.121   8.651   1.336 -0.1093 -0.2136  0.0765
 9011W        W25272  17.390  12.390  11.602 -0.1565 -0.0661 -0.0961
 9012W        W25273   5.315  11.492   2.398 -0.0644 -0.0320 -0.2906
 9013W        W25274  15.047   4.944   2.163  0.0107  0.0947 -0.0961
 9014W        W25275  15.369   8.496  12.189  0.1362  0.0448 -0.1672
 9015W        W25276   1.801   2.387   1.331 -0.0568  0.1577  0.1403
 9016W        W25277   1.261  13.013  13.540  0.0002  0.1468  0.2693
 9017W        W25278  18.216   5.534   1.430 -0.3657  0.0674 -0.1730
 9018W        W25279  15.336  17.862   4.410  0.0251  0.0942 -0.0470
 9019W        W25280  11.222   0.472  14.329  0.2082  0.0039 -0.1827
 9020W        W25281  11.392  15.145   3.647 -0.1145  0.0601 -0.0077
 9021W        W25282  17.885   3.588   4.551 -0.1452 -0.0663 -0.1615
 9022W        W25283  11.796   0.429   0.033  0.1446 -0.3292  0.2246
 9023W        W25284  12.272   7.575  14.726  0.0435  0.1701 -0.0356
 9024W        W25285  17.279   2.228  15.827  0.1511 -0.1436  0.0823
 9025W        W25286  11.736   2.228   4.964  0.3537 -0.1607 -0.0360
 9026W        W25287  11.468   4.975   4.852 -0.2943  0.0183  0.1271
 9027W        W25288  10.802   0.793  15.138 -0.2310  0.0525 -0.0345
 9028W        W25289  11.765  10.860  15.401  0.3233 -0.2602  0.1462
 9029W        W25290   7.036   3.850  12.920 -0.2643  0.1979  0.3517
 9030W        W25291   0.322   2.079  13.388  0.0874 -0.3757 -0.2722
 9031W        W25292  13.260  10.665  16.267 -0.1489  0.1362  0.0041
 9032W        W25293   9.451  15.760   1.361 -0.0918 -0.1186  0.0904
 9033W        W25294   9.294   3.599  13.494  0.2704  0.2829 -0.1070
 9034W        W25295   7.806   1.534   4.511 -0.1480 -0.0243 -0.1356
 9035W        W25296  17.694  10.865   3.485 -0.2172  0.0639 -0.0017
 9036W        W25297  13.737   0.616  14.972  0.0027 -0.0753  0.0475
 9037W        W25298   5.841   7.729  15.137  0.2837  0.2062 -0.1178
 9038W        W25299   8.703  18.339  13.139 -0.1714 -0.0335 -0.0363
 9039W        W25300   1.868  18.028   1.894 -0.3980  0.1601  0.0162
 9040W        W25301   9.749   0.654   0.929  0.1281 -0.1287  0.0076
 9041W        W25302   5.133   5.510  14.076  0.1278 -0.1391  0.2534
 9042W        W25303   7.846   7.598  13.043  0.2846 -0.3809 -0.0548
 9043W        W25304   4.089  10.135   4.503  0.2058  0.4438  0.3022
 9044W        W25305   3.704   5.738   3.893 -0.1841  0.1639 -0.1211
 9045W        W25306  11.512   7.643  11.239  0.1300 -0.0404  0.1268
 9046W        W25307  13.416   0.109  12.418  0.1092 -0.1559 -0.2674
 9047W        W25308   6.196   1.530   2.594  0.0607  0.3595 -0.2204
 9048W        W25309   6.306  12.785   3.798 -0.1789  0.3648 -0.0701
 9049W        W25310   6.870  17.276   5.803  0.2189  0.0316 -0.1193
 9050W        W25311   1.345  10.337   3.764 -0.0128 -0.2397  0.1539
 9051W        W25312   5.163  18.312   4.436  0.2441 -0.5783  0.2211
 9052W        W25313   6.325  12.353   0.177 -0.1176  0.3194 -0.0164
 9053W        W25314   3.383  13.684   3.069  0.0338  0.4041  0.2809
 9054W        W25315  14.563   7.324   0.098  0.4758  0.0050  0.0604
 9055W        W25316   2.338   3.747  15.789  0.0734  0.0634 -0.1984
 9056W        W25317  11.594  16.898  11.708 -0.2543  0.2429 -0.0088
 9057W        W25318   9.543   9.221   3.246  0.0739  0.0204 -0.1433
 9058W        W25319  12.998   3.281  12.993 -0.1933  0.5362 -0.0432
 9059W        W25320   9.469   5.708   4.647 -0.1260 -0.0907  0.1431
 9060W        W25321   0.388   3.476  13.283  0.2189 -0.7414  0.2446
 9061W        W25322   3.222  14.259   1.355  0.4489 -0.0477 -0.0223
 9062W        W25323  15.219  14.959   1.870 -0.1442  0.0409 -0.0110
 9063W        W25324  14.135   7.580   0.305 -0.0223 -0.0746 -0.1656
 9064W        W25325   2.860   8.506   1.854 -0.0117  0.2537  0.1607
 9065W        W25326   3.747   6.405   3.454  0.0065 -0.0705 -0.0922
 9066W        W25327   3.512   9.555   3.127  0.1717 -0.0556  0.1980
 9067W        W25328  15.458  11.371  15.823 -0.2043 -0.2219 -0.0649
 9068W        W25329   5.419   0.705  15.861 -0.0338  0.2193  0.2630
 9069W        W25330   3.867   4.557   1.661  0.1511 -0.3109  0.0130
 9070W        W25331   2.135  11.705  15.774  0.1385  0.0899 -0.4103
 9071W        W25332   4.334   9.304  15.567 -0.0390  0.1273  0.1903
 9072W        W25333  14.976  11.919  15.491  0.0980  0.1271 -0.1921
 9073W        W25334   5.075  15.208   2.345  0.0826 -0.1847 -0.1062
 9074W        W25335  12.869   0.977   2.235  0.0057 -0.2927 -0.3196
 9075W        W25336  12.913   6.428  14.017 -0.2177 -0.0657 -0.2429
 9076W        W25337  15.366   8.475   4.464 -0.1888 -0.1196  0.1268
 9077W        W25338   9.973  16.241   4.794 -0.1219 -0.1038 -0.0172
 9078W        W25339  12.591  16.478  11.877  0.0410  0.0558  0.1112
 9079W        W25340  13.188   1.544  11.745  0.2155  0.0937 -0.4089
 9080W        W25341   6.551   6.056  13.132 -0.2585  0.0083 -0.1906
 9081W        W25342  15.720  11.580  14.140  0.1309 -0.1666 -0.0454
 9082W        W25343  16.866   4.629   3.331  0.2546  0.0008  0.1379
 9083W        W25344   4.778  15.523  12.361 -0.1107 -0.1675  0.0559
 9084W        W25345  15.778   9.006   4.934  0.1495 -0.2918 -0.0805
 9085W        W25346   2.702   2.015   5.440  0.1682  0.0373  0.0622
 9086W        W25347   1.947   6.949   2.205 -0.1555 -0.1298 -0.2661
 9087W        W25348   5.344   7.208  13.417  0.1270 -0.0331 -0.0996
 9088W        W25349   1.958  13.486  12.407  0.2193  0.0097 -0.3053
 9089W        W25350   9.686  17.738  16.120 -0.0562  0.0393  0.0209
 9090W        W25351   2.256  13.988  12.590 -0.0478 -0.1691 -0.2063
 9091W        W25352  12.737   6.015   3.317  0.1783  0.0409 -0.0061
 9092W        W25353   9.889  17.152   3.750 -0.1798 -0.1604 -0.0671
 9093W        W25354  17.264   0.111   5.312  0.0212  0.1828 -0.0879
 9094W        W25355   2.969  17.597  14.876  0.1273 -0.3224  0.2177
 9095W        W25356  10.318   4.777   5.278  0.0389  0.1221 -0.0968
 9096W        W25357   9.709  12.984  11.247 -0.0822  0.2490 -0.0321
 9097W        W25358  17.491   3.290   5.139 -0.1371  0.0956  0.1133
 9098W        W25359   8.422  11.829  16.111  0.2278 -0.0885  0.0770
 9099W        W25360  10.729  14.265  15.641 -0.1932 -0.1047 -0.0449
 9100W        W25361   2.093   1.185   1.763 -0.0846  0.0879 -0.2860
 9101W        W25362  10.338   9.120  15.968  0.0743  0.1610  0.1180
 9102W        W25363   2.316   8.105   0.007 -0.0010  0.2158  0.1585
 9103W        W25364   4.749   3.109   1.789  0.0517 -0.4711 -0.0317
 9104W        W25365  10.917  10.222   0.384  0.2053  0.1400  0.2611
 9105W        W25366   1.460   0.050  14.948  0.1914 -0.0412  0.1278
 9106W        W25367   3.458   5.845   2.644  0.2447 -0.1291  0.1553
 9107W        W25368  16.939  15.425   1.154 -0.5708 -0.2095 -0.0394
 9108W        W25369   9.847   0.681  14.998 -0.2856  0.1121 -0.1386
 9109W        W25370   7.825  10.980  15.573 -0.0106 -0.2296  0.3747
 9110W        W25371  18.115  13.844  12.006  0.1023  0.0594  0.0791
 9111W        W25372  12.159  12.107  15.401  0.0739  0.0449 -0.1343
 9112W        W25373  11.925  18.124   2.553 -0.1652  0.1952 -0.2643
 9113W        W25374   8.114   7.708  11.208  0.2634  0.1891  0.2311
 9114W        W25375  13.507   2.889   4.689  0.0164  0.3242  0.1538
 9115W        W25376   4.870  15.027  13.196 -0.4885 -0.1526 -0.1214
 9116W        W25377   6.776  15.306   4.912  0.1484 -0.1884 -0.1052
 9117W        W25378  14.708  14.808  14.513 -0.1487 -0.2698 -0.1253
 9118W        W25379   2.975   4.730   3.302  0.0916  0.1636  0.1811
 9119W        W25380   2.796   7.880   4.171  0.3725  0.1999 -0.2654
 9120W        W25381   3.017   3.437   2.829 -0.0923 -0.0007  0.0186
 9121W        W25382   1.203   7.020   5.026 -0.1669 -0.0982  0.0722
 9122W        W25383   0.610  18.359  14.539  0.5190 -0.3849  0.0772
 9123W        W25384   7.482  17.198  12.122 -0.3194 -0.3847  0.0372
 9124W        W25385  13.273   7.157   0.243  0.1628  0.0835  0.2177
 9125W        W25386  16.666  13.756   4.305 -0.1175 -0.0213 -0.2633
 9126W        W25387  17.694   5.040  13.229  0.1791  0.0882 -0.0049
 9127W        W25388  14.518   8.081   5.364  0.1064  0.0944 -0.1465
 9128W        W25389   4.223  13.404   4.867 -0.2185 -0.0222  0.1696
 9129W        W25390  12.340   1.704  11.299 -0.1177  0.1928  0.0490
 9130W        W25391   8.305  10.646   1.202  0.3082 -0.0333  0.1648
 9131W        W25392   2.073  11.057   6.084 -0.2435 -0.0830  0.3883
 9132W        W25393   8.665  17.589   4.837  0.2221 -0.0419 -0.2487
 9133W        W25394   0.974   3.962  16.101  0.0434  0.0596 -0.3732
 9134W        W25395  14.097  12.255  13.033 -0.1520  0.1538 -0.1056
 9135W        W25396   1.727  13.675  11.503  0.0093 -0.2553  0.0259
 9136W        W25397   8.760  15.757  11.293 -0.0257 -0.0874  0.0668
 9137W        W25398   8.128   5.660   4.673 -0.2101  0.0549  0.2293
 9138W        W25399   8.798   8.912  15.682  0.0250  0.2749  0.2041
 9139W        W25400  14.687  13.936   0.137 -0.0904  0.1851  0.0580
 9140W        W25401  16.039  12.985   0.456 -0.2242  0.1318 -0.3173
 9141W        W25402  17.661   8.890  12.991 -0.1159 -0.1138 -0.0037
 9142W        W25403   0.910   1.455  15.996  0.0714 -0.0016  0.1180
 9143W        W25404   2.448   4.710  13.650 -0.0474  0.3798 -0.3246
 9144W        W25405  11.084  12.491   3.629  0.1181  0.2705  0.0951
 9145W        W25406   4.475  11.067  15.708  0.1117  0.2855 -0.0766
 9146W        W25407   5.082   1.821  11.537 -0.0002  0.1197  0.0505
 9147W        W25408   9.737  13.070   4.184  0.1402  0.0219  0.3256
 9148W        W25409   4.692  10.457  14.128  0.1636 -0.2255 -0.1348
 9149W        W25410   5.533   9.398   1.926 -0.0397  0.1465 -0.1032
 9150W        W25411  12.801   8.496   0.994  0.0638  0.2887  0.1083
 9151W        W25412  16.085  15.569   0.674  0.2761  0.0477 -0.3296
 9152W        W25413   8.278   2.930   4.180 -0.0679  0.1869 -0.2535
 9153W        W25414   2.354   8.058   3.255  0.2405  0.2022 -0.0783
 9154W        W25415   5.583  12.443   3.098 -0.1511 -0.0228  0.0327
 9155W        W25416   7.467  14.208   3.063  0.0780  0.1521  0.0531
 9156W        W25417   5.993   4.107   0.866  0.0380 -0.0001  0.1425
 9157W        W25418   1.904  10.626   5.787 -0.0538  0.0432 -0.2370
 9158W        W25419   7.591  16.699  14.233 -0.3175  0.2271  0.2828
 9159W        W25420   5.065   6.329  16.001 -0.2657  0.1118 -0.0713
 9160W        W25421   9.675  13.829  11.845  0.2397  0.0572 -0.1951
 9161W        W25422   5.970  13.109  11.420  0.0658 -0.1958 -0.2676
 9162W        W25423  13.738   3.847  11.826 -0.0605  0.2079  0.0832
 9163W        W25424   0.695  12.373   2.996 -0.0770  0.3551  0.3115
 9164W        W25425   9.257  16.205   3.608 -0.0563  0.3283  0.3644
 9165W        W25426   4.273  11.707  15.262  0.0042 -0.0449 -0.0454
 9166W        W25427  10.610   4.898  13.289  0.0041  0.0896  0.3930
 9167W        W25428   8.269   1.589   3.123 -0.0341  0.0384 -0.0990
 9168W        W25429  14.711   7.522  14.062 -0.0282 -0.1862  0.3344
 9169W        W25430   3.477  17.022  14.271  0.1463 -0.0737 -0.2584
 9170W        W25431  15.255   7.491   4.387 -0.0173  0.2577 -0.2587
 9171W        W25432   2.481  16.849  12.571 -0.3431 -0.0304 -0.1077
 9172W        W25433   0.915  13.476   1.983 -0.0786 -0.4656 -0.0464
 9173W        W25434  11.458  17.111  14.685 -0.0489  0.1014  0.1640
 9174W        W25435  15.861  16.676   0.895 -0.1797  0.0682 -0.1285
 9175W        W25436   7.478  10.683   4.676  0.0918  0.2690 -0.0017
 9176W        W25437   5.676  16.936   4.425 -0.0114  0.1492  0.1253
 9177W        W25438   0.997   4.294  15.705 -0.1135 -0.0337  0.2217
 9178W        W25439   0.113   6.946   0.697  0.2324  0.1908  0.1863
 9179W        W25440  15.798  11.221   4.408 -0.1749 -0.1058  0.0851
 9180W        W25441   3.341  14.061   3.611  0.2791  0.1810 -0.1665
 9181W        W25442  14.238  13.536   5.679 -0.3542 -0.1839 -0.0702
 9182W        W25443   5.973   1.962  11.486  0.1401  0.0382 -0.0505
 9183W        W25444  12.065   8.773  11.434 -0.0676  0.2156  0.0078
 9184W        W25445   8.521  16.780   2.444  0.1722 -0.0068 -0.0489
 9185W        W25446   0.909  11.140   0.555  0.0882  0.2163  0.0551
 9186W        W25447   6.441  15.385   0.545  0.2045 -0.0880 -0.0304
 9187W        W25448   0.238  11.353   3.564 -0.1116  0.0124  0.0268
 9188W        W25449  18.172  13.050  13.164  0.3010  0.0561  0.0269
 9189W        W25450  14.368   1.963  14.838  0.0464 -0.1223 -0.0128
 9190W        W25451  12.216   2.541   4.143 -0.2331  0.1529 -0.1280
 9191W        W25452  17.581  18.361  15.429  0.2046  0.1401 -0.2615
 9192W        W25453  10.790   6.035  11.517 -0.2723 -0.1590 -0.1909
 9193W        W25454  13.150   6.233   5.505  0.1583  0.3258  0.2860
 9194W        W25455   0.181  17.773  14.436 -0.0190 -0.3344 -0.1086
 9195W        W25456   3.518   2.988   0.784 -0.4442 -0.2622  0.2606
 9196W        W25457  17.749  16.620   1.632  0.1593  0.0665 -0.4476
 9197W        W25458  15.567  12.534   4.326 -0.3372  0.2225  0.1724
 9198W        W25459   4.094   3.562  11.836  0.1211 -0.0867  0.0144
 9199W        W25460  14.710  15.176   0.297  0.0847  0.2950 -0.0752
 9200W        W25461  10.920   3.552  12.425 -0.1177 -0.2609  0.1905
 9201W        W25462  14.998  16.741   4.648 -0.1529  0.1643  0.1203
 9202W        W25463  16.522  15.178   4.981  0.1390  0.0432  0.0469
 9203W        W25464   0.225  13.935   3.459 -0.2380  0.2840  0.0815
 9204W        W25465  11.300   6.872   5.833  0.0948 -0.2467 -0.1318
 9205W        W25466   1.157  17.635   5.370  0.3294  0.1406 -0.0067
 9206W        W25467  15.636  14.880  14.724 -0.2409  0.0301  0.0552
 9207W        W25468   4.277   1.324  15.772 -0.0791 -0.0136 -0.0966
 9208W        W25469   6.458   6.324   2.292  0.0537 -0.1389  0.1219
 9209W        W25470  12.268   5.763   3.412 -0.2069 -0.1524 -0.3638
 9210W        W25471  16.679  11.491   3.530  0.1417  0.0559  0.1902
 9211W        W25472   0.322  17.305   4.229  0.1667  0.1630 -0.2053
 9212W        W25473  15.418   0.551   0.599 -0.2364 -0.0139 -0.0724
 9213W        W25474  14.060  10.337   4.437  0.2353 -0.1291 -0.0140
 9214W        W25475   0.438   9.305  11.788 -0.0169 -0.1814 -0.0585
 9215W        W25476  18.343  15.456   2.817  0.0407 -0.0495  0.1092
 9216W        W25477   2.916   4.833   1.786 -0.0181  0.0152  0.1996
 9217W        W25478   1.709  16.621  16.225 -0.3801  0.1464  0.0439
 9218W        W25479   0.103   1.319  12.423  0.0584  0.1622 -0.2369
 9219W        W25480  11.955  16.809  13.694  0.0568 -0.0750  0.1174
 9220W        W25481   4.283  16.786   2.734 -0.0213  0.0522  0.1354
 9221W        W25482   8.704   3.174  10.771  0.2078  0.1949  0.2790
 9222W        W25483   0.683  13.742  14.139  0.0976  0.2104 -0.1640
 9223W        W25484   2.627  15.194  14.890 -0.1344  0.0517 -0.0252
 9224W        W25485   6.525   3.462   0.205  0.2986  0.1179 -0.0054
 9225W        W25486   2.869   3.117  13.275  0.0116 -0.2555  0.1332
 9226W        W25487  14.061   2.943  13.236  0.4218 -0.4142  0.1999
 9227W        W25488  17.629   1.445   5.616  0.2899 -0.1614 -0.0615
 9228W        W25489   2.344   5.414   4.438 -0.0763  0.3072 -0.1936
 9229W        W25490   5.789  10.417   2.984 -0.0354 -0.4046  0.2703
 9230W        W25491   9.868   6.935   4.364 -0.1629  0.0889 -0.1942
 9231W        W25492   5.488   2.211  15.305  0.2435  0.2664  0.2985
 9232W        W25493   5.088  16.180   2.499  0.1584 -0.1624 -0.1364
 9233W        W25494  17.442  12.828   1.332 -0.1385 -0.1320  0.0660
 9234W        W25495   0.037   5.826  12.568 -0.1828 -0.1527  0.0237
 9235W        W25496   5.603   6.179   1.121  0.1376 -0.1719 -0.1533
 9236W        W25497   4.316  12.615  14.844  0.2882  0.1893  0.0272
 9237W        W25498  14.165   0.559  15.897  0.0503 -0.0829 -0.0916
 9238W        W25499   6.941   4.961  12.904 -0.1076 -0.0511 -0.1498
 9239W        W25500   7.701   3.253   2.414  0.3827  0.0332  0.0227
 9240W        W25501  14.148   7.985   1.634 -0.1810 -0.1515  0.0093
 9241W        W25502  12.742  16.887   1.517  0.1626 -0.3656 -0.0154
 9242W        W25503  14.615  10.790   1.022  0.4077 -0.1547 -0.0559
 9243W        W25504  12.063  13.611   1.915 -0.0829  0.0446  0.1612
 9244W        W25505   9.536   7.811  15.743  0.2998  0.0119 -0.1716
 9245W        W25506   6.267   0.683  13.993  0.3469  0.1882 -0.1134
 9246W        W25507   4.495  11.504  13.862 -0.1961 -0.0638  0.3133
 9247W        W25508  13.709  12.054   3.647  0.0511  0.0898 -0.2530
 9248W        W25509  11.099   5.514   5.612  0.0251 -0.2381  0.0034
 9249W        W25510  10.596  13.664  15.644 -0.1396  0.2467 -0.2960
 9250W        W25511   3.842  11.891  10.215  0.0063  0.2719  0.2929
 9251W        W25512  14.141   7.335  13.812  0.4017  0.2261 -0.2425
 9252W        W25513   1.494  10.953  11.157  0.1511  0.1682  0.1936
 9253W        W25514   6.211  14.041  13.638 -0.2313  0.2557 -0.2753
 9254W        W25515   6.776   0.441   0.232 -0.0673 -0.3986  0.0907
 9255W        W25516  16.707   7.312   5.546 -0.0736 -0.1281 -0.0636
 9256W        W25517  16.780   5.689  12.151  0.5344  0.0098 -0.1777
 9257W        W25518   2.385   7.972  14.164  0.0341 -0.0069  0.0357
 9258W        W25519   9.626  12.441   3.516  0.1134  0.0629 -0.0792
 9259W        W25520   5.822   7.066   3.662 -0.2108  0.4936  0.2160
 9260W        W25521  15.203   3.367  14.055 -0.2686 -0.0671  0.0211
 9261W        W25522   7.932  11.570   2.725  0.0016  0.1473  0.1566
 9262W        W25523   0.684  10.397  13.184 -0.2823  0.1474  0.1839
 9263W        W25524   7.773   9.978  12.739  0.0738  0.2730  0.0695
 9264W        W25525  18.283   6.328   2.697  0.0490 -0.2303  0.1359
 9265W        W25526   0.938   2.630   1.544  0.0729  0.1400 -0.3026
 9266W        W25527  10.254   9.360   1.603  0.0122 -0.0409  0.1660
 9267W        W25528   5.106   7.299   0.755  0.3039  0.1830  0.0177
 9268W        W25529   7.995   0.809  15.903 -0.1733 -0.2369 -0.2841
 9269W        W25530   9.342   7.771   0.319 -0.0189 -0.0541 -0.3157
 9270W        W25531   7.835   3.953  14.483 -0.2740  0.1117 -0.0047
 9271W        W25532   7.156  17.679  15.393 -0.0803  0.0352 -0.3720
 9272W        W25533  11.504  14.646   0.437  0.2247  0.3166 -0.1370
 9273W        W25534   4.616  12.947  13.694 -0.1826  0.0952  0.0444
 9274W        W25535  15.830   5.533  11.692  0.2102 -0.2315  0.0823
 9275W        W25536   3.629   2.261  13.962 -0.4395  0.3137  0.2309
 9276W        W25537  16.346  16.427   2.309  0.3371 -0.0901  0.2514
 9277W        W25538   3.196  17.430   4.893 -0.2120 -0.0971  0.3176
 9278W        W25539  13.715  10.220   6.022 -0.0932 -0.0031  0.0809
 9279W        W25540   4.900   0.715   4.065  0.0128  0.0472 -0.2801
 9280W        W25541  17.701   3.209  14.387 -0.3003 -0.1827 -0.3166
 9281W        W25542  12.489   3.883  15.948 -0.3623  0.0476  0.0603
 9282W        W25543  17.145   7.050   5.655  0.1671 -0.1912 -0.1402
 9283W        W25544   3.164   7.986   2.791  0.3190 -0.2131 -0.1349
 9284W        W25545   4.889  16.961  13.613 -0.1927 -0.0763  0.0217
 9285W        W25546   9.976   8.415  14.233 -0.0474 -0.1182  0.1739
 9286W        W25547   1.329   8.344   3.130  0.1324  0.0077 -0.0935
 9287W        W25548  18.288  15.225   2.173 -0.1178  0.0174  0.2649
 9288W        W25549   0.099  14.268  11.896  0.1780 -0.6203 -0.1308
 9289W        W25550  16.600   9.758   0.358  0.1798 -0.1891 -0.2614
 9290W        W25551   1.371   1.424   6.042  0.2093  0.1063  0.0401
 9291W        W25552   3.275  13.357  14.994  0.0895 -0.0817 -0.0750
 9292W        W25553   6.860   3.235   2.552 -0.2107  0.2245 -0.1514
 9293W        W25554  14.794   9.554  15.879 -0.3691  0.4628  0.1594
 9294W        W25555   2.672  13.497   5.446  0.1246  0.3336 -0.0405
 9295W        W25556  11.815   8.996  11.076 -0.0088  0.0255 -0.0559
 9296W        W25557  17.603  14.046  13.544 -0.1031  0.0585 -0.1509
 9297W        W25558   4.471  13.504  11.117 -0.0042  0.1389  0.0131
 9298W        W25559   2.842   3.320  11.887 -0.0765  0.0982 -0.0452
 9299W        W25560   5.892  10.604  11.306 -0.0900 -0.1477 -0.0084
 9300W        W25561  16.592  16.851  14.090 -0.2295  0.0446 -0.1850
 9301W        W25562   3.158   3.253   2.048 -0.0592 -0.1026  0.4705
 9302W        W25563  14.414  12.198   4.430  0.1950  0.0576  0.1585
 9303W        W25564  13.735   3.936  14.735  0.1404 -0.0062 -0.0162
 9304W        W25565   3.481  15.148  12.173 -0.3752 -0.4154  0.1666
 9305W        W25566   0.564  13.753   5.322  0.2931  0.1695 -0.0349
 9306W        W25567  17.403   1.945  13.643 -0.2322 -0.2834 -0.0171
 9307W        W25568  12.149   9.774   2.701  0.0727 -0.0268 -0.3328
 9308W        W25569  14.609  13.943   4.008 -0.1150 -0.3032  0.0844
 9309W        W25570  15.169   7.961  15.377 -0.2522 -0.0177  0.2072
 9310W        W25571  12.388  13.603   1.350 -0.2293  0.0640  0.0146
 9311W        W25572  15.881   5.830   3.671 -0.5115  0.1689 -0.2148
 9312W        W25573  12.746   0.709   1.331 -0.2023 -0.0255 -0.2897
 9313W        W25574   3.680  18.043  15.172  0.5412  0.2440 -0.0749
 9314W        W25575  10.210   7.800   1.312 -0.2754  0.2339 -0.2862
 9315W        W25576   3.775   2.956  15.706  0.0633  0.0097 -0.0260
 9316W        W25577   9.925   4.310   2.898  0.3124  0.0946 -0.0037
 9317W        W25578  16.963   7.723   4.056  0.0991 -0.0737  0.0346
 9318W        W25579  12.374  13.774  15.698 -0.0036  0.0705  0.1095
 9319W        W25580   5.110  13.335   1.299 -0.0455  0.1407  0.0392
 9320W        W25581  16.712   0.840  15.496  0.2152  0.0414 -0.0518
 9321W        W25582   6.139  11.595  14.123 -0.1006  0.3405  0.2284
 9322W        W25583   4.262  13.222   3.185 -0.3631 -0.0104  0.0092
 9323W        W25584   7.879   3.256   1.430  0.1052 -0.2032 -0.0467
 9324W        W25585   2.016   5.630  15.399 -0.0324  0.0271 -0.1048
 9325W        W25586  13.758  18.039  15.759 -0.0054  0.2207 -0.1548
 9326W        W25587   5.393   8.034  12.164 -0.0058  0.3093 -0.1050
 9327W        W25588  13.896   9.347   3.969 -0.1206 -0.0698  0.1276
 9328W        W25589  10.471   5.625   1.249  0.0671 -0.0745  0.0909
 9329W        W25590  14.880   2.310   0.769 -0.0002  0.2906  0.1147
 9330W        W25591   0.469  17.516  12.935 -0.0900  0.3662  0.0047
 9331W        W25592   5.415   9.288  12.490 -0.0615 -0.2218 -0.1192
 9332W        W25593  16.832   6.515  12.538  0.4208  0.0063  0.1673
 9333W        W25594   5.842   2.891  13.926 -0.1624  0.5652 -0.1477
 9334W        W25595   8.381   2.559  12.209  0.2259 -0.1242 -0.2307
 9335W        W25596  18.131   7.211  14.573  0.0817  0.0513  0.1485
 9336W        W25597  13.646  17.072   1.525  0.1962  0.2847 -0.2892
 9337W        W25598  17.802   5.403  13.947 -0.2896 -0.0081 -0.1240
 9338W        W25599  10.349   3.246   2.014  0.0120 -0.1311  0.0248
 9339W        W25600   4.009   8.135  15.206  0.0308  0.0005  0.0696
 9340W        W25601   6.664   3.000  15.423 -0.0966 -0.2097 -0.2044
 9341W        W25602   0.150   0.777   2.761  0.2926 -0.3226 -0.0252
 9342W        W25603   3.699   6.451   4.342 -0.3349 -0.3358  0.4665
 9343W        W25604  14.514   1.519   5.216 -0.3397 -0.0512  0.3834
 9344W        W25605  17.927   8.358   1.841  0.0038 -0.0654  0.0949
 9345W        W25606  16.487  13.507   2.303  0.0083 -0.1421  0.2674
 9346W        W25607   2.245   4.573   3.623  0.3999 -0.1351 -0.1773
 9347W        W25608  14.563  14.681   1.440 -0.0516  0.1941 -0.1541
 9348W        W25609   5.699  15.286  14.684 -0.1339  0.0939  0.1199
 9349W        W25610   5.396  15.699  13.082  0.3654  0.1623  0.1976
 9350W        W25611   3.852  12.109   3.111  0.2545 -0.0859 -0.1081
 9351W        W25612  18.073   9.176   4.063 -0.1805 -0.5625  0.0076
 9352W        W25613  16.266   8.821  12.268 -0.1835  0.0422  0.0853
 9353W        W25614   8.646  15.080  13.916 -0.1196 -0.0692 -0.0745
 9354W        W25615  16.353   5.631  12.469  0.1978 -0.0825  0.1048
 9355W        W25616   8.906   6.655   4.220  0.1340  0.3672 -0.1222
 9356W        W25617  13.812   5.430  13.804 -0.0177 -0.0830 -0.1501
 9357W        W25618  13.839  14.580   1.086 -0.2389 -0.0849 -0.1078
 9358W        W25619  10.376  13.427   2.930  0.2627  0.2572 -0.0940
 9359W        W25620  14.889   0.125   0.866 -0.1037  0.1037  0.0172
 9360W        W25621   0.048  15.472  15.826 -0.1568  0.0334  0.0018
 9361W        W25622   1.568   3.375  11.062  0.0724  0.0068 -0.0561
 9362W        W25623   6.056   1.450  11.640 -0.0672 -0.0574 -0.0976
 9363W        W25624  15.143   4.791   4.539  0.1276 -0.0054 -0.4293
 9364W        W25625   6.186   0.938  11.698 -0.3513 -0.0198 -0.1582
 9365W        W25626   4.925   6.817  10.561  0.1410 -0.2766  0.1722
 9366W        W25627   4.240  10.692  15.357  0.2155 -0.0973  0.1762
 9367W        W25628   3.418   2.274  14.566  0.0080 -0.1948 -0.0227
 9368W        W25629  12.631   7.650  12.745 -0.1736 -0.3494 -0.0357
 9369W        W25630  14.979  17.752  12.319 -0.3379 -0.0018  0.1717
 9370W        W25631   9.754  17.895   5.499 -0.0314 -0.1058  0.0857
 9371W        W25632   5.774  17.444   4.283 -0.3602  0.1738 -0.1477
 9372W        W25633   4.777   3.311   0.843 -0.1544 -0.3070  0.0623
 9373W        W25634   4.762   4.512  11.519  0.0559 -0.0477  0.0621
 9374W        W25635   4.658   0.058   3.171 -0.0139  0.4680 -0.3537
 9375W        W25636   9.930  17.963  13.970 -0.2944  0.1673 -0.0984
 9376W        W25637  14.825  11.382   4.550  0.1259  0.0627 -0.0734
 9377W        W25638  12.456   1.336   4.264 -0.1289 -0.2109 -0.3015
 9378W        W25639  13.595   1.758   5.394 -0.0352 -0.1765 -0.1052
 9379W        W25640   3.663  13.826   4.597  0.0146 -0.0671 -0.0375
 9380W        W25641   4.376  16.916   1.829 -0.2284  0.1499  0.1181
 9381W        W25642   1.169  12.389   1.944  0.1183  0.1988  0.3705
 9382W        W25643   7.833   6.242   5.443 -0.0928 -0.0560 -0.3293
 9383W        W25644   0.674   9.548   5.206  0.0129 -0.0561 -0.0449
 9384W        W25645   5.809  15.644  12.661  0.2940 -0.1460  0.3143
 9385W        W25646  17.614   7.077  14.429 -0.0452  0.1739  0.1818
 9386W        W25647   9.418  13.162   4.619  0.0934 -0.0333 -0.0284
 9387W        W25648   1.162  13.844  12.321  0.2387  0.1002  0.0627
 9388W        W25649   4.532   0.055   4.387  0.1227 -0.1218  0.0049
 9389W        W25650   5.494  15.923  14.287 -0.0062 -0.0272 -0.0102
 9390W        W25651  18.237  13.389   1.761  0.2141  0.3133  0.2590
 9391W        W25652  14.966  16.183   3.287  0.1111 -0.0634  0.4626
 9392W        W25653   2.809   1.013  15.035 -0.3315  0.1979 -0.1258
 9393W        W25654   6.407   9.667   2.696 -0.0043  0.1172 -0.0727
 9394W        W25655   6.409  12.301  11.980  0.0494  0.2804  0.1022
 9395W        W25656  12.643   9.081   2.100 -0.1072  0.2278  0.2273
 9396W        W25657   4.242  16.157   2.242  0.0471 -0.3799  0.1254
 9397W        W25658  11.357  16.104   2.553  0.4720 -0.1268  0.1655
 9398W        W25659  14.389  10.560  12.872  0.3679  0.1963 -0.3415
 9399W        W25660   6.842  12.606   2.592  0.1122 -0.1754 -0.4407
 9400W        W25661   7.995   2.099   1.901 -0.1403  0.2543 -0.1611
 9401W        W25662   4.113  11.768   0.919  0.2155 -0.0319  0.2677
 9402W        W25663   3.038  10.360  13.306 -0.1774  0.1565 -0.1093
 9403W        W25664   0.184   9.153  13.516 -0.1134  0.0084  0.1069
 9404W        W25665   8.876   7.533  16.280 -0.0714 -0.3156 -0.1101
 9405W        W25666  12.799  13.513  11.564  0.0293 -0.1009 -0.2320
 9406W        W25667   2.638  16.563   1.069  0.1858 -0.2394  0.0287
 9407W        W25668   4.897  10.614   5.444 -0.3034  0.3452  0.2671
 9408W        W25669   3.182   1.560  13.206  0.1761 -0.0786  0.5047
 9409W        W25670   7.643   4.990   5.648  0.0864  0.0472  0.0929
 9410W        W25671  15.736   2.515  13.201 -0.1456  0.0387  0.2224
 9411W        W25672  17.933   2.069   1.009 -0.0432  0.2667 -0.0361
 9412W        W25673   5.708  16.705   1.063 -0.1136  0.0601  0.1448
 9413W        W25674  13.950  15.843   2.506  0.1588  0.3809  0.0549
 9414W        W25675   5.665   3.881  13.644 -0.0246  0.0367  0.0558
 9415W        W25676   2.539  10.031   5.123 -0.1266 -0.1651 -0.0155
 9416W        W25677   1.257   1.203   2.096  0.2051  0.0131  0.1489
 9417W        W25678   9.108  11.802  13.097  0.0189 -0.0472  0.0222
 9418W        W25679   9.109  17.413  15.435  0.3428 -0.1551  0.0179
 9419W        W25680   3.007   0.273   3.116 -0.0001 -0.0176 -0.3219
 9420W        W25681  10.667   4.773  15.355 -0.2157  0.2649 -0.4043
 9421W        W25682   7.956  13.240   3.099 -0.1615  0.2239 -0.1261
 9422W        W25683   5.698   9.491  16.155  0.2125 -0.2061  0.2259
 9423W        W25684  12.715  14.068   3.792 -0.3392  0.1968  0.0663
 9424W        W25685   4.766   8.636  14.709 -0.1823 -0.1302 -0.0686
 9425W        W25686  11.377   0.363   1.499  0.0069 -0.0523  0.0710
 9426W        W25687   2.830  12.442   3.987 -0.2102  0.4063 -0.0149
 9427W        W25688   6.982   5.275  12.533  0.3918  0.0149 -0.0024
 9428W        W25689  16.357   1.802  12.642 -0.0297 -0.3347 -0.3593
 9429W        W25690   5.450   6.036  14.441 -0.0105 -0.0884 -0.1664
 9430W        W25691  10.154  13.374  14.681 -0.0165 -0.2566  0.3019
 9431W        W25692   0.210   2.012   3.403  0.0703 -0.3021  0.1588
 9432W        W25693  14.558  18.058  14.680 -0.1824 -0.0351 -0.0008
 9433W        W25694  15.234   6.598  13.081  0.1697  0.0762 -0.2024
 9434W        W25695  18.087  14.774   1.225 -0.3942  0.2531  0.1277
 9435W        W25696  10.707  13.382   1.158  0.2172 -0.0793 -0.1278
 9436W        W25697   9.003  17.271   5.621 -0.3532  0.0342  0.0181
 9437W        W25698  11.044  10.851   0.461  0.2022  0.4415  0.2196
 9438W        W25699   8.805  11.907   0.227 -0.1153 -0.2462 -0.1263
 9439W        W25700   0.244  10.159  13.701 -0.0733 -0.1916 -0.2356
 9440W        W25701   0.589  17.012   1.803  0.0174  0.1414 -0.1826
 9441W        W25702   9.580  15.051  11.497  0.0010 -0.0848 -0.0589
 9442W        W25703  14.195  17.755   2.272 -0.1106  0.1946 -0.0669
 9443W        W25704  12.603  16.030   6.272 -0.1606  0.1085 -0.2033
 9444W        W25705   3.456  18.328  14.806 -0.2708 -0.0596 -0.0168
 9445W        W25706   2.080  13.471  15.775  0.0694  0.1147  0.0110
 9446W        W25707   0.810   3.468   5.934 -0.3656 -0.0864 -0.2434
 9447W        W25708  15.332   2.948   4.144  0.2620  0.2497  0.1202
 9448W        W25709  11.557  16.604   0.317  0.1630  0.1995 -0.1154
 9449W        W25710   9.859  11.938  11.175 -0.3911  0.0079  0.1906
 9450W        W25711  11.591   2.055  13.619 -0.0788 -0.0781 -0.1522
 9451W        W25712   7.275  12.572  16.141  0.3052 -0.0193  0.2777
 9452W        W25713   0.571   7.892  14.711 -0.0177 -0.1134 -0.0776
 9453W        W25714  12.094  16.408   3.762 -0.1845 -0.1064  0.4390
 9454W        W25715   1.110  15.345   0.059 -0.2731  0.1917 -0.0046
 9455W        W25716   3.181   6.894  12.540 -0.0108  0.2678 -0.2741
 9456W        W25717   1.456  17.220  12.265  0.1405  0.1347 -0.1810
 9457W        W25718  15.180   4.281  13.412 -0.0686 -0.0956 -0.1803
 9458W        W25719  11.673  13.206  14.096  0.0772 -0.0073  0.1050
 9459W        W25720   1.232  16.850   1.583 -0.1090  0.1141  0.3246
 9460W        W25721  14.754   3.114   0.324  0.1278 -0.0257 -0.1428
 9461W        W25722   4.312  12.213  13.195 -0.0046 -0.2074 -0.1557
 9462W        W25723   3.946  15.310  12.842 -0.0245 -0.2992  0.3218
 9463W        W25724  14.437   4.194  15.751  0.0987 -0.1082 -0.0739
 9464W        W25725  17.831   7.779  12.871  0.0634 -0.2691  0.0647
 9465W        W25726  12.002  14.401   1.285 -0.0019  0.1000 -0.2960
 9466W        W25727  11.162  13.681   5.167  0.4671 -0.1224  0.1080
 9467W        W25728   5.583   4.168  11.492  0.0728  0.0856  0.2062
 9468W        W25729  11.118  13.205   5.263 -0.2222 -0.1453  0.4115
 9469W        W25730   9.193   4.153   3.478  0.1922 -0.1284  0.2976
 9470W        W25731  13.572   5.201   4.159  0.2931  0.1643  0.1344
 9471W        W25732   8.616  15.226  12.492  0.3380 -0.4087 -0.0104
 9472W        W25733   2.605  15.284  13.627 -0.1718 -0.1091 -0.1180
 9473W        W25734   8.798  10.492  13.608  0.0542  0.2025  0.0348
 9474W        W25735   1.579   2.766  15.649  0.1603 -0.0938  0.2219
 9475W        W25736   6.151   6.539   0.269 -0.1268  0.1232  0.0417
 9476W        W25737  16.787  13.020   4.165 -0.0488  0.0824  0.0707
 9477W        W25738  15.132   7.973   4.336 -0.2590  0.1667 -0.0159
 9478W        W25739  15.134   8.429  14.162 -0.1180  0.1718  0.0676
 9479W        W25740  12.791  14.760  14.358  0.1693 -0.0659 -0.1003
 9480W        W25741   0.568  10.540  12.111  0.2710 -0.0107  0.0998
 9481W        W25742  13.564   3.131   0.799 -0.2160 -0.1876  0.0476
 9482W        W25743  13.504   0.029  10.552  0.0797  0.0594  0.0072
 9483W        W25744  13.980  10.397  12.598  0.3317 -0.1921  0.0074
 9484W        W25745   8.797  14.319  14.368  0.0516 -0.0484 -0.1115
 9485W        W25746  17.179  18.119   4.137 -0.2168 -0.0116  0.3001
 9486W        W25747   5.496  18.276   2.784 -0.0914 -0.2447 -0.1068
 9487W        W25748   8.782  11.333  12.361  0.0012 -0.3783 -0.2731
 9488W        W25749  14.428  14.859   6.303 -0.1722 -0.1144  0.1560
 9489W        W25750   4.307   4.362  11.504 -0.0147 -0.1476  0.3290
 9490W        W25751  10.169  16.049   1.662 -0.1010 -0.1761  0.1908
 9491W        W25752   2.359  11.464   3.047  0.1362 -0.2245  0.1199
 9492W        W25753   3.470   1.545   5.260  0.3042  0.0293 -0.0859
 9493W        W25754   7.359  12.933   1.887 -0.2511 -0.2035 -0.0118
 9494W        W25755  11.840   5.123   4.586 -0.3554 -0.0802 -0.3798
 9495W        W25756   8.047   1.024   4.569  0.1785 -0.0834 -0.1164
 9496W        W25757   8.001   0.475   4.582 -0.2688 -0.0214  0.1026
 9497W        W25758   1.311  17.847  14.940  0.1515 -0.2331  0.2140
 9498W        W25759  15.030   6.305  13.458  0.1828  0.2802  0.4134
 9499W        W25760   5.821   1.368   4.268 -0.1790  0.0607  0.3779
 9500W        W25761   1.230   8.861   2.936 -0.0931  0.0792  0.2514
 9501W        W25762   3.475  16.311  11.283  0.1355  0.0716 -0.1019
 9502W        W25763   8.456   2.013   4.382 -0.1894 -0.3713 -0.2115
 9503W        W25764   5.773  17.459  14.204 -0.3470  0.0285  0.1213
 9504W        W25765  17.049   0.207   3.554  0.3282 -0.0990 -0.0717
 9505W        W25766  12.346  16.121   3.469 -0.1215  0.0859  0.0291
 9506W        W25767  15.771   1.447  14.798 -0.0678  0.0559 -0.0129
 9507W        W25768  12.071  13.888  15.070 -0.0959 -0.1708  0.0065
 9508W        W25769   2.152  15.283  11.710  0.1233  0.2266 -0.1318
 9509W        W25770   6.809   6.515   0.307  0.0017  0.2946 -0.0008
 9510W        W25771  11.959  16.189  13.048  0.0307  0.3798 -0.1872
 9511W        W25772   8.897   0.202   4.668  0.0139  0.0601 -0.0968
 9512W        W25773  15.367  13.819   1.296 -0.1229  0.2224 -0.1701
 9513W        W25774   1.543   8.378  10.925  0.2641  0.2565  0.4300
 9514W        W25775  16.710   0.026   3.936  0.0925 -0.0099 -0.1713
 9515W        W25776   2.258   3.987   2.382 -0.1232 -0.1001 -0.2237
 9516W        W25777   2.699   7.214  13.198  0.0084 -0.0398  0.1999
 9517W        W25778  17.046  17.776  13.157 -0.1596  0.1605  0.2355
 9518W        W25779  13.657  12.190  15.540 -0.1160 -0.1753  0.0238
 9519W        W25780  17.563   9.849   4.488 -0.0462  0.0302  0.4789
 9520W        W25781   7.351  12.214  11.641 -0.0243  0.2914 -0.4252
 9521W        W25782  15.834  16.241  13.344  0.1134  0.0957  0.4166
 9522W        W25783   8.656   3.337   3.711  0.0194  0.0981  0.0493
 9523W        W25784   1.946  10.059   2.114 -0.0030 -0.0418  0.2910
 9524W        W25785  13.216   9.628   0.429  0.3265  0.2980 -0.0599
 9525W        W25786   1.183   7.532   1.361 -0.0598  0.0441  0.2887
 9526W        W25787  13.773  17.226  15.851  0.2067  0.1132  0.3732
 9527W        W25788  18.160   5.404  14.368 -0.3424  0.3229 -0.1957
 9528W        W25789   9.895  12.245   3.870  0.0058 -0.0853  0.1106
 9529W        W25790  10.024  11.665  12.468 -0.1393 -0.3438  0.2293
 9530W        W25791   5.558   8.998   1.614  0.1497 -0.0313 -0.1976
 9531W        W25792  18.013   0.897  16.295  0.1425 -0.0404  0.1629
 9532W        W25793  11.403  17.311  13.068 -0.2233  0.2180 -0.2817
 9533W        W25794  11.158   2.781   0.629  0.3826 -0.2124 -0.0333
 9534W        W25795  12.797   0.084   6.415  0.1429  0.1332 -0.2230
 9535W        W25796   7.318  13.226   1.381  0.2655  0.5161 -0.2466
 9536W        W25797   4.369  16.625   0.468 -0.0181  0.1670  0.2035
 9537W        W25798  13.077  14.460   0.516 -0.0649  0.1278 -0.0322
 9538W        W25799  12.634   0.329   0.396  0.0539 -0.0165  0.1926
 9539W        W25800  14.663   6.744  11.590 -0.1005 -0.0082 -0.2107
 9540W        W25801  12.544   2.390  13.920  0.2528 -0.2173  0.0194
 9541W        W25802   7.173   3.466  14.697  0.1097 -0.1708  0.1433
 9542W        W25803  16.937  12.780  13.584 -0.3312 -0.0326 -0.1693
 9543W        W25804  13.779   4.204   2.450  0.0010  0.3158  0.1327
 9544W        W25805   8.119   1.300  15.650 -0.1502  0.2044 -0.2729
 9545W        W25806   3.114   4.717   4.129  0.2595 -0.0029  0.1079
 9546W        W25807   5.303  10.373  16.086 -0.1122 -0.2448  0.0713
 9547W        W25808  11.686  15.108  14.969 -0.1251 -0.0423  0.0164
 9548W        W25809   5.969  12.499   2.690 -0.2436 -0.2696 -0.0034
 9549W        W25810   1.014  14.690  13.919  0.2812 -0.3699  0.0532
 9550W        W25811  13.322  18.052   5.249 -0.1942  0.2833 -0.1043
 9551W        W25812   2.169  18.089  11.211  0.0765  0.3411  0.0556
 9552W        W25813  13.923  10.999   0.456 -0.0017  0.2930  0.0498
 9553W        W25814   1.063   6.885   3.379  0.1515  0.0574 -0.1383
 9554W        W25815  13.754  15.432  13.575 -0.0652 -0.0720 -0.2504
 9555W        W25816  16.608   5.661   5.746  0.0444 -0.1143 -0.0112
 9556W        W25817   6.362  16.468   5.365 -0.0893 -0.3147  0.0163
 9557W        W25818  17.981   6.227  14.279 -0.1243 -0.0502  0.2388
 9558W        W25819  12.311   2.232   5.653 -0.0919  0.0599 -0.1467
 9559W        W25820  12.909   7.639   2.218 -0.1415  0.1553  0.2904
 9560W        W25821  12.196  17.662   4.104  0.1051  0.0384 -0.0097
 9561W        W25822   6.246   1.134   4.393  0.2639 -0.0043  0.0679
 9562W        W25823   2.894  13.264  16.120 -0.1321  0.2091 -0.0555
 9563W        W25824  13.075  10.750  14.595  0.2036  0.1749 -0.0346
 9564W        W25825  16.198  13.184  15.474  0.0525 -0.0807 -0.0453
 9565W        W25826  17.788   7.563   6.182 -0.1705  0.0971 -0.1068
 9566W        W25827   3.947   5.720   5.090  0.0959 -0.1044  0.0792
 9567W        W25828  17.921  12.325  16.130  0.0764  0.3060 -0.3934
 9568W        W25829   4.020  15.241   0.777 -0.4267 -0.0360 -0.2178
 9569W        W25830  17.162   9.435   2.962  0.0286  0.0743  0.3195
 9570W        W25831   8.104  10.504  10.210  0.2260 -0.2013 -0.1415
 9571W        W25832  17.140   5.281  10.489  0.4559 -0.0938  0.4612
 9572W        W25833   4.943   4.416  14.154  0.1343  0.1004 -0.0900
 9573W        W25834   6.086  11.145  15.144  0.2243 -0.0660  0.0935
 9574W        W25835   3.342   2.405   0.682  0.0748 -0.0832  0.0335
 9575W        W25836  10.797   1.568  15.953  0.2685 -0.0930 -0.1096
 9576W        W25837   8.439   0.111   2.876 -0.1484  0.0524 -0.0381
 9577W        W25838  17.244   1.258  12.995 -0.0215  0.0008  0.0113
 9578W        W25839   6.233   4.348  14.205 -0.1353 -0.0763 -0.1345
 9579W        W25840  14.789   7.130   2.650  0.0838 -0.2978 -0.2866
 9580W        W25841  16.846   6.459  15.721 -0.1346 -0.0737 -0.1202
 9581W        W25842  10.732  14.810  14.850 -0.0636 -0.1812 -0.2357
 9582W        W25843   8.065   6.777  15.368  0.3807  0.1719  0.0186
 9583W        W25844   3.537  12.184  12.702  0.0477 -0.2672 -0.4738
 9584W        W25845   7.862   7.801   4.251  0.3546  0.0355  0.0838
 9585W        W25846   4.842  14.400  13.823 -0.2082  0.1014 -0.1052
 9586W        W25847   6.088  12.117   4.054 -0.0162 -0.1867 -0.1321
 9587W        W25848   9.171   2.768   1.210 -0.1347 -0.2459  0.0916
 9588W        W25849  18.082   5.231  13.469  0.0098  0.2096  0.3826
 9589W        W25850   4.729   7.306   4.985 -0.2782  0.1064 -0.1455
 9590W        W25851   8.936   4.983  14.081  0.0422  0.0060  0.3515
 9591W        W25852   7.091  17.027  13.701  0.0852  0.0095 -0.0442
 9592W        W25853   2.408  13.423  16.144 -0.2467  0.1567 -0.3477
 9593W        W25854   3.043   2.510  14.268 -0.5011  0.0542  0.0011
 9594W        W25855   5.353  17.775   2.609 -0.0269 -0.1245 -0.2356
 9595W        W25856   7.080   3.783   1.212  0.0859 -0.3221 -0.0684
 9596W        W25857  13.336  17.316  14.258 -0.0480 -0.0002 -0.4145
 9597W        W25858   2.685  17.735   4.758 -0.0203 -0.0493 -0.0749
 9598W        W25859   1.770   2.232  12.256  0.2474 -0.2122 -0.1200
 9599W        W25860   8.677   4.557  14.320 -0.1792  0.1666  0.5823
 9600W        W25861   5.491  14.878   5.555  0.0982  0.0542  0.1912
 9601W        W25862  10.119   6.505   1.971  0.1056 -0.0189 -0.0929
 9602W        W25863   4.809   3.156   5.373  0.3926  0.2214 -0.4327
 9603W        W25864  10.783   7.499  13.019 -0.4564 -0.1961  0.3775
 9604W        W25865   9.155  13.026  15.410 -0.0929  0.2658  0.0162
 9605W        W25866   1.223  12.605   0.373 -0.1228 -0.2295  0.0125
 9606W        W25867  15.920   2.399   0.906 -0.0797  0.1957 -0.2351
 9607W        W25868  13.660   6.664   4.289  0.1876 -0.0438  0.0861
 9608W        W25869  10.571   0.509   3.740  0.0702  0.0796  0.0911
 9609W        W25870  18.209  17.015   0.136 -0.0942  0.1604 -0.2503
 9610W        W25871   9.983   6.837  16.252  0.2793  0.0262 -0.3034
 9611W        W25872  17.291  12.974   5.551 -0.1187  0.0318  0.0631
 9612W        W25873  11.747  17.905  11.927  0.1539  0.0657  0.2275
 9613W        W25874   4.050   9.347   1.391 -0.1893  0.1784 -0.1960
 9614W        W25875   4.349   3.048   0.319 -0.1601 -0.1230  0.2857
 9615W        W25876  14.549  11.395  14.861 -0.1606 -0.3583 -0.2233
 9616W        W25877  15.167  15.867   1.878  0.1548  0.0770  0.1942
 9617W        W25878   2.318   5.712  14.574  0.1118 -0.3264  0.1170
 9618W        W25879   4.722  10.201   3.795  0.1936  0.0060 -0.1362
 9619W        W25880  18.140  17.074   1.538  0.0813 -0.0601  0.0897
 9620W        W25881   4.663  13.133  11.459 -0.2522 -0.0337 -0.0147
 9621W        W25882   6.048  15.941  15.178  0.1992  0.0781 -0.0483
 9622W        W25883  16.891   0.703   3.491  0.2918  0.0118  0.0709
 9623W        W25884   7.904  10.513  10.827  0.0425  0.2022  0.1913
 9624W        W25885   6.426  17.316   3.305 -0.1037 -0.2520 -0.1338
 9625W        W25886   4.411  16.788  13.440  0.0673  0.2029 -0.3500
 9626W        W25887   1.235   2.583  15.398  0.1766  0.3320 -0.1213
 9627W        W25888  15.426  13.218   2.448 -0.2533 -0.4794 -0.0062
 9628W        W25889  10.173  11.969   5.403  0.2779 -0.0935  0.0755
 9629W        W25890  14.149  16.454   4.686 -0.2972 -0.0206  0.1492
 9630W        W25891   2.823  12.029   0.021 -0.1690  0.1304 -0.2336
 9631W        W25892   2.995  17.515   3.872 -0.0765  0.2591 -0.0304
 9632W        W25893   4.149  16.483  15.187  0.2601 -0.1378  0.0851
 9633W        W25894  15.328   2.653   4.586 -0.1060 -0.2663  0.2175
 9634W        W25895  14.323  10.227  15.637 -0.1198  0.0365  0.1547
 9635W        W25896  11.061  11.473  15.203 -0.0053  0.0546  0.2629
 9636W        W25897   0.042   6.270   3.231  0.2428  0.1114  0.4145
 9637W        W25898  15.146   3.606   3.529 -0.3061  0.2943 -0.2146
 9638W        W25899   1.509   1.102   0.917 -0.1484 -0.0795  0.3832
 9639W        W25900   8.891   2.624  11.938  0.1685 -0.2919 -0.0850
 9640W        W25901   5.235   9.307   3.713 -0.1041  0.1394  0.3326
 9641W        W25902   9.082  12.845  14.457  0.2473  0.1253  0.0042
 9642W        W25903   8.800  11.300  13.474  0.0674 -0.2755  0.2477
 9643W        W25904  15.440   6.631  13.520 -0.1614 -0.2119  0.2944
 9644W        W25905   4.813   7.135   1.528 -0.0371 -0.2620 -0.1786
 9645W        W25906   8.349   7.839   5.164  0.1552 -0.2744  0.2211
 9646W        W25907  14.910   9.355   2.589  0.0896 -0.1505  0.0623
 9647W        W25908  15.402   1.615  12.651 -0.1006  0.1985 -0.0186
 9648W        W25909   2.617  16.079  15.755 -0.4628 -0.0957 -0.0100
 9649W        W25910   2.465   8.057  13.688  0.3168  0.2068  0.1055
 9650W        W25911   9.222  13.718  13.148 -0.2724 -0.0524  0.0523
 9651W        W25912  15.858   5.560  12.584  0.1741  0.1317 -0.0887
 9652W        W25913   0.917  16.386  14.498 -0.2686  0.3042  0.0549
 9653W        W25914   8.671   3.127  12.437 -0.0739 -0.1310 -0.1347
 9654W        W25915   2.660   8.332   2.982 -0.1047  0.3559 -0.0040
 9655W        W25916   1.723  14.650   2.512 -0.3046 -0.2131  0.0434
 9656W        W25917  13.743   9.233   5.155  0.2758 -0.0892  0.1078
 9657W        W25918  12.968  16.424   4.822  0.0401 -0.3527  0.1914
 9658W        W25919  11.925   6.286  14.378 -0.0731 -0.0688  0.0776
 9659W        W25920  16.016  16.690  15.817 -0.3141 -0.3715  0.3018
 9660W        W25921   8.010  16.287   2.866 -0.0560  0.0411  0.0359
 9661W        W25922  12.689   2.777   1.973  0.2079  0.1014 -0.2469
 9662W        W25923   8.914  15.057   0.586  0.2917 -0.1875  0.0164
 9663W        W25924   8.370   5.502  14.042  0.1429 -0.1812  0.1864
 9664W        W25925  15.801  11.762   1.591 -0.0595 -0.3768  0.2282
 9665W        W25926  10.364   6.907  11.637  0.4498 -0.0459 -0.3296
 9666W        W25927  12.143   8.052  11.288 -0.0708  0.1952 -0.1080
 9667W        W25928   0.823   8.687   1.641  0.2026 -0.1394  0.1928
 9668W        W25929   8.574   7.615   2.981  0.2801  0.0414  0.2113
 9669W        W25930   3.428  12.200  15.013 -0.4224  0.1393 -0.0454
 9670W        W25931  16.622   5.528  15.665  0.0775  0.0922  0.0328
 9671W        W25932  17.945  11.231   5.265 -0.2711 -0.0361 -0.0973
 9672W        W25933   1.914  10.100  12.704  0.0081  0.0866  0.1163
 9673W        W25934   8.692  17.026   0.853  0.1353  0.1915 -0.0474
 9674W        W25935  11.555  12.633  13.479 -0.2437  0.3008  0.0048
 9675W        W25936  15.890   5.292   4.621  0.1859  0.0882 -0.3980
 9676W        W25937   5.294  12.967   4.561 -0.1457 -0.2130 -0.4108
 9677W        W25938  14.995   2.306   1.660  0.0975 -0.2301 -0.0506
 9678W        W25939  16.645   7.882   5.452 -0.1435  0.1903 -0.2058
 9679W        W25940   0.086   1.623  13.319  0.0388  0.3955 -0.0721
 9680W        W25941  16.729  15.748  12.917 -0.5293 -0.2353  0.1917
 9681W        W25942  16.276   1.260   2.265  0.0505  0.3358 -0.3022
 9682W        W25943  18.085   2.893   3.414  0.1660  0.1041  0.3665
 9683W        W25944   0.719   2.999  15.121 -0.1877  0.3336 -0.0008
 9684W        W25945   8.106   0.228  11.623 -0.1654 -0.0377 -0.1155
 9685W        W25946   2.326   9.422   0.534 -0.0096  0.3004  0.2044
 9686W        W25947  12.546   1.900   1.382  0.2635 -0.0791  0.0674
 9687W        W25948  15.115  16.919   0.053 -0.2667 -0.0171 -0.0205
 9688W        W25949   9.235  11.861   4.968  0.0303  0.2290 -0.0706
 9689W        W25950   1.562   1.158  16.240  0.1448 -0.1925  0.0192
 9690W        W25951   4.736   6.551   1.326 -0.2545  0.3005  0.0963
 9691W        W25952   9.108   5.614   5.103 -0.1099 -0.1929  0.0748
 9692W        W25953   4.178   3.823  11.369  0.1649  0.1967  0.1354
 9693W        W25954  13.506  10.239  11.919  0.0043  0.1711 -0.0248
 9694W        W25955   5.911  14.214  16.113 -0.1354  0.0875 -0.2483
 9695W        W25956   5.038  17.145  11.117 -0.1180 -0.1022 -0.2176
 9696W        W25957   2.073   1.328  14.430  0.0291  0.2578 -0.1139
 9697W        W25958   2.533   1.447   1.224 -0.3844 -0.1131 -0.2130
 9698W        W25959   3.338  13.396  14.009 -0.0474 -0.0426 -0.0463
 9699W        W25960   5.532  17.809  14.981 -0.0963  0.0330 -0.3313
 9700W        W25961  14.814   4.885  13.523  0.2228 -0.2208 -0.2675
 9701W        W25962  11.745  15.190   3.265 -0.0842 -0.1946  0.2113
 9702W        W25963  11.416  11.202   0.513 -0.0855 -0.0081  0.2535
 9703W        W25964   3.098   1.415   6.243  0.1536  0.0554 -0.0415
 9704W        W25965  11.000  14.536   5.290  0.0329 -0.2279  0.1430
 9705W        W25966   6.070   5.742   2.882 -0.0655 -0.0510 -0.1464
 9706W        W25967  14.742  13.186  11.620 -0.0501 -0.0816  0.3309
 9707W        W25968   2.997   2.651  13.255 -0.0802  0.0986  0.0737
 9708W        W25969  12.042  12.079  14.603  0.3697 -0.2722  0.1017
 9709W        W25970   9.984   2.809   3.807 -0.0359  0.1753 -0.0581
 9710W        W25971   0.607  11.578   2.981  0.2485  0.1252 -0.1460
 9711W        W25972   3.940   0.289  11.835 -0.0131 -0.3225  0.1524
 9712W        W25973  13.308   0.959   2.482 -0.2305  0.3628 -0.0227
 9713W        W25974   9.728  11.130   2.137 -0.3411  0.1048  0.1155
 9714W        W25975   4.062   7.425   1.164  0.1254  0.2258 -0.1544
 9715W        W25976   4.829  14.414  12.312 -0.0717 -0.0624 -0.0810
 9716W        W25977   7.546   9.776   5.770  0.1615  0.1345 -0.0602
 9717W        W25978  15.224   6.722  11.435 -0.0534  0.0297 -0.0540
 9718W        W25979   8.508  15.530   0.576  0.3289 -0.0053  0.0311
 9719W        W25980   1.551  14.039   0.389 -0.0318 -0.1704  0.0537
 9720W        W25981  13.967  18.156   4.046 -0.0944 -0.2263 -0.3246
 9721W        W25982   5.388   9.762   3.637 -0.0769  0.1238 -0.1702
 9722W        W25983   3.928   8.264   1.518 -0.0594  0.1191 -0.1286
 9723W        W25984   4.699  11.419   1.560 -0.0721  0.0777 -0.2321
 9724W        W25985   0.736   7.679  11.938 -0.0142 -0.1382  0.0331
 9725W        W25986   3.522  13.523   1.786  0.0043 -0.2295 -0.3388
 9726W        W25987   3.345   5.224   4.215 -0.4308  0.0371  0.0989
 9727W        W25988  11.770  15.043   4.947 -0.3982 -0.2503  0.3521
 9728W        W25989  10.936   6.194   3.231 -0.0266 -0.1007 -0.2881
 9729W        W25990   3.724   9.207  13.699 -0.0746  0.0436  0.0655
 9730W        W25991  16.261   2.206   0.545  0.1797 -0.0965 -0.0746
 9731W        W25992   2.901   1.940   3.235 -0.1546  0.0271  0.2629
 9732W        W25993   6.639  10.788  14.285 -0.2018  0.0147 -0.2609
 9733W        W25994   0.252  17.589  11.055  0.1268  0.0841 -0.3135
 9734W        W25995  14.839  17.607  11.725 -0.3804 -0.0594 -0.1127
 9735W        W25996   4.872  16.725   5.026  0.0580 -0.0852 -0.0723
 9736W        W25997  17.785  17.366   2.866 -0.0820  0.1750 -0.1622
 9737W        W25998  11.950  17.636   0.894 -0.0251  0.2360  0.1856
 9738W        W25999  17.549  16.942  11.900  0.1201  0.1333  0.2768
 9739W        W26000   0.153  12.618  11.658  0.0287  0.0416 -0.2169
 9740W        W26001   6.185   9.902   4.587  0.0866 -0.0818 -0.2661
 9741W        W26002   3.018  17.247   0.383 -0.3979  0.1214  0.2228
 9742W        W26003   6.581  14.822   0.292  0.0404  0.2432  0.3815
 9743W        W26004   9.386  10.667   1.053  0.2718  0.0834 -0.2828
 9744W        W26005  12.428   2.978   0.585  0.0625 -0.0083 -0.0980
 9745W        W26006   6.178  11.122   4.162 -0.3337  0.0458  0.1083
 9746W        W26007   4.533   7.480  11.513  0.2530  0.0619  0.2416
 9747W        W26008   5.303   7.576  15.303  0.1284  0.0214  0.0078
 9748W        W26009  13.343   0.099  13.368 -0.1702 -0.0010  0.1597
 9749W        W26010   5.377   9.364   5.594 -0.0023  0.3544  0.0964
 9750W        W26011   3.643   8.082  12.259 -0.3188  0.1694  0.1790
 9751W        W26012   6.410   3.812  12.044  0.0852 -0.0546 -0.1106
 9752W        W26013   1.926   1.755  14.743 -0.2469 -0.0453  0.2257
 9753W        W26014  12.011   8.647   0.386 -0.0956  0.1849 -0.2217
 9754W        W26015  17.772   3.524  11.921  0.1638 -0.3113 -0.2333
 9755W        W26016  16.415   1.418   4.206  0.1394  0.2180 -0.2506
 9756W        W26017  17.814   0.888   1.956  0.0070  0.0930 -0.3799
 9757W        W26018   0.068  14.443  13.329 -0.0877  0.3030 -0.1681
 9758W        W26019   2.874  12.034  14.932 -0.1040 -0.0134 -0.0495
 9759W        W26020   0.975  11.460   0.141 -0.0789  0.2999 -0.0718
 9760W        W26021   2.369   6.453   3.732 -0.1545 -0.0051  0.0103
 9761W        W26022  17.316   7.199  11.454  0.0039  0.0692 -0.0939
 9762W        W26023   7.162  15.571  15.595 -0.1842 -0.1946  0.3084
 9763W        W26024  15.797   3.008   3.812 -0.2897 -0.1699  0.3657
 9764W        W26025  14.979  17.238  14.495  0.1575  0.3553  0.3466
 9765W        W26026   8.766  11.419   4.962  0.1477  0.0808  0.0261
 9766W        W26027  11.159  12.069  12.964  0.3609 -0.2146 -0.1751
 9767W        W26028  16.599  13.878   1.821 -0.1562 -0.0208  0.1375
 9768W        W26029   2.753  13.376  14.970 -0.2406 -0.1172  0.1472
 9769W        W26030  10.544   5.828  13.529  0.1822  0.0942 -0.3322
 9770W        W26031  14.119  12.424   2.068 -0.2537  0.1269  0.3854
 9771W        W26032  15.674  13.306  14.105 -0.0845  0.1576 -0.0865
 9772W        W26033   9.060   9.088  14.729 -0.0739 -0.1484 -0.1688
 9773W        W26034   3.770   8.675   4.712  0.1877  0.1124  0.0837
 9774W        W26035  12.205   7.067  11.123  0.1811  0.0853  0.1039
 9775W        W26036   5.183  16.453   3.277  0.2088  0.1616  0.0341
 9776W        W26037  17.211   3.691  12.790  0.1597  0.1940  0.1985
 9777W        W26038  16.987   3.435   4.067  0.1574 -0.0290 -0.0177
 9778W        W26039  14.873  18.005   0.731  0.0049 -0.2816 -0.1067
 9779W        W26040  15.887  14.910   4.015 -0.3001 -0.0653  0.1048
 9780W        W26041  14.373   2.424  16.192  0.1728 -0.2026 -0.1293
 9781W        W26042   9.999  14.904   1.160  0.1985  0.3607  0.0102
 9782W        W26043  16.400   3.431   0.488  0.2482  0.5630  0.0442
 9783W        W26044   2.775  18.067   5.084 -0.0295 -0.1176 -0.3105
 9784W        W26045  12.878   3.684   4.947 -0.2384  0.2008  0.1579
 9785W        W26046   7.331  15.144   5.839 -0.2682  0.1542  0.0780
 9786W        W26047   2.848  17.032  14.634 -0.0396  0.1212 -0.4061
 9787W        W26048   6.291   6.779   3.827 -0.2500  0.3193  0.0585
 9788W        W26049   5.591   9.873   0.852 -0.1162 -0.1412 -0.0711
 9789W        W26050  18.042  11.888   3.744 -0.2969  0.0059  0.0402
 9790W        W26051  13.114  13.381   4.058  0.2695 -0.0435 -0.2513
 9791W        W26052  11.575   2.282  12.766 -0.1048  0.1704 -0.1347
 9792W        W26053  15.229   3.875   4.503  0.1868  0.0923  0.0660
 9793W        W26054  16.951   9.256   1.575 -0.0569 -0.0432  0.1077
 9794W        W26055   6.630  18.080  15.250 -0.0256  0.0614  0.1745
 9795W        W26056   0.878   0.344  11.852 -0.1203 -0.0203  0.2884
 9796W        W26057   5.640  17.567   2.150 -0.0828 -0.0129  0.0390
 9797W        W26058  11.464   0.927   1.486  0.2165  0.0369 -0.3906
 9798W        W26059   4.491   5.160   4.333  0.0742 -0.2374 -0.2867
 9799W        W26060   0.806   0.717   4.246  0.1804  0.0057 -0.0365
 9800W        W26061   3.363   9.854  13.429  0.2512  0.1680 -0.0542
 9801W        W26062  10.091  15.313  12.168  0.1263  0.0158 -0.0464
 9802W        W26063  16.075   5.901  12.903 -0.0779  0.3674 -0.0860
 9803W        W26064   4.841  14.386   4.907  0.1380  0.2685 -0.3574
 9804W        W26065   1.505   5.328   0.710  0.0764 -0.0088  0.1643
 9805W        W26066  15.836   2.467   2.832 -0.1898 -0.0760 -0.3293
 9806W        W26067  13.574   7.949  12.862 -0.0959  0.0800  0.0540
 9807W        W26068  11.907  11.251  15.707 -0.2453 -0.0686 -0.1244
 9808W        W26069   5.063  12.173   3.997  0.1849 -0.1646  0.1921
 9809W        W26070   2.001   0.927  15.438  0.0424 -0.0437  0.1259
 9810W        W26071   6.321   5.883  11.965 -0.1409  0.2444 -0.1419
 9811W        W26072  16.511  15.438  16.016  0.0425  0.1712 -0.1867
 9812W        W26073  17.403   6.026   2.840  0.0818  0.0037 -0.1155
 9813W        W26074  12.814   0.967   4.202  0.1427 -0.2341  0.1158
 9814W        W26075  13.417   1.659   4.730 -0.1541  0.3241  0.2601
 9815W        W26076  11.219   1.117   4.399  0.0783 -0.2036  0.4469
 9816W        W26077   9.021   7.713  15.668  0.3285 -0.0973  0.0683
 9817W        W26078   6.868  17.817  12.555  0.3437  0.1428  0.0196
 9818W        W26079   0.432   3.138   0.733 -0.2254  0.2770  0.1914
 9819W        W26080   4.867   2.413   0.460  0.0796  0.0813  0.0493
 9820W        W26081  14.233   6.580  12.537 -0.1019  0.1571  0.3228
 9821W        W26082   1.152   9.985   5.844  0.0290  0.0351 -0.0808
 9822W        W26083  12.461  16.662  13.635  0.0086  0.0453  0.2549
 9823W        W26084   5.338   1.256   1.241 -0.0621  0.2846 -0.2220
 9824W        W26085   7.519  13.301  14.829  0.0512 -0.1094 -0.0746
 9825W        W26086   5.647  18.379  15.566  0.4584  0.0982 -0.3505
 9826W        W26087  16.614  12.092  11.668 -0.1366  0.0961 -0.0570
 9827W        W26088  13.466  13.785  15.714  0.1301  0.0561  0.0545
 9828W        W26089   5.783  12.056   0.859  0.2853 -0.2201  0.3444
 9829W        W26090  16.010  14.213   2.595  0.1324 -0.0685  0.1057
 9830W        W26091  10.783   3.758   2.724 -0.0281  0.1869  0.3572
 9831W        W26092   1.046   5.937   2.159 -0.0369  0.0253 -0.0699
 9832W        W26093   1.115   1.607  15.059  0.1594  0.0905  0.1020
 9833W        W26094  11.583  16.164   1.784 -0.4013  0.0183 -0.1062
 9834W        W26095   9.259   8.635  15.825 -0.3867 -0.0362  0.3283
 9835W        W26096   2.328   9.141   4.053 -0.0431 -0.1129  0.1614
 9836W        W26097  10.222  14.678   0.142  0.0335  0.0581  0.5227
 9837W        W26098   0.381  15.027   0.366 -0.3714  0.0745 -0.1583
 9838W        W26099   2.392   0.445   4.023  0.1594  0.0461 -0.1438
 9839W        W26100   1.397   3.947   1.415  0.1792 -0.1828  0.0604
 9840W        W26101   4.686  14.924  14.683 -0.0132  0.1278 -0.1235
 9841W        W26102   1.913  10.278   4.555 -0.0875 -0.0941 -0.2951
 9842W        W26103  14.562  14.448   3.185  0.2383  0.3439  0.1094
 9843W        W26104  17.845   3.189  13.532 -0.2114  0.1321  0.0267
 9844W        W26105  10.235   4.046  16.025  0.1710 -0.2263  0.2433
 9845W        W26106   7.302   9.222  13.423 -0.0072  0.1635 -0.1067
 9846W        W26107  12.216  15.867  13.390  0.2339 -0.1031 -0.0770
 9847W        W26108  11.720  15.648  11.255  0.2967 -0.0021  0.2165
 9848W        W26109   7.533  12.276  14.912  0.1524  0.1783 -0.2682
 9849W        W26110   2.551  16.354  15.259  0.2171  0.4220 -0.0589
 9850W        W26111   2.411  14.158  15.582  0.0971 -0.1153 -0.1689
 9851W        W26112   4.363  12.485   0.145  0.0483 -0.1648 -0.1581
 9852W        W26113  17.149  10.203   3.914  0.2732 -0.2195 -0.0819
 9853W        W26114   0.684   7.855  15.337  0.2196 -0.0804 -0.2992
 9854W        W26115   6.018   2.271   1.148 -0.1156 -0.0147  0.1855
 9855W        W26116   4.946  13.493   3.154  0.0290 -0.0482 -0.0074
 9856W        W26117  12.317  17.873  11.391  0.2246  0.0879 -0.1017
 9857W        W26118  11.013   6.981  14.975 -0.0578 -0.1838 -0.0298
 9858W        W26119   4.684   3.566  14.768  0.0140 -0.0648 -0.1153
 9859W        W26120   3.943  16.432   1.926 -0.3236 -0.3800 -0.1204
 9860W        W26121   3.800   9.092   3.019 -0.1868 -0.0478  0.0463
 9861W        W26122   8.579  17.386  13.895  0.1044 -0.2890  0.2616
 9862W        W26123  13.519  11.578   2.368 -0.0556  0.0464 -0.1032
 9863W        W26124   6.790   3.076   3.323  0.1112  0.1218  0.2256
 9864W        W26125  13.778  15.705   2.039  0.1514  0.1881  0.2777
 9865W        W26126   2.084  15.367  16.265 -0.0257 -0.1756  0.2338
 9866W        W26127  15.762   3.411  13.144 -0.0535 -0.2433 -0.1154
 9867W        W26128  10.754  15.222   1.348  0.0018  0.1513 -0.0239
 9868W        W26129  13.396  17.856  14.376  0.1625  0.1749  0.0260
 9869W        W26130  13.584  15.907   2.836  0.0534  0.1581 -0.3325
 9870W        W26131   0.005   7.249  15.113 -0.1558  0.1304  0.1761
 9871W        W26132   3.907  10.578  13.072 -0.3149  0.1835  0.2097
 9872W        W26133   7.462  15.961  10.752 -0.3087  0.1303  0.0303
 9873W        W26134   8.515  18.150  15.603 -0.0063  0.1153  0.0691
 9874W        W26135   6.535   6.014   0.865  0.4579  0.0328  0.2624
 9875W        W26136  16.650   9.942  11.482  0.1476 -0.3930  0.0053
 9876W        W26137  11.675  12.395  10.660  0.1977 -0.0299  0.2546
 9877W        W26138   9.396  16.447  14.138  0.0664  0.2182  0.1251
 9878W        W26139   9.215  17.239  14.756 -0.2277 -0.0992 -0.0173
 9879W        W26140   2.955   4.689   0.173  0.0646 -0.1960 -0.1330
 9880W        W26141  13.053   5.223   3.934  0.1706  0.0387  0.0490
 9881W        W26142  11.973   6.997   2.530 -0.0406 -0.1321 -0.1397
 9882W        W26143   2.719  12.065   4.394 -0.0935 -0.2032  0.1450
 9883W        W26144   5.738  13.074  14.492  0.0779  0.4013 -0.1812
 9884W        W26145  11.849   8.752   3.211 -0.1881 -0.0101  0.0869
 9885W        W26146   1.796   6.986   4.056 -0.1071 -0.1082  0.1364
 9886W        W26147  12.663  13.396   3.495  0.1046 -0.1258 -0.0474
 9887W        W26148   3.566  17.887   1.024 -0.0378 -0.1169 -0.2012
 9888W        W26149  15.277   1.651   1.877  0.1625 -0.0335  0.3797
 9889W        W26150  13.615  10.972  11.943  0.3271 -0.1357  0.2279
 9890W        W26151   1.324   8.539   4.777  0.2365  0.2495 -0.0175
 9891W        W26152  10.891  13.626   5.613  0.2700  0.2676 -0.1669
 9892W        W26153   6.192  17.312  12.399 -0.2135 -0.0050  0.2586
 9893W        W26154   9.467   5.981   2.123 -0.2276  0.0231  0.0820
 9894W        W26155  16.938  12.978   1.308 -0.1347 -0.0798  0.0922
 9895W        W26156   6.803   0.116   0.604  0.0030  0.1218  0.2718
 9896W        W26157   0.995   4.291   1.183  0.2447  0.0473 -0.2708
 9897W        W26158   8.009  10.513  12.606 -0.1746 -0.0904 -0.2148
 9898W        W26159   8.700   4.984   2.207 -0.0152  0.4344 -0.2962
 9899W        W26160   1.498   6.735   5.728 -0.1363 -0.2925  0.2476
 9900W        W26161  17.339   0.203   1.865  0.1708 -0.2962  0.2493
 9901W        W26162  15.343   9.378   0.851 -0.2404  0.1206 -0.0397
 9902W        W26163   8.842   2.541  11.462 -0.0303 -0.2761  0.3628
 9903W        W26164  14.620   6.134   2.519 -0.0116  0.2383  0.0278
 9904W        W26165   8.147  15.894   5.370  0.0281 -0.1333  0.4235
 9905W        W26166  12.170   5.530  12.263 -0.0272 -0.0935  0.1440
 9906W        W26167  18.094  13.420  14.045 -0.0134  0.1523 -0.0241
 9907W        W26168   8.859   5.571  12.002 -0.2152  0.0124  0.2874
 9908W        W26169   0.913   5.509   0.721 -0.2022  0.0505 -0.2449
 9909W        W26170   2.933   3.312  12.379  0.2678  0.0147  0.2335
 9910W        W26171  15.136  16.181   5.694 -0.0084 -0.3802  0.3142
 9911W        W26172   6.284  15.028   1.943 -0.2079 -0.0429  0.1024
 9912W        W26173  15.497   8.740   2.541 -0.0607  0.0556  0.0150
 9913W        W26174   7.686   9.224  14.744 -0.1339  0.2714  0.0103
 9914W        W26175  10.630   2.937   0.711 -0.2884  0.2285 -0.3163
 9915W        W26176   9.738  14.731  13.907 -0.1933 -0.0004  0.0899
 9916W        W26177   5.374   6.637  15.179  0.1839  0.2876  0.1870
 9917W        W26178   4.179  12.072   4.058 -0.0615  0.1734 -0.3283
 9918W        W26179   6.526   9.033   3.459 -0.0853  0.1103 -0.0245
 9919W        W26180  12.197  17.466  12.898  0.0285  0.0319 -0.2332
 9920W        W26181   8.954  11.178   4.166  0.1808 -0.5419  0.0215
 9921W        W26182   2.944   7.289   3.140  0.0754 -0.1660 -0.1139
 9922W        W26183   0.376  16.853   4.097  0.0476  0.1311 -0.0633
 9923W        W26184  13.506   7.423  12.972 -0.0441  0.0055  0.1088
 9924W        W26185   1.682   2.010   2.528 -0.1172  0.1099  0.1487
 9925W        W26186   6.265   1.323   3.940 -0.0336  0.1993 -0.1936
 9926W        W26187   5.552  11.095  13.152  0.2372  0.2681  0.0865
 9927W        W26188  12.103   6.854   2.995 -0.0240 -0.0421  0.1354
 9928W        W26189  15.659   7.303  14.620 -0.1625 -0.0084  0.2125
 9929W        W26190   9.240   3.180   4.351 -0.1492 -0.0427  0.2724
 9930W        W26191   2.189   2.163  12.065 -0.0277  0.4637 -0.3551
 9931W        W26192   4.576   5.383  11.777 -0.0602 -0.1903  0.0407
 9932W        W26193   7.800   0.256  14.856 -0.0507  0.0986  0.0670
 9933W        W26194  12.268   8.345   3.931 -0.0265  0.3913 -0.1430
 9934W        W26195  12.248   7.702   5.831 -0.0460 -0.0801  0.2359
 9935W        W26196   5.519   4.702  14.282 -0.0896  0.2658  0.0808
 9936W        W26197  16.228   6.582  14.183  0.3399 -0.0219  0.1797
 9937W        W26198  10.019   4.912   0.949  0.1651  0.2204  0.0706
 9938W        W26199  14.268   3.863  14.635  0.3208 -0.0109  0.0253
 9939W        W26200  16.053   9.802   4.514 -0.1874  0.2679 -0.2674
 9940W        W26201  15.253   6.024   1.070 -0.0125  0.0213 -0.0305
 9941W        W26202   8.029  12.824  11.771  0.0568 -0.2134 -0.2065
 9942W        W26203  12.111   3.110  13.730 -0.0598  0.1605  0.1159
 9943W        W26204   7.140  17.410  14.532 -0.0959  0.1297 -0.3896
 9944W        W26205   6.741   4.603   4.394 -0.0582 -0.0855  0.0331
 9945W        W26206  13.940  11.742  14.299  0.2405  0.2754  0.2161
 9946W        W26207  14.194  14.416   5.443  0.0213  0.0359  0.2033
 9947W        W26208  16.727   3.407   0.087 -0.0074 -0.0617 -0.3292
 9948W        W26209   7.384  11.347  13.952  0.1027  0.0302  0.2495
 9949W        W26210   1.620  17.745  15.971  0.2687 -0.0003 -0.1070
 9950W        W26211   3.724   9.425   4.069 -0.0280 -0.3227 -0.1277
 9951W        W26212  14.995  14.910   3.240 -0.1539 -0.1944 -0.2081
 9952W        W26213   0.800   8.889  13.151  0.1453  0.1372  0.1028
 9953W        W26214  16.066   2.331   4.523  0.2508  0.1746 -0.0139
 9954W        W26215  13.512   1.135   4.480  0.2107  0.0754  0.1191
 9955W        W26216   8.218  15.966   0.315  0.1377  0.1708  0.0056
 9956W        W26217  14.649   6.598   4.940 -0.4248 -0.2873  0.1907
 9957W        W26218  10.943   8.987   4.909  0.3789  0.2920 -0.1999
 9958W        W26219   9.371  13.973   1.486  0.0291  0.0695 -0.0834
 9959W        W26220   0.195   8.851  13.095  0.1765 -0.3455 -0.1269
 9960W        W26221  14.359  17.540  14.394  0.1266  0.1186  0.3542
 9961W        W26222  14.172   3.427  11.525  0.0737  0.0049  0.2921
 9962W        W26223  12.642  10.433  15.447 -0.3672  0.2668 -0.2738
 9963W        W26224   6.133  13.309  16.281  0.1623  0.0070 -0.1781
 9964W        W26225   8.548  17.507   0.026 -0.0032  0.1848  0.0545
 9965W        W26226   4.787  10.140   1.755 -0.0517 -0.0177  0.0905
 9966W        W26227  16.433   4.953  13.351 -0.0273  0.2875 -0.0397
 9967W        W26228   5.700   2.178   4.357 -0.0679  0.0233  0.1175
 9968W        W26229   1.718   2.596   0.814 -0.2163  0.4369 -0.0543
 9969W        W26230   8.150   4.033   0.297  0.1604  0.0873  0.3515
 9970W        W26231  10.216   1.864   4.199 -0.0021  0.0425  0.2711
 9971W        W26232  16.045  13.874   4.395 -0.1178 -0.0081  0.1147
 9972W        W26233  13.927  15.580   5.842 -0.0245  0.2216 -0.0553
 9973W        W26234  15.170   0.339  15.139  0.0861 -0.0222 -0.2175
 9974W        W26235  17.031  15.633  11.531  0.3824  0.0079  0.1431
 9975W        W26236   1.953   4.033   3.786 -0.2301  0.1345  0.0547
 9976W        W26237  17.266  11.455   4.922  0.2222 -0.1082  0.1778
 9977W        W26238  13.479  11.694  15.661 -0.1799  0.0348 -0.0753
 9978W        W26239  16.842   0.377  13.788 -0.0403 -0.0877  0.2817
 9979W        W26240  11.985   2.520   5.274  0.1678 -0.2669 -0.2547
 9980W        W26241   6.852   0.835  15.606 -0.1467  0.0433 -0.1226
 9981W        W26242   9.675   3.553  15.274  0.3574 -0.1057  0.4326
 9982W        W26243   8.189  16.767   0.826  0.0297 -0.1233  0.0992
 9983W        W26244   3.999  18.245   2.240  0.0286  0.3367 -0.2241
 9984W        W26245   2.766   0.993  13.315 -0.0813 -0.2373 -0.0645
 9985W        W26246  13.061   4.669  12.903 -0.1675  0.4135  0.0647
 9986W        W26247   7.516  16.427  11.032 -0.3585 -0.2006  0.4284
 9987W        W26248   9.056   4.488   2.138  0.0296 -0.2335 -0.2197
 9988W        W26249  14.513   4.370  14.288 -0.0197  0.0237 -0.0745
 9989W        W26250  12.898   0.711   1.832 -0.0054 -0.1875 -0.1730
 9990W        W26251  16.935  10.174  10.970  0.0712  0.2155 -0.1850
 9991W        W26252   6.282   9.353   4.502  0.0062 -0.1317  0.1361
 9992W        W26253   6.940  14.469  11.760  0.0378  0.0392  0.3269
 9993W        W26254   9.067   6.272  12.478 -0.0617  0.1317 -0.1235
 9994W        W26255  10.051   2.795   1.217  0.4430 -0.2850 -0.1160
 9995W        W26256   2.016  10.856  13.094 -0.0301 -0.0629  0.0608
 9996W        W26257  11.701   3.373  13.991 -0.1979 -0.2000  0.2149
 9997W        W26258  18.144  16.148   5.110  0.0223 -0.1725 -0.0934
 9998W        W26259  17.172   1.491  12.390 -0.1000  0.2301  0.0741
 9999W        W26260  10.758   0.268  14.856 -0.0279 -0.0786 -0.0880
10000W        W26261   6.374   4.504  11.347 -0.0947  0.1940 -0.2266
10001W        W26262  11.808  11.125  13.087 -0.1734  0.0659  0.0880
10002W        W26263  15.121   2.882   6.765 -0.0010 -0.0237  0.1447
10003W        W26264   4.685  15.178  15.141  0.0061  0.2257  0.1148
10004W        W26265  18.335   8.160   1.593 -0.2470  0.3859  0.1839
10005W        W26266  18.342   6.301   0.870 -0.2583  0.1715  0.2280
10006W        W26267   8.395   9.161  11.754 -0.0945 -0.1888 -0.0981
10007W        W26268   8.618  11.252  14.436 -0.1719  0.2944  0.3033
10008W        W26269   7.732  15.936   0.410  0.3812  0.2838 -0.0087
10009W        W26270  15.225   0.622  15.985  0.1448 -0.0646  0.2255
10010W        W26271   6.026   8.967   3.480 -0.0247 -0.2389 -0.1389
10011W        W26272  12.490  14.070   1.103 -0.1291  0.0517  0.0801
10012W        W26273   1.763   7.806  15.328  0.0014 -0.1501 -0.1091
10013W        W26274   5.359   4.292   1.175 -0.2157  0.4062  0.4042
10014W        W26275  14.913  16.894   0.632  0.1417  0.0260 -0.0914
10015W        W26276  12.160   2.885   4.491  0.0317  0.0796 -0.0032
10016W        W26277  12.329   4.593   4.171  0.3236  0.0604 -0.2000
10017W        W26278   3.315   4.667   4.937  0.1950 -0.2203  0.0493
10018W        W26279   8.908   2.001  14.519  0.3348 -0.2178  0.2920
10019W        W26280   2.593   8.989   0.467  0.2079 -0.6663 -0.3139
10020W        W26281  11.719  14.307   2.896  0.1556  0.0759  0.0013
10021W        W26282   3.055   6.958   3.489 -0.0787 -0.2086  0.0640
10022W        W26283  10.653  15.263  12.208 -0.2975  0.1327  0.2333
10023W        W26284  15.635  12.502   3.814 -0.0357 -0.1819 -0.4009
10024W        W26285   1.952   0.831  12.791  0.3942 -0.0199 -0.1648
10025W        W26286   2.115   0.644  12.235 -0.3264  0.4089  0.1648
10026W        W26287   1.939   0.842   2.894 -0.1196  0.1720 -0.3618
10027W        W26288  16.323   5.968   3.552  0.0418  0.0745  0.0175
10028W        W26289   5.937  16.374  13.040  0.0630 -0.0543  0.4993
10029W        W26290   1.065   6.471  12.086 -0.1557 -0.1215 -0.1524
10030W        W26291  11.480   3.177   4.058  0.0295  0.1428  0.0244
10031W        W26292   4.622   1.395   1.813 -0.2584 -0.1557 -0.1044
10032W        W26293   7.537   4.174  14.059 -0.0048 -0.2482  0.2836
10033W        W26294   2.376   0.209   1.450  0.1450  0.1195  0.0774
10034W        W26295   7.834   1.752  11.903 -0.0424 -0.2159 -0.1864
10035W        W26296   7.201   1.128   4.630 -0.0530  0.1500 -0.0307
10036W        W26297   9.949  15.420  11.582  0.1020 -0.1385  0.2157
10037W        W26298   9.999   5.898   3.906 -0.0054  0.0004 -0.2717
10038W        W26299   4.669   1.150   0.416  0.2115 -0.1883 -0.0437
10039W        W26300  16.591   5.109   2.536 -0.2262  0.2134 -0.0560
10040W        W26301  11.129   5.552   4.406 -0.0785  0.1363  0.4233
10041W        W26302  10.090   6.770  12.451 -0.1104 -0.1776 -0.1786
10042W        W26303  12.442  10.147  11.227 -0.0022  0.1439  0.1122
10043W        W26304  14.109   9.513   1.606 -0.1466  0.1693  0.2654
10044W        W26305   6.317  16.156   5.761  0.0009 -0.0763  0.4885
10045W        W26306   8.240  17.719   2.979 -0.0880 -0.2452 -0.0533
10046W        W26307   4.669  14.584  13.110  0.0490  0.0276  0.0683
10047W        W26308  15.469  16.194   3.156 -0.0399  0.0758 -0.0253
10048W        W26309   5.206  17.166  14.968  0.3225  0.0599  0.1123
10049W        W26310   9.974  13.442  11.282  0.2446  0.1395 -0.1626
10050W        W26311   0.035   5.282  13.075 -0.4275 -0.1432 -0.0945
10051W        W26312   1.755  14.061   1.804 -0.4207 -0.0948 -0.0360
10052W        W26313  14.231   0.164  13.380  0.2421  0.0565 -0.0945
10053W        W26314   6.815   5.141  14.205 -0.0071  0.2516 -0.2462
10054W        W26315  13.728   0.763  15.485  0.1306 -0.1253 -0.0091
10055W        W26316  13.071   5.459   0.021  0.1972  0.0493 -0.1223
10056W        W26317   7.865   7.181   0.834  0.1052  0.3756  0.3284
10057W        W26318  18.100   1.872   1.869 -0.4742  0.2513 -0.0972
10058W        W26319   4.754   8.548   4.453  0.0163  0.1863  0.0544
10059W        W26320   3.479   6.718  14.898 -0.3155 -0.1536  0.1928
10060W        W26321  11.907  13.528   4.080 -0.1683  0.1057  0.0251
10061W        W26322   9.275   9.391  11.629  0.0245  0.0648  0.1191
10062W        W26323  15.687   0.660   6.494 -0.2948  0.3671  0.4609
10063W        W26324   0.889  10.670   0.211 -0.0786  0.2301 -0.3112
10064W        W26325   7.020   8.850  13.570 -0.0869  0.1427  0.2624
10065W        W26326  12.197  12.164  11.679 -0.1375  0.1048 -0.1617
10066W        W26327  11.631  11.459  13.910  0.1293 -0.0685 -0.0610
10067W        W26328   4.284  12.307   1.486  0.2109 -0.1342  0.1552
10068W        W26329  11.516  17.493   3.656  0.1362 -0.2580  0.2381
10069W        W26330   3.643   1.208   0.062  0.1550  0.0669  0.1629
10070W        W26331  15.916  17.033  11.892 -0.0097  0.0873  0.1191
10071W        W26332  13.682  15.554   1.537 -0.0195  0.1671  0.0405
10072W        W26333  18.113  13.724  14.548 -0.3233 -0.1790 -0.0504
10073W        W26334   5.362   5.188   2.839  0.0189  0.3784  0.1841
10074W        W26335   7.583  12.483  15.394 -0.0947 -0.1687  0.2601
10075W        W26336  15.269  13.875   4.864 -0.2218  0.4063 -0.2501
10076W        W26337  14.484  15.911   4.207 -0.0742 -0.1253  0.3501
10077W        W26338   9.085  16.237   4.490 -0.0001  0.2819  0.2910
10078W        W26339  10.769  16.497   5.386 -0.1556 -0.2300  0.0877
10079W        W26340  13.671   6.218  11.418  0.2828  0.1131  0.0058
10080W        W26341   7.691   2.397   4.802 -0.2611 -0.1858  0.0649
10081W        W26342   1.448  15.080   2.348 -0.3243 -0.0426 -0.2155
10082W        W26343  13.807  12.502   4.057 -0.1837 -0.0080 -0.3832
10083W        W26344  17.012  14.433  11.918  0.3594  0.0221  0.2105
10084W        W26345  13.791   7.062   1.684  0.1231 -0.0447 -0.0106
10085W        W26346   8.054  18.356  15.317 -0.1842 -0.3317  0.4093
10086W        W26347  11.573   0.398  15.923  0.1675  0.2418 -0.0887
10087W        W26348   6.250  18.232  13.924 -0.2242  0.1269  0.4954
10088W        W26349  11.599   8.595   4.424 -0.0961  0.1544  0.0921
10089W        W26350  15.879  10.990  15.326 -0.1257  0.1062 -0.0160
10090W        W26351  14.231   8.481  15.729 -0.0093  0.0757  0.2317
10091W        W26352  11.984   1.577   4.452 -0.1686 -0.1744  0.0248
10092W        W26353   0.425   6.895   3.340 -0.3510 -0.0831  0.0091
10093W        W26354  16.632  18.371   1.268 -0.2697  0.0939  0.1304
10094W        W26355   2.778   8.228   4.610 -0.1165 -0.1511 -0.0110
10095W        W26356  14.404  11.699  13.692 -0.8022 -0.2808  0.2544
10096W        W26357   7.424  11.433   2.902 -0.3291 -0.0398  0.0124
10097W        W26358  16.974   7.334  15.208 -0.0234 -0.1327  0.0597
10098W        W26359   5.751   5.423  16.289  0.1921  0.1325 -0.2326
10099W        W26360   4.954  16.592  13.302 -0.2362  0.1418 -0.2264
10100W        W26361   6.095  12.557   0.892 -0.1594 -0.0699  0.1906
10101W        W26362  17.442  13.870  15.342 -0.2800 -0.2368  0.1284
10102W        W26363   6.340   8.844  10.422  0.1113  0.0558 -0.2011
10103W        W26364   5.091  14.523   3.461  0.3656 -0.2543  0.0272
10104W        W26365  14.960   9.259  12.758 -0.1232 -0.1732 -0.1063
10105W        W26366  14.072  11.493   2.433  0.0440  0.1984 -0.2254
10106W        W26367   5.988  15.095  12.392  0.2174  0.1137  0.1209
10107W        W26368   5.050   1.900   1.301  0.1538 -0.1407 -0.1876
10108W        W26369  12.101  11.663  10.863  0.0598  0.0779  0.0279
10109W        W26370   6.908   7.504   0.801  0.1918 -0.3092  0.1391
10110W        W26371   3.260   7.006   5.417  0.0043 -0.0231  0.2109
10111W        W26372   6.364  11.854   5.273  0.1996  0.2696 -0.1970
10112W        W26373   5.431   1.214   3.873  0.0705  0.0176 -0.0084
10113W        W26374  13.167  13.084   3.565  0.0190  0.2092  0.1194
10114W        W26375   8.386   6.179   3.606  0.0755  0.0317  0.0158
10115W        W26376  11.962  14.040  13.586 -0.3935 -0.0832  0.3734
10116W        W26377   9.411   6.537   2.904 -0.1754 -0.2171  0.0188
10117W        W26378  18.206   5.842   2.900  0.0913 -0.0943 -0.1601
10118W        W26379   4.498   8.479   2.986 -0.3147 -0.1441 -0.1743
10119W        W26380   8.210   9.834  15.413 -0.0160  0.0162 -0.1544
10120W        W26381   4.606  11.357  15.310 -0.1067  0.0584  0.1222
10121W        W26382  13.307  13.080   3.056 -0.0802 -0.0088 -0.2549
10122W        W26383  17.689   4.313  14.410 -0.1010  0.0965  0.1689
10123W        W26384   1.525  17.508   6.244  0.2126  0.0134 -0.1132
10124W        W26385  16.865   6.021  14.869  0.0686  0.1527 -0.1720
10125W        W26386   7.203   2.981  15.744  0.1028 -0.2870 -0.1030
10126W        W26387   0.820  15.334   2.718 -0.0069  0.2058  0.3642
10127W        W26388  14.193   5.831   2.614  0.2066 -0.1833  0.1066
10128W        W26389  16.074  11.034   1.961 -0.2829 -0.0262  0.1365
10129W        W26390  14.549   7.743  13.656  0.3750 -0.4220 -0.1916
10130W        W26391  11.603   9.812  12.904 -0.0423  0.2589 -0.2242
10131W        W26392   5.029   4.879   0.853  0.1159  0.1218 -0.0270
10132W        W26393  15.117  13.136  14.827  0.1697 -0.2412  0.3368
10133W        W26394  16.164   0.087   5.364 -0.1456 -0.1104  0.2775
10134W        W26395  13.492  17.661   0.318 -0.4548 -0.0538  0.0265
10135W        W26396  16.370  15.951   0.928 -0.0813  0.2003  0.2556
10136W        W26397   8.523   8.957  15.212  0.0417  0.1738 -0.0783
10137W        W26398  12.277   4.936   4.583 -0.0487  0.2158 -0.0521
10138W        W26399   7.566   6.293  15.980 -0.2508  0.1129  0.0629
10139W        W26400  10.979   3.301   3.988 -0.0172  0.4129 -0.0760
10140W        W26401   8.782   8.169  12.992  0.0730  0.1493 -0.0644
10141W        W26402   8.412  11.284  13.949 -0.1685 -0.0711  0.2730
10142W        W26403   1.563   4.891   1.578  0.0923  0.4710 -0.3355
10143W        W26404  13.434  10.496  13.243 -0.1526 -0.2147  0.0481
10144W        W26405   3.192   8.694   3.407 -0.1050 -0.3979 -0.0164
10145W        W26406   4.964   1.737  12.875 -0.3266 -0.1347  0.0983
10146W        W26407   8.882   0.059  10.881  0.1873  0.3669  0.0240
10147W        W26408   8.258   1.097  14.180 -0.1043  0.1444  0.2583
10148W        W26409   6.207  10.294   1.170 -0.1391  0.2583 -0.2126
10149W        W26410   8.772   8.999   3.406 -0.1183  0.4867 -0.0828
10150W        W26411  13.708  13.786   1.028 -0.0156 -0.1418 -0.1499
10151W        W26412   7.796   9.603  12.373 -0.4288  0.0159 -0.2298
10152W        W26413   9.245   0.015  11.278  0.0524 -0.1002  0.0411
10153W        W26414  17.389   5.588   3.460  0.0827  0.2766  0.1387
10154W        W26415   1.665  16.472   4.635 -0.1980  0.0811 -0.0869
10155W        W26416  10.624   8.208   1.466 -0.2726 -0.1881 -0.1545
10156W        W26417   6.725   3.550  12.717  0.0276 -0.1474  0.0378
10157W        W26418   1.232  17.982  16.198  0.3266  0.1724 -0.0405
10158W        W26419  16.863   1.910  12.502  0.2246  0.0320 -0.1270
10159W        W26420  16.108   7.800   0.998  0.2029  0.1155  0.1412
10160W        W26421  16.247   6.211  12.548  0.2110  0.0417  0.0814
10161W        W26422   6.507   7.182   0.726  0.0037  0.1969  0.2420
10162W        W26423   4.475  14.096  13.067 -0.0948 -0.0986 -0.0704
10163W        W26424  17.293   9.303   3.425 -0.0476  0.0134  0.1362
10164W        W26425  15.186  11.677   0.838  0.0485  0.0776 -0.0507
10165W        W26426   7.960   3.823  11.367  0.1567 -0.2247 -0.0902
10166W        W26427  15.073   8.071   2.118  0.3321  0.0625  0.0348
10167W        W26428  15.796   2.993  12.389 -0.1443  0.0879  0.0442
10168W        W26429   7.603   3.426  10.785 -0.4170 -0.0347  0.1099
10169W        W26430   2.556  11.256   5.397  0.0281 -0.0786 -0.1223
10170W        W26431  17.490   9.857  11.133 -0.2083 -0.0804 -0.1312
10171W        W26432  14.129  10.187   2.463  0.1067  0.1273 -0.0396
10172W        W26433  10.435  16.380  15.014 -0.0550  0.0636 -0.0062
10173W        W26434  13.665  12.009  13.226  0.1413  0.1082 -0.0559
10174W        W26435   6.894  11.161   5.826 -0.0605 -0.0234  0.1960
10175W        W26436   3.122  13.715  10.981 -0.3431 -0.1143 -0.0535
10176W        W26437   6.476   6.650   4.287  0.0547  0.4455  0.1339
10177W        W26438   1.484  18.250  12.222  0.3223 -0.1379 -0.0290
10178W        W26439  17.930  17.431   0.254  0.3081 -0.1100 -0.2783
10179W        W26440   9.313  17.870  13.541 -0.0365  0.1637  0.0261
10180W        W26441  17.380  15.284  15.070  0.0624  0.2537  0.1790
10181W        W26442  17.163  16.399   4.406 -0.0469  0.1985 -0.1097
10182W        W26443  14.421   7.333  12.847  0.1026 -0.0999  0.1681
10183W        W26444   0.044   3.865  14.146  0.1083  0.1293  0.0577
10184W        W26445   4.653   0.046   0.949 -0.2162  0.0683  0.3219
10185W        W26446   0.565  15.071   4.799 -0.1304  0.3204  0.0300
10186W        W26447  17.903   3.885   0.435 -0.0737  0.0818  0.0537
10187W        W26448  13.357   7.465  11.310  0.1785  0.0503  0.2077
10188W        W26449  15.524   9.039  16.219 -0.0637  0.1599 -0.2261
10189W        W26450   5.845   2.902  13.318 -0.0044 -0.2319 -0.3921
10190W        W26451  12.649   9.336   5.413 -0.1500 -0.0418  0.2828
10191W        W26452  15.857  16.562   2.517 -0.0538 -0.1874 -0.0415
10192W        W26453   5.134   7.679  15.812 -0.0749  0.1520 -0.0651
10193W        W26454   9.337  10.886   4.389 -0.0527 -0.0722  0.2769
10194W        W26455   7.447   7.054   5.204  0.3646 -0.3013  0.2794
10195W        W26456   6.049   1.292   3.158  0.0074 -0.2020  0.0157
10196W        W26457  13.657  15.552  15.004 -0.1006  0.0278 -0.1377
10197W        W26458  17.294   1.705   1.348  0.4320  0.0629 -0.2008
10198W        W26459  13.889  17.835  15.055 -0.0338  0.4217 -0.0722
10199W        W26460   9.334  12.361   1.640 -0.2084 -0.1031  0.1408
10200W        W26461   4.408   5.364   2.457 -0.0190  0.1122  0.0918
10201W        W26462   9.780  15.736  15.331 -0.0454 -0.2212  0.2161
10202W        W26463   8.041   7.096   1.758  0.3043  0.2014 -0.1711
10203W        W26464   6.950  13.718  15.488  0.1771 -0.2288 -0.3408
10204W        W26465   4.561   9.389  12.794 -0.2244  0.0894 -0.2328
10205W        W26466  17.462  16.256  14.640  0.0328 -0.2108  0.1450
10206W        W26467   2.551   7.212   0.359 -0.0163  0.3412  0.0533
10207W        W26468   0.948  13.342   2.507 -0.0130 -0.0471  0.2143
10208W        W26469   1.437   8.261   0.109  0.3125 -0.1264 -0.0145
10209W        W26470  17.432   5.490   1.772  0.0358  0.0259  0.0242
10210W        W26471   5.886  11.379   0.201 -0.0386 -0.3916  0.1498
10211W        W26472  12.567   6.474  12.214  0.0567 -0.2567 -0.1895
10212W        W26473   0.458  15.487  14.115 -0.2257 -0.2336  0.0823
10213W        W26474   1.455   5.162  12.889  0.0396  0.0970 -0.0822
10214W        W26475  10.613  14.465  14.462  0.1032 -0.0891  0.1669
10215W        W26476   8.173   8.303  11.880 -0.0951  0.3482  0.0760
10216W        W26477  15.788   1.038  11.496  0.1724 -0.1629 -0.0413
10217W        W26478   4.987  10.783  12.448 -0.0787  0.1203 -0.0141
10218W        W26479   9.278  13.938  13.590  0.0890  0.1976 -0.0021
10219W        W26480  14.201   4.327  14.763 -0.2716  0.3190 -0.0358
10220W        W26481  13.087  10.067   0.923  0.0690  0.0235  0.1466
10221W        W26482   1.882   0.998   3.657 -0.2246 -0.0924  0.0781
10222W        W26483   2.186  10.687   4.771 -0.0005 -0.1132  0.0896
10223W        W26484   8.550   2.752   2.129 -0.1966 -0.2471  0.3637
10224W        W26485  13.941   1.626   3.834  0.1413 -0.2382 -0.0167
10225W        W26486   6.214  17.006   2.390  0.2293  0.0417 -0.2469
10226W        W26487   2.824  13.149   3.542 -0.1514  0.0326 -0.0611
10227W        W26488  11.192  10.636   1.858  0.1940 -0.0809 -0.0814
10228W        W26489   4.458   8.113   4.547  0.0300 -0.1855 -0.0461
10229W        W26490  17.374   7.046  14.925  0.1803  0.0124 -0.2045
10230W        W26491  12.016  11.744   1.271 -0.1216 -0.3852  0.2414
10231W        W26492  17.897   7.604  15.658  0.1884 -0.0140 -0.2301
10232W        W26493   3.121   8.770  15.523 -0.2576 -0.3120 -0.1232
10233W        W26494  16.706   2.318  12.054  0.2078  0.0253 -0.0690
10234W        W26495  18.063   9.649   3.828 -0.1011  0.2729 -0.0479
10235W        W26496  13.167   0.781   1.018 -0.2165 -0.3320 -0.1526
10236W        W26497   1.274  12.356  16.256 -0.1131 -0.0702 -0.0541
10237W        W26498  12.064   3.985  12.290  0.1096 -0.0863 -0.1001
10238W        W26499  16.333  11.493   4.584  0.3332 -0.1447  0.0180
10239W        W26500   0.339  11.012  14.427  0.0586  0.1594  0.0530
10240W        W26501  10.294  13.748  10.946 -0.0894  0.1843 -0.0061
10241W        W26502  16.496  12.862  15.771  0.0087 -0.2505 -0.4602
10242W        W26503  12.687  16.268   5.808 -0.2968  0.1598 -0.3057
10243W        W26504   9.639  10.604  10.014  0.1570 -0.3311 -0.2131
10244W        W26505  18.028   2.569  12.259  0.0294  0.0026  0.0567
10245W        W26506   1.162  15.298  12.763  0.2163  0.0874 -0.0923
10246W        W26507   9.495   4.771   0.256 -0.2053  0.0720  0.0594
10247W        W26508  17.381  15.834  14.264  0.2847  0.1828  0.1929
10248W        W26509  11.757   6.886  15.313 -0.1368 -0.1549  0.1368
10249W        W26510   2.049   0.051  14.380 -0.0809 -0.2136  0.2068
10250W        W26511   0.239   7.802   0.956 -0.0912 -0.0513 -0.0301
10251W        W26512  13.614  16.955  10.433 -0.0724 -0.2073 -0.0872
10252W        W26513  17.066   3.764   2.060  0.1558  0.3133 -0.0343
10253W        W26514   3.839  15.227   2.204  0.3207 -0.1541 -0.1248
10254W        W26515   4.201   2.612  12.170 -0.1773  0.2978 -0.2997
10255W        W26516   6.085  11.654   2.994 -0.0786 -0.2291 -0.1378
10256W        W26517   8.699   1.348  13.472 -0.0548  0.0015 -0.2942
10257W        W26518   4.734   3.423   0.339  0.1098  0.1044  0.0483
10258W        W26519   2.042   1.777   2.182  0.1837  0.0427  0.0100
10259W        W26520   4.704   5.205  13.807  0.1982 -0.2905  0.0723
10260W        W26521  14.757   2.510  11.990 -0.2298 -0.0241 -0.2757
10261W        W26522   3.005  14.280   4.892 -0.2037 -0.0549 -0.1381
10262W        W26523   5.444  11.270  11.019  0.0204  0.0758  0.0399
10263W        W26524  14.428  15.004  16.238  0.1752 -0.0511  0.1975
10264W        W26525  10.850  10.048   5.855 -0.1388  0.2075  0.0941
10265W        W26526   4.198   9.262  13.615 -0.2511 -0.1876  0.1632
10266W        W26527  17.386  15.428   1.384  0.3277 -0.0627  0.0152
10267W        W26528   5.358  11.290   4.700  0.1702 -0.2422 -0.0334
10268W        W26529  13.466  13.822  10.937  0.0368  0.0249 -0.3176
10269W        W26530   3.883   8.185   4.637  0.5127 -0.3402 -0.0404
10270W        W26531  16.686   9.563   1.146  0.1132  0.3300 -0.1110
10271W        W26532  14.838  11.006   0.248 -0.1075 -0.2186 -0.1624
10272W        W26533  17.759   7.362   5.321  0.0486 -0.0451 -0.1833
10273W        W26534   3.679   1.163  12.838 -0.0225  0.0417 -0.1626
10274W        W26535   2.175   3.931  14.854  0.1843 -0.0270 -0.1657
10275W        W26536   4.987   5.349   3.681 -0.0664 -0.1303  0.0333
10276W        W26537   9.353  15.846   0.492  0.0165 -0.0607  0.0796
10277W        W26538   5.228   2.221  14.200  0.0904 -0.4535 -0.0962
10278W        W26539   1.413   0.414  15.850  0.2508 -0.2481  0.0853
10279W        W26540   5.399  11.418   4.204  0.1924 -0.2413  0.0726
10280W        W26541   8.607  11.819  12.290  0.2443 -0.0505  0.1228
10281W        W26542   6.234  15.585  10.286 -0.1710 -0.1089 -0.0620
10282W        W26543   4.366   7.145   4.147 -0.0472  0.1139  0.1071
10283W        W26544  11.597  11.291  10.884  0.0995  0.1359 -0.1317
10284W        W26545   2.455   9.225   4.538  0.1181  0.0794 -0.0728
10285W        W26546   0.165   2.900  14.012  0.1042 -0.4801  0.0064
10286W        W26547  11.409  13.702  14.265 -0.2380 -0.3037  0.2337
10287W        W26548   8.391   9.403  15.811 -0.1100  0.2486 -0.1688
10288W        W26549  10.302   1.217  14.367 -0.1731  0.1485  0.1830
10289W        W26550   8.898  13.975   0.683  0.0557 -0.0022 -0.0726
10290W        W26551  14.329  16.149   2.722  0.1007 -0.0095 -0.0433
10291W        W26552   0.247   3.309   3.254 -0.2042 -0.3739  0.1396
10292W        W26553  11.958  10.510  14.754 -0.1020  0.2726  0.1206
10293W        W26554  14.527   1.794   0.821  0.4026  0.0208 -0.3769
10294W        W26555   9.115   5.830  11.664  0.1757  0.3470  0.0798
10295W        W26556  10.141  17.170   0.581  0.1950  0.1205 -0.0627
10296W        W26557   4.019   0.956  13.436  0.1942 -0.5159  0.0271
10297W        W26558   5.150  14.757  12.898  0.1969 -0.1513  0.2632
10298W        W26559  10.497  13.006  14.731 -0.0164 -0.0157  0.1680
10299W        W26560   9.942  16.905   5.496  0.1569  0.0439  0.3650
10300W        W26561   5.233   5.048  14.535 -0.0887  0.1548 -0.0925
10301W        W26562  11.150   4.144   0.444  0.0241 -0.1956  0.2588
10302W        W26563   9.623  11.900   1.628 -0.0344  0.1367  0.0097
10303W        W26564   0.439   0.381   1.722 -0.0377  0.0742 -0.1760
10304W        W26565   9.707  16.907  12.182  0.3835  0.1526  0.0016
10305W        W26566  14.263  13.732   1.013  0.0460 -0.1103 -0.3381
10306W        W26567  12.291   6.773  13.851 -0.1462  0.1651 -0.1509
10307W        W26568   3.253  17.276   5.686 -0.0059 -0.1661  0.2427
10308W        W26569   6.201  13.094   5.611  0.0608  0.0659  0.0018
10309W        W26570   9.751   4.537  15.015  0.1710 -0.2214 -0.2031
10310W        W26571   4.518  17.322  12.546 -0.5169 -0.1271  0.0672
10311W        W26572  12.756   5.046   4.346 -0.1031 -0.2000 -0.0891
10312W        W26573   6.485  17.602   0.337  0.0736  0.1325  0.0688
10313W        W26574   0.740   1.810   1.701 -0.4575  0.2130 -0.1135
10314W        W26575   1.824  16.984   2.437 -0.0022 -0.0378 -0.1165
10315W        W26576   5.634   5.028  15.886 -0.4710  0.1348  0.0556
10316W        W26577  11.283  15.632  11.050  0.4880  0.3962 -0.1346
10317W        W26578   6.251   8.676  10.863 -0.1734  0.0920 -0.1959
10318W        W26579   6.429   4.522  13.757 -0.1470  0.2612 -0.1685
10319W        W26580   8.355   3.045  12.842 -0.2896 -0.1396  0.1310
10320W        W26581  14.925  13.453  15.775 -0.0367 -0.1360 -0.1365
10321W        W26582   3.015  13.324   1.687 -0.0970  0.3196 -0.3055
10322W        W26583  10.688   5.249   4.181 -0.0575 -0.0797  0.0969
10323W        W26584  17.469  12.807   4.171  0.0852 -0.0030 -0.2333
10324W        W26585  10.346  14.343   3.166 -0.0288  0.2529 -0.0371
10325W        W26586  15.487   1.566   3.696  0.3911  0.0078  0.1496
10326W        W26587  16.514   1.431   1.756  0.3006 -0.0287 -0.1730
10327W        W26588   0.439   4.459   4.393 -0.0081  0.0699  0.1646
10328W        W26589   9.132   4.893   0.646 -0.1731 -0.3147 -0.1400
10329W        W26590   1.686  10.140   5.639  0.2146 -0.0043 -0.1227
10330W        W26591  15.695   1.317  12.331 -0.1488 -0.0795  0.1820
10331W        W26592  13.450  12.559   1.190 -0.1210  0.4530 -0.3421
10332W        W26593  14.088   4.881   2.543  0.1015 -0.0960 -0.1017
10333W        W26594   8.737   1.642  14.973  0.0594  0.0364 -0.0067
10334W        W26595  17.363   4.227   1.023  0.0406 -0.2574  0.1235
10335W        W26596   2.877   4.274  12.479  0.3196 -0.3123  0.2193
10336W        W26597   0.184  13.605   1.410 -0.1719 -0.0706 -0.1513
10337W        W26598   4.559   2.066   3.418 -0.2150  0.1689 -0.0396
10338W        W26599   3.837  13.454   3.863  0.2284  0.0089 -0.2178
10339W        W26600   7.629   7.988   3.155 -0.0811  0.0438  0.0859
10340W        W26601   5.995   8.340  15.208 -0.1324  0.1061 -0.0542
10341W        W26602  16.993  14.123   2.644  0.0633 -0.0695  0.1609
10342W        W26603  16.748  17.911   0.222  0.1660 -0.1918  0.2481
10343W        W26604   1.723  18.101   0.099  0.0598  0.0327  0.0452
10344W        W26605  10.147   9.196   1.138 -0.5934 -0.0884 -0.1228
10345W        W26606   0.030   5.439  15.020  0.0317 -0.0506 -0.2440
10346W        W26607  16.071   5.700   1.428 -0.0773 -0.3413  0.0474
10347W        W26608   4.725  13.065   1.032 -0.4836 -0.1254  0.0078
10348W        W26609  16.342   7.087  13.153  0.2651  0.3584 -0.1420
10349W        W26610   7.277   5.222   2.843  0.1290  0.0573 -0.0232
10350W        W26611   0.383  11.333   1.384  0.0644  0.1839  0.0771
10351W        W26612  14.815  10.115  14.168  0.3502  0.0610 -0.2859
10352W        W26613  18.087  10.478   0.789 -0.1721 -0.0827 -0.1373
10353W        W26614  13.139  10.755  12.128 -0.0148 -0.0966  0.4788
10354W        W26615  16.834  15.713  12.389 -0.1052  0.2536  0.1877
10355W        W26616  14.362  18.331   4.421  0.0560  0.0863  0.0099
10356W        W26617  18.126  10.248  13.482  0.4526 -0.0175  0.2146
10357W        W26618  12.466   7.883   2.932 -0.1572 -0.1813 -0.0699
10358W        W26619   4.997  12.773  15.945 -0.0861  0.3337  0.1497
10359W        W26620   9.501  17.651  14.962 -0.0818 -0.3408 -0.1541
10360W        W26621   9.747   8.790   3.751  0.0107  0.1158 -0.1465
10361W        W26622   9.230   2.916  11.637 -0.1451 -0.0995 -0.0573
10362W        W26623  16.174  11.973  15.786 -0.2531  0.1523  0.3557
10363W        W26624   3.569  16.742   4.044  0.2828  0.0659 -0.1770
10364W        W26625  14.188   0.930   5.836  0.1062 -0.1742 -0.1654
10365W        W26626   4.369   5.476   0.505 -0.0047  0.1138 -0.0226
10366W        W26627  14.084  15.902  13.827  0.1448  0.1626 -0.1901
10367W        W26628  12.023   7.516  13.433  0.1918 -0.0796 -0.1807
10368W        W26629   6.579  10.410   2.114  0.0874  0.2903  0.2534
10369W        W26630  10.909  17.954  15.856 -0.2182 -0.1767 -0.0131
10370W        W26631  17.372  10.331  11.171 -0.0322 -0.0857 -0.0769
10371W        W26632   7.989  11.350  12.776 -0.0544  0.1383 -0.1423
10372W        W26633   5.318  16.176  12.437 -0.2249  0.0842  0.0349
10373W        W26634   0.712  15.957   3.247  0.1710 -0.0968 -0.2300
10374W        W26635   3.819   3.435  12.228 -0.1750  0.3382 -0.2949
10375W        W26636  12.347   4.002   5.618 -0.0375  0.0399  0.1077
10376W        W26637   9.570  12.563   2.090 -0.0804  0.2368 -0.2072
10377W        W26638   7.762   9.472   3.850  0.1914  0.1778  0.0070
10378W        W26639   5.180  17.832   3.530  0.1335  0.5040 -0.3591
10379W        W26640  14.112  15.343  16.003  0.0032 -0.0425 -0.2147
10380W        W26641   4.874  11.959   0.741  0.2371 -0.0990 -0.2029
10381W        W26642   6.386  13.205   2.963 -0.0253  0.3532 -0.2611
10382W        W26643  15.766  11.622   0.288  0.0399 -0.1573 -0.0825
10383W        W26644  10.872  16.688   2.386  0.0841 -0.0850 -0.3474
10384W        W26645   5.181  17.001  13.160 -0.3099 -0.2464 -0.2031
10385W        W26646  13.848   7.859   2.500 -0.0819 -0.2072  0.0448
10386W        W26647   5.595   8.469   5.127 -0.1247  0.0763 -0.0194
10387W        W26648   8.884  10.081   0.525  0.1347 -0.0498 -0.2932
10388W        W26649   7.378  16.065   2.046  0.0515 -0.0059 -0.2013
10389W        W26650  13.825  14.017   3.501  0.1186 -0.0667 -0.1041
10390W        W26651  11.367   2.112   3.800 -0.4424 -0.0548  0.0709
10391W        W26652   2.916  17.874   3.075 -0.1647 -0.4653  0.1687
10392W        W26653   7.629  10.119  10.863 -0.0119  0.1607  0.1716
10393W        W26654  13.146  13.745  16.088  0.2655 -0.2573 -0.1083
10394W        W26655  11.578  17.834  14.237 -0.1595 -0.1180 -0.1456
10395W        W26656   5.008   1.576  13.580 -0.1850  0.0832 -0.0121
10396W        W26657   7.924   8.430   2.334  0.2553 -0.1142 -0.1725
10397W        W26658   1.389  11.695   3.179  0.0347  0.1557 -0.2069
10398W        W26659  13.194  12.492  12.749  0.3646 -0.1013 -0.0859
10399W        W26660  17.894   5.090  15.795  0.1379  0.1532  0.1357
10400W        W26661  14.604   9.379  11.479 -0.0946 -0.0255 -0.2899
10401W        W26662   9.878   9.036   2.088  0.1656 -0.0631  0.1012
10402W        W26663  17.362  14.390  14.603 -0.0461  0.1699  0.0336
10403W        W26664  14.054  15.467  11.364 -0.2812 -0.2102  0.0434
10404W        W26665  16.755   5.068   3.013 -0.2457 -0.1967  0.3012
10405W        W26666   8.474  16.046   3.827  0.1679  0.1244 -0.1917
10406W        W26667  15.302   0.936   0.127  0.1610  0.0751  0.1584
10407W        W26668   4.341   9.232   0.439  0.0138  0.2169  0.0851
10408W        W26669   4.509   4.299   5.650 -0.2230 -0.1418 -0.1536
10409W        W26670  17.081  18.251   4.872 -0.1349 -0.3562  0.0866
10410W        W26671  16.102  13.837   1.956 -0.1311 -0.1337 -0.1052
10411W        W26672  17.293  10.411  14.581  0.0718 -0.1481 -0.0920
10412W        W26673   2.164  17.100  14.470  0.2855  0.4131  0.0904
10413W        W26674  13.868   6.896  12.396 -0.0711 -0.0598  0.1286
10414W        W26675   5.709   6.927  10.839 -0.0071 -0.1803 -0.0583
10415W        W26676   6.986  13.225  13.536 -0.0957 -0.1742 -0.2964
10416W        W26677   7.846  11.970  14.645  0.1508  0.0615  0.1987
10417W        W26678   7.713   8.579   4.330 -0.3967  0.0629  0.0241
10418W        W26679   2.693   4.280  13.937  0.1240  0.0796  0.0982
10419W        W26680  14.422   6.024  13.147  0.0600 -0.2078  0.1685
10420W        W26681   4.526   8.470   4.014 -0.0605  0.0735  0.0531
10421W        W26682   7.706   8.185  13.709  0.1876 -0.3975 -0.0626
10422W        W26683   3.939   9.598  14.821 -0.3601  0.1480 -0.0817
10423W        W26684  17.548  11.180   0.290 -0.0596 -0.1944 -0.2336
10424W        W26685   5.135  16.558   6.034  0.2163 -0.0665  0.1064
10425W        W26686   2.989  16.371  12.814 -0.2551 -0.0742 -0.1310
10426W        W26687   8.331  13.950   4.899  0.1922 -0.0213 -0.2175
10427W        W26688   2.877  10.754   3.106 -0.2136 -0.1612  0.0117
10428W        W26689   3.561   0.053   4.195  0.1663 -0.2004  0.1489
10429W        W26690  17.609   5.501  15.807  0.1526 -0.0263  0.4103
10430W        W26691  11.859   8.371   3.571  0.0223  0.1808 -0.1046
10431W        W26692   2.144  11.061   0.701 -0.0139  0.0168 -0.1183
10432W        W26693  16.856  17.375   1.645 -0.0003 -0.2063 -0.0063
10433W        W26694   2.059  15.598   1.405 -0.0684 -0.0285  0.4329
10434W        W26695  16.627  16.278  14.289 -0.3795  0.4432 -0.1902
10435W        W26696  17.304   0.786   1.172 -0.0620 -0.1424  0.1606
10436W        W26697   8.983   7.975   2.177  0.1028 -0.3295  0.0213
10437W        W26698   8.403   0.640   2.901 -0.1197 -0.3088  0.1680
10438W        W26699  14.196  11.603  16.127  0.0767 -0.1355  0.3012
10439W        W26700   7.665  12.928   6.191  0.0419  0.3763 -0.1549
10440W        W26701   9.642   1.313  11.516  0.1674 -0.2843 -0.1461
10441W        W26702  17.822  11.250  11.508  0.1845 -0.3228  0.2023
10442W        W26703   7.843  17.773  13.080 -0.1797  0.1138 -0.1145
10443W        W26704   1.364   1.693   0.054 -0.0265 -0.1195 -0.4028
10444W        W26705   1.104   8.476  15.219  0.1147 -0.1788 -0.2808
10445W        W26706   8.625  16.217   1.275 -0.4127  0.2096  0.2225
10446W        W26707   4.007   0.849  15.147  0.1709 -0.0000  0.0914
10447W        W26708  17.603   9.204   3.850  0.1660  0.1148  0.2925
10448W        W26709  15.968   2.111   5.093 -0.1542 -0.0079  0.1853
10449W        W26710   2.810  16.531  15.756  0.3715 -0.1122  0.0391
10450W        W26711  13.912  10.563  14.153 -0.0298  0.1111  0.0378
10451W        W26712  15.747  16.061   2.688 -0.1560  0.0276 -0.0957
10452W        W26713   8.530   1.784  13.238  0.3528 -0.0687 -0.2063
10453W        W26714   0.278   9.766   1.038 -0.1522 -0.0419  0.4086
10454W        W26715  15.726  16.862  11.306 -0.1380 -0.3140 -0.2607
10455W        W26716  12.913   9.496   4.525 -0.0398 -0.1590  0.2846
10456W        W26717   5.800   1.171   6.180  0.0261  0.0131  0.0960
10457W        W26718   1.205   7.484  16.222  0.3687 -0.3480  0.1628
10458W        W26719  16.438   6.991   1.293  0.0196 -0.2870  0.0869
10459W        W26720  17.956   1.378  14.200  0.0786 -0.1573 -0.0206
10460W        W26721   8.340  12.914   1.081 -0.0717  0.1667  0.0843
10461W        W26722   6.532  11.353   2.444 -0.0263 -0.2398  0.1955
10462W        W26723  11.836   4.234   0.338 -0.0853  0.2547  0.3736
10463W        W26724   9.726   7.962   4.168 -0.2652  0.2389  0.0625
10464W        W26725  12.006   1.963   5.337  0.0261 -0.1426  0.4518
10465W        W26726  12.361   9.099   1.647 -0.0320  0.0467  0.0168
10466W        W26727  15.504   3.809   2.872 -0.0327  0.0975 -0.4264
10467W        W26728  16.796  12.773   2.900 -0.0175 -0.3257 -0.1403
10468W        W26729   8.969  11.041   1.081  0.2098 -0.0062  0.3461
10469W        W26730   0.270  17.803   4.325 -0.0556  0.0535 -0.0825
10470W        W26731   7.632  10.215   3.213 -0.0377 -0.4410  0.0402
10471W        W26732   3.046   9.700  15.080 -0.0422 -0.1165  0.2454
10472W        W26733  10.434  18.109  12.887  0.1648  0.0460 -0.1877
10473W        W26734  10.139   3.396   3.947 -0.3139 -0.0370 -0.0269
10474W        W26735   6.177  14.780  16.096  0.2981  0.2402 -0.2701
10475W        W26736   0.821   6.696   2.984  0.0411 -0.1824 -0.0878
10476W        W26737   0.415   9.966   1.741 -0.0315 -0.1935 -0.1801
10477W        W26738   7.313   2.636   0.559 -0.0035 -0.2250 -0.0848
10478W        W26739   8.599   6.203   4.138  0.1262  0.0458  0.1957
10479W        W26740  14.496  16.877   5.819  0.1499  0.0028  0.0708
10480W        W26741   0.396   9.721  12.693  0.1803  0.1140 -0.1082
10481W        W26742  16.282  18.346   4.339  0.1248  0.1810 -0.1331
10482W        W26743   2.438   8.796  11.675 -0.0047 -0.1244 -0.0324
10483W        W26744  15.053  10.009  12.431  0.1346 -0.1179  0.1030
10484W        W26745   1.175   3.710   4.224 -0.7374  0.3872 -0.1928
10485W        W26746   3.313   5.565  12.233  0.0563  0.0369  0.1717
10486W        W26747  15.920   6.245   2.772 -0.1120  0.0179 -0.2310
10487W        W26748   9.108   0.400   3.161  0.2067 -0.0272  0.1146
10488W        W26749  15.850   6.873  12.154  0.0006  0.3467 -0.0408
10489W        W26750   1.181   9.162   1.330  0.0301 -0.0480  0.2394
10490W        W26751  10.022   5.781  14.219  0.1799 -0.0183  0.0282
10491W        W26752  18.137   8.131  12.667  0.4160  0.0611  0.0995
10492W        W26753  18.366   9.502  16.074  0.0439 -0.1095 -0.3397
10493W        W26754   7.265   6.226  12.560 -0.0338 -0.0521  0.0772
10494W        W26755   7.703   4.634  13.297  0.0058  0.0377 -0.0689
10495W        W26756   8.572  10.595   4.668 -0.1820  0.0353 -0.3182
10496W        W26757  10.521  11.533   4.660  0.2596  0.3175 -0.2140
10497W        W26758  13.025  14.365   3.503 -0.1165 -0.0918  0.1128
10498W        W26759  12.921   9.351  14.781 -0.2207  0.1429  0.0819
10499W        W26760  13.388  10.573  12.741 -0.1638  0.2050 -0.0154
10500W        W26761   9.297   5.846  10.807  0.0233 -0.1519  0.1609
10501W        W26762   6.025   7.803  14.625  0.3193  0.2328  0.1454
10502W        W26763  15.609   5.008   2.066  0.0906  0.1981 -0.0531
10503W        W26764   5.281   8.413   1.122 -0.2566  0.0440  0.0507
10504W        W26765   8.036   8.359   0.797 -0.0041  0.0863 -0.3295
10505W        W26766  16.628  15.170   3.865 -0.0374 -0.1660  0.1206
10506W        W26767   9.163   7.368   1.219  0.2255  0.5831  0.1284
10507W        W26768  15.252   0.886   1.358  0.0797 -0.2165  0.3953
10508W        W26769   8.280   0.325   3.818 -0.0648 -0.0035 -0.0802
10509W        W26770   2.936   4.438  16.044  0.0415  0.1841 -0.0931
10510W        W26771   0.275   0.680   3.518 -0.0558  0.1431  0.1721
10511W        W26772   7.567   9.788   5.267 -0.0944 -0.0910 -0.0755
10512W        W26773   3.851   1.793  14.547  0.1385  0.4124  0.0348
10513W        W26774  11.088  12.643  14.193  0.1197 -0.3053  0.0586
10514W        W26775   8.121   2.242  12.554  0.3502  0.4147  0.1010
10515W        W26776   2.722   0.024   2.313  0.1242 -0.0923 -0.3787
10516W        W26777   4.204  17.269  10.555  0.0125  0.0675  0.0403
10517W        W26778  10.601  11.471   4.168  0.0283 -0.1855  0.1210
10518W        W26779   4.412  17.027   4.762 -0.4162  0.1910 -0.1306
10519W        W26780  16.582  11.159   0.133  0.2608 -0.0938 -0.2311
10520W        W26781   9.898  10.392   3.172 -0.1868  0.1161 -0.0992
10521W        W26782  16.840   5.037  15.524  0.0649  0.1772 -0.1190
10522W        W26783  15.348  11.745   1.398 -0.0932  0.3354 -0.0746
10523W        W26784   4.769   5.794   4.122  0.1336 -0.0057 -0.3048
10524W        W26785   8.975  16.274   5.343  0.1997  0.1165 -0.0024
10525W        W26786  13.640  17.426  13.305 -0.4138 -0.1662  0.0658
10526W        W26787   6.900  16.704  12.944  0.2492 -0.2276 -0.1988
10527W        W26788   3.506   6.648  12.930  0.0376 -0.0745 -0.1182
10528W        W26789   1.883  14.125   3.550 -0.3158  0.2987  0.2010
10529W        W26790   1.584   6.030   4.347 -0.4708  0.2348 -0.2584
10530W        W26791   8.721  15.204  11.261  0.0198 -0.0025 -0.0515
10531W        W26792  12.933   9.857  11.322 -0.2220  0.1040  0.1054
10532W        W26793  15.824  14.535   2.906 -0.2542  0.2890 -0.3057
10533W        W26794   6.555   6.019   1.365 -0.2297 -0.1689  0.1083
10534W        W26795  10.147   9.378  13.868 -0.2297 -0.3206  0.1065
10535W        W26796  18.081  12.271  13.365 -0.1506  0.2406 -0.3460
10536W        W26797   6.934   3.808  16.040  0.2991  0.1339  0.1215
10537W        W26798  15.108  14.266   5.313 -0.1522  0.1428  0.3226
10538W        W26799   2.509  16.738   5.734  0.1365 -0.0767 -0.1109
10539W        W26800  11.412   1.654  13.259 -0.0265 -0.0030  0.0757
10540W        W26801   5.170   1.165   0.343  0.0945 -0.1458 -0.1181
10541W        W26802  12.422  15.715   4.558 -0.1081 -0.0200  0.1431
10542W        W26803  13.881   3.950   5.417 -0.1760  0.1488 -0.1199
10543W        W26804   7.196   4.337   3.379 -0.0997  0.0012  0.0791
10544W        W26805  15.538  14.572   5.485  0.0048 -0.2072  0.1845
10545W        W26806  17.834  13.534  15.851  0.2241 -0.1418 -0.4514
10546W        W26807   9.310  12.994  12.646  0.0110 -0.0774 -0.2444
10547W        W26808  16.821  16.076   3.016 -0.0989 -0.2279 -0.0723
10548W        W26809   1.713  12.235   2.101 -0.0686  0.0814  0.1103
10549W        W26810   1.266   6.198   4.789 -0.0023 -0.5068 -0.4434
10550W        W26811  13.104   6.940   3.581 -0.0636  0.2522  0.1134
10551W        W26812   0.233  17.718   3.530  0.0395  0.0731  0.0513
10552W        W26813   8.005   9.280   5.069  0.2640  0.3473 -0.2281
10553W        W26814  16.381  13.889  11.373 -0.4041 -0.1381  0.2730
10554W        W26815  12.371   7.174   3.784  0.0800 -0.0718  0.3224
10555W        W26816   4.622   5.992  13.300 -0.1099 -0.0649  0.0852
10556W        W26817   5.168   9.922  15.793  0.2036 -0.0930 -0.1203
10557W        W26818  12.318  18.213   5.279 -0.4899  0.4447 -0.0283
10558W        W26819   0.635  18.313  15.445  0.0484  0.1398 -0.0200
10559W        W26820  11.614  13.699   3.319 -0.1919 -0.0177  0.0933
10560W        W26821  17.360   2.182   1.302 -0.0843  0.1195 -0.2420
10561W        W26822  13.453  13.570   2.844  0.1524 -0.0829 -0.0693
10562W        W26823  15.804   2.215  16.242  0.0373  0.3041  0.2298
10563W        W26824   9.370  17.075   2.416  0.0448  0.0317 -0.0018
10564W        W26825   3.771  12.711  12.446 -0.0926  0.3760 -0.0488
10565W        W26826  15.448  11.582   4.389 -0.2085  0.1386  0.0112
10566W        W26827  17.601  17.392   5.623  0.0523  0.2041 -0.1868
10567W        W26828  17.388  12.271   0.135 -0.2740  0.0300  0.0720
10568W        W26829  15.138   3.018  14.863 -0.0288  0.0122 -0.3095
10569W        W26830   2.265   0.668   1.973  0.0760 -0.0662  0.1659
10570W        W26831   0.934   3.444  15.170  0.0312 -0.0763 -0.0920
10571W        W26832   0.748  12.570   0.588 -0.2663  0.1927 -0.0063
10572W        W26833   9.097  15.956   0.923 -0.1861 -0.2557 -0.4471
10573W        W26834   2.084   7.068  13.830  0.0583  0.0939 -0.3471
10574W        W26835  17.356  16.200  15.127 -0.0600 -0.2119 -0.0697
10575W        W26836   1.128   5.093  12.455  0.0208  0.0362 -0.2467
10576W        W26837   0.667   1.211  12.431 -0.2119  0.1626  0.2095
10577W        W26838  13.336   3.815   4.631 -0.0208  0.0135 -0.1347
10578W        W26839  16.859  10.081  11.968  0.1649 -0.1093 -0.2340
10579W        W26840   5.126  15.261   1.841  0.0274  0.1203 -0.0913
10580W        W26841   6.695   2.142  11.556 -0.2340  0.2919 -0.0105
10581W        W26842  15.264   7.821   4.812  0.2172 -0.2859 -0.0263
10582W        W26843  14.685   9.064  15.106  0.0062 -0.0543  0.0327
10583W        W26844   8.561   5.616   0.948 -0.4749  0.1529 -0.5443
10584W        W26845   2.693  17.779  13.603 -0.2676  0.1805 -0.1747
10585W        W26846  14.768  16.639   1.521  0.0472 -0.0597  0.1627
10586W        W26847   6.368   4.309  11.862  0.2285 -0.0904 -0.0496
10587W        W26848  10.868   8.336  12.578 -0.1733 -0.0678  0.2462
10588W        W26849   8.016   1.836  14.347  0.3186 -0.3057 -0.4468
10589W        W26850   2.193  10.167  11.088 -0.1617 -0.2003 -0.0948
10590W        W26851   0.864   1.343   3.050  0.0497  0.0414 -0.0573
10591W        W26852   2.276   8.255   3.726 -0.2705  0.2365  0.2490
10592W        W26853  15.159   3.579   2.614  0.2552  0.0790  0.4387
10593W        W26854   1.718   3.076   3.175  0.1643 -0.1114  0.0260
10594W        W26855  11.746  10.860  16.028  0.1208  0.0705  0.2548
10595W        W26856  11.999   9.719  13.283  0.0262 -0.2575  0.0503
10596W        W26857   3.698   2.459   2.135  0.1427 -0.0721  0.3393
10597W        W26858  17.053  17.468  15.594  0.0841  0.1610 -0.2750
10598W        W26859  10.706   9.448   1.860 -0.2098 -0.2807  0.1934
10599W        W26860   6.305  13.594   4.478  0.0349 -0.1309  0.1326
10600W        W26861   7.608  10.833   0.276  0.3815 -0.0428 -0.0010
10601W        W26862   0.621   9.343  15.462  0.1104 -0.1021 -0.0447
10602W        W26863   4.079   6.769   3.426 -0.0409 -0.0562 -0.0214
10603W        W26864  14.023  13.301   2.051 -0.0558 -0.1501  0.0429
10604W        W26865  12.935  12.605   1.090  0.0559 -0.2938  0.2522
10605W        W26866   0.449   0.076   2.154  0.0427  0.0639 -0.0271
10606W        W26867   4.488   0.686  11.640  0.0021 -0.0257  0.0843
10607W        W26868   9.653   1.316   2.090 -0.0413 -0.2981  0.1387
10608W        W26869  17.639  13.052  11.591  0.3123 -0.3823  0.0691
10609W        W26870   4.615  15.533   0.154 -0.0915  0.1342 -0.1500
10610W        W26871  17.460  11.604   2.673 -0.0171  0.3603  0.1968
10611W        W26872  17.132  14.371   0.508  0.0539 -0.1642 -0.0529
10612W        W26873  16.259  18.039   1.142  0.1382 -0.1056  0.4156
10613W        W26874  14.756  14.678  11.575  0.1373  0.1499 -0.0314
10614W        W26875   6.247   2.152   0.730 -0.0208  0.2182 -0.0601
10615W        W26876  13.958  12.808   1.825 -0.0380 -0.0280  0.2429
10616W        W26877  16.645  16.006   2.553 -0.3604  0.1694  0.0875
10617W        W26878  14.741   7.695   3.492 -0.1085 -0.2518 -0.0967
10618W        W26879  17.207   4.767   0.668 -0.1293 -0.0621  0.0280
10619W        W26880  12.897  12.544   4.820  0.1203 -0.2265 -0.1191
10620W        W26881  16.239  11.733   0.626 -0.0975  0.1845 -0.1227
10621W        W26882   6.833   5.509   5.226  0.0672 -0.2046 -0.0160
10622W        W26883   9.466   1.331   1.585  0.0800  0.0443 -0.2258
10623W        W26884   9.789  11.351  11.006 -0.0875  0.0766  0.2241
10624W        W26885  13.802   8.792   1.844 -0.1541  0.1982  0.2418
10625W        W26886   6.040  15.548  13.712  0.0386 -0.0907  0.2558
10626W        W26887   9.735   6.891   5.005 -0.0718 -0.0880 -0.1179
10627W        W26888  10.417   7.698  12.716 -0.0294 -0.1398 -0.1131
10628W        W26889   8.218   5.855  12.685 -0.0585 -0.0195  0.0738
10629W        W26890   2.390  15.360  12.595  0.2362  0.0670 -0.1824
10630W        W26891  17.502  12.570   3.628  0.1035  0.2175  0.3152
10631W        W26892  18.018  17.368  13.873 -0.1809 -0.1939 -0.1133
10632W        W26893  11.766   7.554   4.237  0.0065 -0.0718  0.4336
10633W        W26894   6.250  14.818   2.767  0.3392  0.2977  0.0689
10634W        W26895   5.886   1.389   3.667  0.1325  0.3826 -0.1663
10635W        W26896   7.826  13.978  11.918 -0.0917  0.0441  0.0285
10636W        W26897   7.843  13.717   3.827  0.0196  0.1461  0.2678
10637W        W26898   2.654   5.092   3.719 -0.0397 -0.1299  0.0113
10638W        W26899   8.448  10.843   5.672  0.2496 -0.2969  0.1725
10639W        W26900  18.024  10.504   3.593 -0.4624 -0.4655 -0.0274
10640W        W26901  12.164  11.520   2.760  0.2928 -0.1571  0.3687
10641W        W26902   9.553   9.316  12.465 -0.2089 -0.2819  0.1925
10642W        W26903   7.004  18.103  13.069 -0.0812 -0.0153  0.3756
10643W        W26904  16.440   4.644   4.580  0.1431  0.1188  0.0811
10644W        W26905   1.014   1.351  14.590  0.0948  0.0991  0.1611
10645W        W26906   9.551   5.666   2.552  0.0925 -0.1784  0.0678
10646W        W26907   1.184   9.448  14.597  0.1890 -0.1328 -0.0604
10647W        W26908   0.437   7.485   3.058 -0.2583 -0.0164  0.0438
10648W        W26909   0.702   2.976   5.662 -0.0951 -0.1321 -0.0187
10649W        W26910   2.206   7.805  15.082 -0.1384  0.1686  0.2028
10650W        W26911  13.009   8.478   2.627 -0.2026  0.1031  0.2419
10651W        W26912   3.904   1.707   3.025 -0.2274 -0.3515  0.0296
10652W        W26913   4.492   6.984  13.360  0.1252 -0.1289 -0.1385
10653W        W26914  17.830  11.888   0.038 -0.3759 -0.1190 -0.1913
10654W        W26915  13.645  13.915  16.120  0.0861 -0.2738  0.0154
10655W        W26916  13.642   0.568   3.089 -0.1118 -0.0742  0.0109
10656W        W26917  15.129   3.577  13.560 -0.2554  0.2625  0.1081
10657W        W26918   1.822  14.604   1.886  0.1804  0.0115  0.0018
10658W        W26919   8.160   7.063   3.761 -0.2146  0.2748  0.2573
10659W        W26920  15.107   7.124   1.089  0.0607  0.0395 -0.0754
10660W        W26921   4.313  13.667   3.308  0.0224  0.0309 -0.1091
10661W        W26922  13.599   8.845   3.724  0.3536  0.0369 -0.0484
10662W        W26923   8.609   4.176  13.026 -0.2342  0.1224 -0.1164
10663W        W26924   5.866   0.687  15.142 -0.2273 -0.1276  0.1080
10664W        W26925   9.054  12.470   5.066  0.2958 -0.0768  0.0008
10665W        W26926   8.628   1.803   3.708 -0.2151 -0.1607  0.0551
10666W        W26927   4.763  15.648  13.010 -0.0413  0.2417  0.0406
10667W        W26928   5.629  17.104   2.417 -0.4313  0.0935 -0.1139
10668W        W26929   7.035   8.401   1.830  0.5012  0.1303 -0.1627
10669W        W26930  10.144  14.849   4.001 -0.0855  0.3255 -0.0834
10670W        W26931   6.314   0.410   1.283 -0.2033  0.3264 -0.0168
10671W        W26932   5.518   8.291   4.713 -0.0914 -0.3127  0.2858
10672W        W26933  17.208  11.514   3.168 -0.0776 -0.0630  0.1920
10673W        W26934   1.736  14.969  13.315 -0.3400 -0.1406 -0.1335
10674W        W26935  15.074  10.715  16.108 -0.0573 -0.2437 -0.2267
10675W        W26936  16.503   7.547   3.178  0.2187 -0.1693  0.1089
10676W        W26937   4.776   8.864   3.620  0.1167 -0.0508 -0.1950
10677W        W26938   1.848   9.497   3.424 -0.1793 -0.1325  0.2211
10678W        W26939  11.255   0.095  14.835 -0.2165 -0.1886  0.0376
10679W        W26940   3.369   2.107   3.562 -0.0642  0.0367  0.4037
10680W        W26941  15.812  15.111  12.386 -0.5955 -0.1485  0.0825
10681W        W26942  16.837   9.919  14.868  0.3112  0.0622  0.2089
10682W        W26943  12.735  11.697   5.587 -0.1986 -0.2114  0.0262
10683W        W26944  13.175  16.525  14.892 -0.0067 -0.0420 -0.1487
10684W        W26945   9.147  10.490   3.002  0.2016 -0.2295 -0.0307
10685W        W26946   2.841   8.779   3.873 -0.0619  0.0876  0.1887
10686W        W26947   1.776  17.586   0.208 -0.1671 -0.0555  0.0681
10687W        W26948  16.511   0.612   6.094 -0.3384  0.4191 -0.0639
10688W        W26949  18.365   0.182   1.290  0.1254  0.1011 -0.2083
10689W        W26950  15.624  13.660   4.592  0.0808 -0.0252  0.1655
10690W        W26951   9.407   7.924  12.398 -0.0045 -0.0054  0.1226
10691W        W26952   8.033   7.658  10.693  0.0433 -0.2505 -0.1995
10692W        W26953   8.536  17.675  12.222  0.1335 -0.0476 -0.0303
10693W        W26954  13.186  12.939   2.135  0.4691 -0.0890 -0.1003
10694W        W26955  12.594  16.533   0.733  0.1681 -0.0342 -0.1422
10695W        W26956  16.747   6.642   5.515 -0.1735 -0.0545 -0.1547
10696W        W26957  16.596  16.514   2.812  0.1023  0.1947  0.0074
10697W        W26958   6.739   8.068   2.593 -0.1086 -0.0052 -0.0968
10698W        W26959  14.208   8.834  14.096 -0.0655  0.2974  0.4105
10699W        W26960  17.822   0.458  11.718 -0.0200  0.0567  0.0578
10700W        W26961   7.675   2.341  15.321 -0.1457 -0.2739  0.0368
10701W        W26962  11.545   8.059  16.252 -0.0029  0.0418  0.1667
10702W        W26963   4.022  13.138   4.287 -0.0985 -0.0004  0.1700
10703W        W26964  14.360  15.777  15.699 -0.3579  0.3768  0.1512
10704W        W26965  12.375  11.729   3.898  0.0658  0.1978 -0.0952
10705W        W26966  13.648   8.349   3.497 -0.0343 -0.1909  0.1539
10706W        W26967   0.091   6.476  16.158  0.1672  0.2230  0.1805
10707W        W26968   8.382  18.350  10.740 -0.1178  0.1512  0.0002
10708W        W26969   3.513   2.715   0.331  0.0255  0.0906 -0.1954
10709W        W26970  12.793   2.967   1.498  0.1451  0.0451 -0.1489
10710W        W26971  15.504  18.310   0.075  0.1082 -0.1554 -0.1311
10711W        W26972  10.865  13.283   1.626  0.1498  0.2982  0.0705
10712W        W26973   6.472  15.352   3.620 -0.1040  0.1567 -0.1478
10713W        W26974   1.700  16.181  12.703 -0.0508  0.0626 -0.0820
10714W        W26975  16.194   1.695   1.297  0.2074  0.2485  0.1951
10715W        W26976  12.966  15.633   4.487  0.2788  0.1406 -0.0335
10716W        W26977  13.311   6.859  16.173 -0.1427 -0.0934  0.2584
10717W        W26978  11.530  12.427   1.582  0.0805  0.0287  0.0205
10718W        W26979  18.205   9.906   0.088  0.0449  0.1394 -0.1679
10719W        W26980  17.531   1.419  16.003 -0.0375 -0.0231  0.1905
10720W        W26981  14.269   4.260   5.480 -0.4116 -0.4181  0.1190
10721W        W26982   1.276   7.588  14.024 -0.1076 -0.2640  0.0714
10722W        W26983   5.301   6.892  14.024 -0.0162 -0.3837 -0.1160
10723W        W26984   7.117  16.964   5.469  0.2727 -0.2462  0.0527
10724W        W26985   3.989   6.671  12.771  0.2002  0.0303  0.1723
10725W        W26986  12.252   3.582   0.924  0.0586  0.0156  0.0425
10726W        W26987  12.798  11.009   3.896  0.2127 -0.0702  0.0522
10727W        W26988   5.395   9.533  15.384  0.2683  0.1979 -0.1255
10728W        W26989  11.790  12.750  13.967  0.1949  0.2055  0.1839
10729W        W26990   3.576  16.253   2.982 -0.2197  0.0048 -0.0486
10730W        W26991   7.040   1.043  11.806  0.1832 -0.0467  0.0829
10731W        W26992  10.198  16.121  12.219 -0.0116  0.1769 -0.1071
10732W        W26993   3.532   2.500  13.510 -0.0487 -0.0323 -0.0207
10733W        W26994   6.920  17.041   4.954  0.0852  0.0199 -0.0697
10734W        W26995  15.090   4.163   3.599 -0.0682  0.1524  0.2459
10735W        W26996  14.774  10.569  15.501  0.2395 -0.1163  0.0146
10736W        W26997  12.176  18.275  11.014 -0.0091  0.0223  0.1536
10737W        W26998  14.365   2.395  13.886 -0.1326 -0.0074 -0.1612
10738W        W26999  13.202   6.813  14.176 -0.1239  0.1943  0.0327
10739W        W27000  12.337  16.100   0.604 -0.1010  0.1879  0.3421
10740W        W27001   3.322  16.668  12.122  0.2332  0.0146 -0.1632
10741W        W27002   3.493  10.724   1.322 -0.2059 -0.0446  0.1585
10742W        W27003   9.934  11.133   3.747  0.2183 -0.1200 -0.0639
10743W        W27004  10.947   5.535  16.078 -0.1338 -0.2382  0.2419
10744W        W27005  14.448   0.382   0.634  0.0862 -0.1592  0.2795
10745W        W27006   8.939   6.284  15.951 -0.0317 -0.0664 -0.2672
10746W        W27007   2.967  17.799   1.516  0.0036 -0.0841 -0.0348
10747W        W27008  10.618   2.578  14.682 -0.0966 -0.2260  0.2115
10748W        W27009  11.960  14.417   4.272  0.1517 -0.3984 -0.6073
10749W        W27010  15.456   1.575  15.857  0.0906 -0.0328  0.2491
10750W        W27011  11.936   6.491   4.941  0.0637  0.0313 -0.1652
10751W        W27012  18.180  13.116   4.458  0.0805  0.1375  0.2323
10752W        W27013   3.567  16.873  11.286 -0.1281 -0.2158  0.0493
10753W        W27014   4.501   1.691   4.231  0.3200 -0.3772 -0.1912
10754W        W27015   4.731  10.337  13.164  0.0029  0.0141 -0.2780
10755W        W27016   5.887   9.110   4.353 -0.1398 -0.0518 -0.1468
10756W        W27017   5.490  13.851   0.737  0.2199  0.0473  0.0447
10757W        W27018  18.055  17.854  16.296  0.1761  0.0390 -0.0483
10758W        W27019  12.485   0.324   3.734 -0.0453  0.0851  0.0635
10759W        W27020   8.394   5.497  14.900 -0.2237  0.0630  0.0712
10760W        W27021  14.307   6.815  15.435 -0.2951 -0.2912  0.1688
10761W        W27022  17.297  10.872   3.083 -0.0545 -0.1248  0.0384
10762W        W27023  15.928  13.880   2.974  0.1364  0.2413  0.1042
10763W        W27024  16.717  10.368   4.136 -0.3893 -0.0002 -0.0661
10764W        W27025  12.949  13.508  12.078  0.4267 -0.3038 -0.0579
10765W        W27026  13.649  16.396  12.381  0.2478 -0.0581 -0.1824
10766W        W27027  11.830  12.887   3.342 -0.1368 -0.0190  0.1268
10767W        W27028  10.850   2.821   0.237  0.3267  0.2244  0.2778
10768W        W27029  12.966  11.416  15.626 -0.0153 -0.0003  0.0743
10769W        W27030  18.326   9.602   1.400  0.2556  0.0072 -0.1213
10770W        W27031   5.717   8.978  11.522  0.2408 -0.2134  0.1053
10771W        W27032  16.697   1.751   2.115 -0.1397  0.3116 -0.0222
10772W        W27033   5.082  15.125   3.338 -0.0263  0.0739  0.0128
10773W        W27034   1.200   1.092  14.209  0.1592  0.0901  0.0603
10774W        W27035  16.905   1.692   0.935 -0.1586  0.0463  0.1966
10775W        W27036  17.264   8.540   0.140  0.0262 -0.3102 -0.2589
10776W        W27037   9.213  11.063   3.546  0.1163 -0.0714 -0.2539
10777W        W27038   6.232  11.093  14.188 -0.0193 -0.2149  0.1268
10778W        W27039  15.763   8.611  12.892  0.2935  0.0173  0.1995
10779W        W27040   3.620   0.355  15.854  0.2078 -0.3858  0.1912
10780W        W27041  18.285  16.186   4.544  0.1197 -0.2201  0.2105
10781W        W27042  12.378   3.665   4.046  0.0119  0.0055  0.0803
10782W        W27043  15.265  16.450   0.042 -0.0164 -0.1476  0.3531
10783W        W27044   9.118   5.853  13.693 -0.2528  0.0006 -0.1646
10784W        W27045   6.000   7.741   3.094 -0.0017 -0.0395  0.0304
10785W        W27046   4.521  17.794  15.231 -0.1074 -0.1363 -0.2729
10786W        W27047  10.270   7.831   0.724  0.0833 -0.2843  0.0923
10787W        W27048   6.185  14.042   4.484 -0.1382  0.1269 -0.2233
10788W        W27049  14.233  10.827  15.845  0.0079 -0.2028  0.1311
10789W        W27050  12.469   9.308  15.894 -0.5642  0.1054  0.0081
10790W        W27051   8.862   4.899  13.497 -0.1596 -0.0319  0.0059
10791W        W27052   4.498   5.448  15.965 -0.0232 -0.2148  0.0394
10792W        W27053   6.011   4.694  12.836 -0.3307 -0.1066  0.1601
10793W        W27054  15.746   5.272  14.917  0.1090  0.0868 -0.2852
10794W        W27055   9.801   1.964   5.370  0.0300 -0.0413  0.0084
10795W        W27056   7.047  11.544   4.634 -0.1643 -0.4012 -0.0587
10796W        W27057  17.414   5.271  14.274  0.3889 -0.0561 -0.0433
10797W        W27058   3.777  12.953   3.558 -0.1040  0.0134 -0.0304
10798W        W27059   2.939   9.178  14.325 -0.0625 -0.0297 -0.1844
10799W        W27060  15.350   2.763   0.130  0.3275 -0.0838 -0.0355
10800W        W27061  17.326  14.307  13.228 -0.0315 -0.1710  0.1421
10801W        W27062  15.709  16.097  11.560 -0.0191  0.3403 -0.0788
10802W        W27063   4.240  12.629  13.661  0.0807  0.5588 -0.0536
10803W        W27064   1.783  13.444   0.786 -0.3805  0.0438  0.1972
10804W        W27065   5.020  14.334  15.643  0.0572 -0.0061 -0.3348
10805W        W27066   8.823   0.923  11.765  0.0186  0.1583 -0.1570
10806W        W27067  14.828  12.314  12.149 -0.0659 -0.1248  0.1790
10807W        W27068   9.822  15.639   3.563 -0.1276 -0.0954 -0.1033
10808W        W27069   6.106  13.373  14.375  0.0281  0.1018  0.0765
10809W        W27070   6.803   7.990   1.025  0.2857  0.1029  0.1747
10810W        W27071   5.468   7.996   0.340  0.1103  0.0323  0.0311
10811W        W27072  16.997  10.725  15.905  0.3649 -0.4418 -0.0157
10812W        W27073  17.714  12.576   2.376 -0.0447 -0.1201  0.0002
10813W        W27074   1.490   4.546   4.319 -0.0736 -0.0875  0.2196
10814W        W27075   9.523   8.882   2.814 -0.1300 -0.1595  0.2663
10815W        W27076   2.396  10.543   3.471 -0.0603 -0.0484  0.1212
10816W        W27077   2.584  15.127   1.453  0.2297 -0.0544  0.0470
10817W        W27078  16.030   1.081  11.945  0.2522  0.0315  0.0558
10818W        W27079  16.545   1.114   6.104  0.0183  0.4543  0.3032
10819W        W27080   1.405   4.829  13.879  0.3539  0.1588  0.0352
10820W        W27081  10.924   0.638   1.601 -0.0903 -0.0963  0.3579
10821W        W27082   7.227   2.856  12.563 -0.0791 -0.1801 -0.0472
10822W        W27083   6.585  16.565  15.573 -0.1142 -0.2508 -0.0681
10823W        W27084  10.676  13.285   2.402  0.1012 -0.1801 -0.0576
10824W        W27085   9.722   3.226   3.608  0.1996 -0.1681 -0.0771
10825W        W27086   9.910   5.412   4.103 -0.1867 -0.0271 -0.3501
10826W        W27087   9.911   8.293   0.842 -0.2523 -0.1603 -0.0087
10827W        W27088   3.273   1.059  13.243  0.3486  0.2162 -0.4329
10828W        W27089  12.685  10.780  15.781 -0.2797  0.2129  0.3619
10829W        W27090  13.582   9.821   3.909 -0.1961 -0.0255 -0.1665
10830W        W27091  12.735   2.554   2.490 -0.0552 -0.0017  0.1006
10831W        W27092   0.280  13.008  11.933  0.1349 -0.0795  0.0490
10832W        W27093  11.835   0.672   2.650  0.0641 -0.2982  0.0394
10833W        W27094   1.867  16.825  13.540  0.0502  0.3929 -0.2283
10834W        W27095  10.135   5.703   1.694 -0.2607  0.0673  0.2285
10835W        W27096   1.869  15.749  13.235 -0.3092  0.2286 -0.1828
10836W        W27097   2.903   7.154  13.963  0.1783  0.0086  0.1392
10837W        W27098  18.031   8.627   2.419  0.0285  0.3392 -0.1256
10838W        W27099  12.611  10.188  14.970 -0.1175 -0.3342  0.1259
10839W        W27100   8.511   5.876  16.262  0.0674 -0.0889 -0.0854
10840W        W27101  10.512  13.840   4.066 -0.2082  0.0531  0.1755
10841W        W27102   2.299  17.506   1.070 -0.0262  0.1770 -0.0375
10842W        W27103  15.282   9.934  15.575  0.0408  0.1541  0.0437
10843W        W27104   9.323   1.216   3.417 -0.1313 -0.0174  0.2557
10844W        W27105  15.502  18.341  12.345 -0.3168 -0.1231 -0.1861
10845W        W27106   5.527  14.378  11.532  0.0495  0.0636 -0.3217
10846W        W27107   7.536   6.520  15.064 -0.0477 -0.1220 -0.1647
10847W        W27108   3.149  15.368  14.994  0.1739 -0.1217 -0.0685
10848W        W27109  17.885  13.957  15.494 -0.1089  0.1055 -0.2542
10849W        W27110   0.491   4.135  15.701 -0.1518 -0.1979  0.1021
10850W        W27111  18.354   3.638   2.881  0.2681 -0.0099  0.2206
10851W        W27112   1.214   5.800   5.138 -0.0417  0.1594 -0.0355
10852W        W27113  13.439   9.244  13.923  0.1285  0.1553 -0.0879
10853W        W27114  11.687   8.398   0.724  0.1299  0.2886  0.4784
10854W        W27115   2.266  12.192  12.412  0.2560  0.0754 -0.2095
10855W        W27116  14.463   3.014  12.900 -0.1193 -0.5806 -0.0917
10856W        W27117  11.606  14.964  12.354  0.1351 -0.0025  0.0440
10857W        W27118  15.948  15.294   1.170 -0.1923  0.1361 -0.1792
10858W        W27119  16.274   6.305   4.510  0.2992 -0.0208  0.1391
10859W        W27120   3.831   2.580  15.238 -0.1098 -0.0074  0.2235
10860W        W27121   8.767   8.187   5.197 -0.0049  0.1214 -0.1055
10861W        W27122   7.399  11.800  14.988 -0.1011  0.2865 -0.3968
10862W        W27123   2.809  17.099   5.160 -0.1368 -0.1586  0.1179
10863W        W27124   6.001  14.676  14.317  0.0420 -0.2820 -0.1500
10864W        W27125  11.290  16.892   1.258  0.0416  0.1497 -0.1929
10865W        W27126  15.439  12.232   0.786 -0.0762  0.0615  0.2751
10866W        W27127  15.036   9.850   2.480  0.1114  0.4284 -0.1260
10867W        W27128  11.317   9.807   3.648  0.1007  0.3680  0.0091
10868W        W27129  10.019   9.436   3.113 -0.1615  0.2072 -0.0462
10869W        W27130  10.233  13.902  11.480  0.0890 -0.0347  0.0453
10870W        W27131   9.678   2.903   2.039  0.0618  0.0722 -0.0475
10871W        W27132   9.061   0.295  15.221 -0.0376  0.1652  0.0597
10872W        W27133  10.106   8.270   4.416  0.1251  0.1160  0.1838
10873W        W27134   5.014   3.712  11.761 -0.0963  0.1703 -0.0474
10874W        W27135   9.328   4.846   2.943 -0.2452  0.2752 -0.1860
10875W        W27136  10.277  18.049  14.811  0.2451  0.0920 -0.3087
10876W        W27137   0.533   8.681  12.801 -0.0035  0.1254 -0.3112
10877W        W27138  15.321  17.112  14.864 -0.1809 -0.1380  0.0865
10878W        W27139  10.479   3.151  14.753  0.2874  0.1684 -0.1369
10879W        W27140   0.640   7.625   6.426 -0.1587  0.0071  0.1420
10880W        W27141   8.669   7.848   5.566  0.0413  0.1972 -0.0158
10881W        W27142  12.760  13.067   3.859  0.1011  0.2877  0.2223
10882W        W27143  16.148   2.910   2.109 -0.1341 -0.1798  0.2666
10883W        W27144   6.104  11.745  16.103  0.1391 -0.2819  0.2439
10884W        W27145   4.225  10.263  13.252 -0.0375  0.1300 -0.2772
10885W        W27146   9.632  15.984  14.232 -0.0697  0.0249 -0.3336
10886W        W27147   5.606  14.376   5.531  0.2664 -0.0660  0.1677
10887W        W27148   3.794  10.992   0.858 -0.1821  0.0710  0.1796
10888W        W27149  15.729   5.027   5.161  0.1717  0.1214  0.0932
10889W        W27150  14.503  17.149  11.615 -0.1968  0.0954  0.1986
10890W        W27151   9.043   7.368  10.916 -0.0788  0.3132 -0.2476
10891W        W27152   1.705  17.754   2.730 -0.0616 -0.1057 -0.1427
10892W        W27153   0.848  12.422  14.148  0.3636  0.1736  0.1789
10893W        W27154   2.448   0.203  12.285 -0.2385  0.4680  0.1598
10894W        W27155  17.797  15.359  12.922  0.0484  0.1408 -0.1720
10895W        W27156  10.916   4.712  15.827  0.1495 -0.1314 -0.2305
10896W        W27157   7.293   6.530  15.654  0.2587 -0.0088  0.0269
10897W        W27158   9.509   5.434  11.479 -0.1250 -0.0454 -0.0569
10898W        W27159  13.803  15.782   4.004  0.1815  0.1896  0.3213
10899W        W27160   9.971  18.116  11.410 -0.4013 -0.1303 -0.0438
10900W        W27161   2.358   2.118  12.854 -0.0356 -0.2003 -0.0096
10901W        W27162   5.812  12.492  13.633 -0.1591  0.2250 -0.0232
10902W        W27163   9.554  15.994   4.720  0.1262  0.2530  0.0532
10903W        W27164   9.856   7.706   0.955  0.1045  0.2064  0.0788
10904W        W27165   3.668   4.210  13.979  0.3283  0.0021  0.0625
10905W        W27166   7.870   9.543   2.495  0.0300  0.2743 -0.1376
10906W        W27167   5.266  11.883   2.757 -0.2399 -0.0806 -0.5578
10907W        W27168   3.612   6.429  12.037 -0.0377 -0.1840  0.2506
10908W        W27169   6.420  10.503   3.939  0.0312  0.2439 -0.0798
10909W        W27170  14.148   4.359   4.610 -0.0114  0.3156 -0.1021
10910W        W27171   8.595   8.669  11.656 -0.0634 -0.0666  0.0795
10911W        W27172   8.462  16.241  12.431  0.4139 -0.2741  0.0794
10912W        W27173  15.677   9.197   2.937  0.1189 -0.3263 -0.0821
10913W        W27174   4.149  16.782  14.782  0.2374 -0.0891 -0.0022
10914W        W27175  14.297  15.322  12.719  0.0177 -0.1213  0.1611
10915W        W27176  10.522  10.755  13.357 -0.4658  0.0088  0.2374
10916W        W27177  16.539  11.673  14.352  0.2477 -0.1816  0.2231
10917W        W27178   7.463  11.774  11.981 -0.0910  0.2650  0.1618
10918W        W27179   6.089  15.735   0.348 -0.0418  0.0420  0.1574
10919W        W27180   4.111  10.321   2.486 -0.1733 -0.0579 -0.0441
10920W        W27181  18.031   2.337  14.409 -0.3609  0.0563 -0.2813
10921W        W27182   2.502   3.794  11.768  0.1686 -0.1693 -0.1636
10922W        W27183  16.257   9.468  13.839 -0.0420 -0.0200 -0.0662
10923W        W27184  15.677  11.027   0.258  0.0944  0.0671 -0.0489
10924W        W27185  11.652  17.454  12.233  0.2432 -0.0729  0.3822
10925W        W27186   6.386   0.103  15.473 -0.5776 -0.2707 -0.3061
10926W        W27187  10.777   6.352  15.742 -0.3424 -0.0017 -0.0982
10927W        W27188   2.006   5.459   2.352  0.1971  0.0437 -0.0969
10928W        W27189   0.147  10.062   0.495 -0.2060  0.1071  0.0997
10929W        W27190   3.339  17.823  14.135  0.2107 -0.0471 -0.0144
10930W        W27191  16.726   0.062   2.041  0.0956 -0.2090  0.1070
10931W        W27192   9.961  11.805  14.335  0.2175 -0.0364  0.3272
10932W        W27193  12.568  10.553   1.637 -0.1897 -0.3890  0.2269
10933W        W27194   6.555   7.761  15.777  0.0381  0.2058 -0.2839
10934W        W27195   7.632  10.645   3.521  0.0680  0.2110 -0.0894
10935W        W27196  16.243  12.410   5.316  0.0653  0.0283  0.0164
10936W        W27197  13.488   3.688  12.962 -0.0139 -0.1264 -0.2854
10937W        W27198  11.551   5.794   0.558  0.1007  0.0744  0.0545
10938W        W27199   6.224   4.655  13.320  0.0679  0.2314 -0.0393
10939W        W27200  12.120  15.723  12.877  0.0278  0.0469  0.3130
10940W        W27201   7.460   4.756   2.697  0.1882 -0.1087  0.0925
10941W        W27202  12.272  14.362   3.887 -0.1165 -0.2270  0.0830
10942W        W27203  17.775  15.757  15.744 -0.1693  0.3615  0.1752
10943W        W27204  16.543   2.046  14.641  0.0853 -0.2321  0.0837
10944W        W27205  14.667   4.773  12.241  0.3318 -0.0600  0.1183
10945W        W27206  14.228   3.940  11.865 -0.0188  0.0264  0.0828
10946W        W27207   0.558   9.443  13.762 -0.2519 -0.1291  0.0507
10947W        W27208   1.192  14.756  11.521 -0.2417 -0.1889 -0.2743
10948W        W27209   1.554  16.029  11.597 -0.2190  0.1701  0.3419
10949W        W27210   2.381  17.593  14.008 -0.0818 -0.2944 -0.0549
10950W        W27211  10.983   7.829  12.711 -0.3096 -0.0850  0.1419
10951W        W27212  11.008  17.741   0.345 -0.5425  0.1267  0.0856
10952W        W27213  12.794  10.075   1.857  0.4243  0.0004 -0.3278
10953W        W27214  17.884   4.703  14.651  0.1747  0.0219 -0.0639
10954W        W27215   2.665  17.538  12.089  0.1005 -0.1113 -0.0991
10955W        W27216  14.462   3.400  14.895 -0.3578 -0.4402  0.0296
10956W        W27217   8.175  14.458   0.977  0.0865  0.6634 -0.0888
10957W        W27218  17.373   4.760  14.757 -0.0466 -0.0040 -0.1392
10958W        W27219   0.703  16.625  15.539 -0.0204  0.2874 -0.0279
10959W        W27220  10.327  13.797  12.243  0.1491  0.1018 -0.0896
10960W        W27221   2.594   6.953   2.889  0.2586  0.0802  0.2834
10961W        W27222   3.972  14.242   4.464 -0.3773  0.2199  0.1631
10962W        W27223  14.766   3.773   3.263  0.0166 -0.0414  0.0628
10963W        W27224  11.100  14.175  10.671 -0.0799  0.4718 -0.0030
10964W        W27225  11.722   8.513   1.902  0.0038  0.1394 -0.0252
10965W        W27226  14.576  15.874  14.876 -0.2247  0.1484 -0.1952
10966W        W27227   3.174   1.092   3.639 -0.0462  0.0118  0.0769
10967W        W27228  11.448   1.901   0.391  0.0949 -0.0463  0.1024
10968W        W27229   4.154   0.143   0.591  0.0594  0.1305 -0.1485
10969W        W27230  16.713  18.032   4.203 -0.1898  0.3436 -0.0821
10970W        W27231   5.228   0.623   0.588  0.0201  0.1790  0.0335
10971W        W27232   9.571   8.325  10.859 -0.0733 -0.0119  0.3365
10972W        W27233  16.893   0.333  11.408 -0.0701 -0.1104 -0.1434
10973W        W27234  10.228   6.981   4.910 -0.1268 -0.3575  0.0461
10974W        W27235   6.700  13.455  12.271 -0.0912 -0.2957  0.0711
10975W        W27236  12.245   4.516   1.278 -0.0363  0.0091 -0.2332
10976W        W27237  13.436   3.906   5.687  0.0728 -0.1120 -0.0666
10977W        W27238   7.235   2.496  12.179  0.1873 -0.2310 -0.1524
10978W        W27239   8.659  10.989  16.243 -0.0151 -0.3040  0.0010
10979W        W27240  14.608  17.744  16.064 -0.0718  0.0379  0.0357
10980W        W27241  12.461   3.422  13.506 -0.1721 -0.0598 -0.1794
10981W        W27242   6.109  12.444   1.727 -0.0722 -0.2106 -0.2132
10982W        W27243  16.508   8.914  13.962 -0.0703 -0.3887 -0.0767
10983W        W27244   6.320   5.131   2.750  0.1798 -0.0902  0.0939
10984W        W27245  17.797  11.033  12.091 -0.0769 -0.2495 -0.0610
10985W        W27246   8.194  15.102   0.506 -0.0151  0.0622 -0.0010
10986W        W27247  13.496  16.201  11.564 -0.2056 -0.2524 -0.2486
10987W        W27248  13.570   1.294  13.801 -0.1286 -0.2479  0.2971
10988W        W27249  17.160  10.625   0.478  0.2782 -0.2256 -0.0854
10989W        W27250  10.141  12.087   3.411 -0.2270  0.0632 -0.0759
10990W        W27251  14.989  17.089   4.986 -0.2201 -0.0189 -0.0210
10991W        W27252   4.082   1.899  15.172  0.7800  0.0386  0.2201
10992W        W27253  16.598   8.003   4.212 -0.0333 -0.1929  0.0285
10993W        W27254  14.198  12.559  12.013 -0.3034  0.1633 -0.1743
10994W        W27255   5.887  13.132   3.899 -0.0027  0.0511 -0.2743
10995W        W27256   5.143   8.591   4.887  0.0521  0.0706  0.0415
10996W        W27257   8.524   7.409  16.000 -0.2818 -0.2846 -0.1044
10997W        W27258   8.468  15.789  14.696  0.4026  0.1668 -0.1584
10998W        W27259   9.066  14.617   5.071  0.4299 -0.0481 -0.1069
10999W        W27260  10.674   8.528   2.341  0.2102  0.0332 -0.1280
11000W        W27261  11.792  14.902   4.376 -0.1509  0.2558 -0.0944
11001W        W27262   6.928   5.307  11.696  0.3138  0.0816 -0.3034
11002W        W27263   4.977   1.211   4.016  0.0038 -0.1232  0.1182
11003W        W27264  18.028   3.294   1.503 -0.0782 -0.1118 -0.1839
11004W        W27265  14.002  15.061  13.808 -0.1322  0.0908 -0.2365
11005W        W27266  16.519   3.777  12.998  0.1899 -0.0819  0.2322
11006W        W27267   9.739   2.560  15.967  0.0842 -0.2111  0.0710
11007W        W27268   7.834  11.319   1.969 -0.1254 -0.2439  0.1373
11008W        W27269  13.256   9.778   1.878 -0.1336  0.4091  0.0195
11009W        W27270  12.773  17.892  11.923 -0.2127 -0.2473  0.1239
11010W        W27271   8.031  14.533  11.112  0.1606 -0.0055  0.0977
11011W        W27272  16.355   9.064   2.714 -0.0904  0.2057  0.2526
11012W        W27273   3.339  14.129   2.372 -0.2990 -0.0610  0.1958
11013W        W27274   2.824   1.701   5.871 -0.2219 -0.1399  0.0595
11014W        W27275   9.072  12.513  14.058 -0.3005 -0.2141 -0.1340
11015W        W27276   5.424  10.675   3.470  0.2011 -0.0858  0.0272
11016W        W27277   3.297   3.538   3.864  0.1341  0.0431 -0.1703
11017W        W27278   6.121  13.610   3.761  0.0322  0.0298 -0.1237
11018W        W27279  11.043   3.307  14.914  0.1215  0.2496 -0.3029
11019W        W27280   4.857  14.058  15.123 -0.0721  0.2602 -0.1181
11020W        W27281   7.120  18.063  16.023  0.4983  0.0287 -0.0979
11021W        W27282  14.901  17.903   5.331  0.1328  0.2916  0.1302
11022W        W27283  16.999   7.097  11.892  0.1729  0.0214  0.0709
11023W        W27284  17.294   5.914  15.171  0.0698 -0.4617 -0.1907
11024W        W27285   9.862   8.137   5.300 -0.1422 -0.2321 -0.1990
11025W        W27286  11.719   6.749   4.426 -0.0847 -0.2608 -0.3686
11026W        W27287   4.546   3.263  16.205  0.2555 -0.0361  0.1897
11027W        W27288  13.469   5.582   3.472  0.2649 -0.0969 -0.0338
11028W        W27289   8.822   7.700   5.072 -0.2467  0.1826  0.0687
11029W        W27290   7.502  14.958  11.620 -0.3450  0.1299 -0.0733
11030W        W27291   1.312   7.169  14.953  0.2034  0.2668  0.3067
11031W        W27292   2.481  11.010   3.294 -0.0821  0.0672  0.2002
11032W        W27293   9.535   3.369   1.331 -0.4517 -0.0450 -0.3896
11033W        W27294   4.464   7.030   5.404 -0.0177  0.2987 -0.1751
11034W        W27295  15.004  17.130   5.755 -0.4964 -0.4177 -0.0723
11035W        W27296  12.653   0.279   2.031 -0.0167 -0.3464 -0.1014
11036W        W27297   0.075  13.583   5.286  0.1000  0.1030 -0.0514
11037W        W27298   2.760   1.406  13.004  0.0003  0.1968 -0.0320
11038W        W27299  13.029   3.881  14.206  0.2397 -0.0622 -0.2555
11039W        W27300   8.199   1.789   4.712  0.1473 -0.1266 -0.1936
11040W        W27301   9.720   9.870  10.889 -0.0184  0.0123 -0.1060
11041W        W27302   1.896   4.499   0.699 -0.0361  0.2763  0.0121
11042W        W27303   7.672  14.971  13.531  0.2004 -0.0410 -0.1865
11043W        W27304   2.002   4.745   5.523 -0.1209  0.1601  0.1022
11044W        W27305  16.333   3.113  15.385  0.0961  0.3548 -0.1835
11045W        W27306   8.017  15.551  14.711  0.0351  0.0522 -0.1292
11046W        W27307   0.043   2.660  13.066 -0.1740 -0.3676 -0.0744
11047W        W27308  17.374  15.974   2.161 -0.4040  0.0402 -0.0282
11048W        W27309  18.351  13.302   4.859 -0.0368 -0.1378  0.0209
11049W        W27310   6.359  14.060  14.949 -0.0374  0.1533 -0.0684
11050W        W27311   5.472   1.073   0.765  0.1624 -0.0669  0.0929
11051W        W27312   7.338   8.524   2.224  0.1937  0.0284  0.3676
11052W        W27313   1.643   7.311   5.031  0.4079  0.2341  0.1124
11053W        W27314   4.280  11.518   1.882 -0.0263  0.1831 -0.4114
11054W        W27315   6.808   2.945  14.473  0.0274  0.2124 -0.0260
11055W        W27316   1.793   7.966   3.987  0.0675 -0.0298 -0.0731
11056W        W27317  17.309  10.995  11.945  0.0607  0.0736 -0.4355
11057W        W27318  12.124   2.129  12.662  0.2112  0.0676 -0.1298
11058W        W27319  12.206   9.609   0.853  0.2206 -0.1258 -0.1589
11059W        W27320  10.355  15.628   0.206 -0.4836  0.0876 -0.1367
11060W        W27321  16.666  10.711  16.285 -0.0429 -0.1249 -0.3185
11061W        W27322   6.669   5.128  12.130 -0.0068 -0.2505 -0.0465
11062W        W27323  11.461   0.033  12.212  0.0043  0.0218 -0.1413
11063W        W27324   1.295   8.548  12.548 -0.0861  0.0900 -0.0434
11064W        W27325   7.659   0.268   3.302 -0.0235 -0.1229 -0.1271
11065W        W27326  16.111  16.291  14.202 -0.1294 -0.2412 -0.1015
11066W        W27327  16.541   4.483   3.824 -0.0213 -0.0705 -0.0073
11067W        W27328  12.770  14.615   6.303 -0.0102 -0.0169  0.2050
11068W        W27329   3.435  12.023  15.456  0.0031 -0.2784 -0.1979
11069W        W27330   4.487   2.395  14.313 -0.5573 -0.0014 -0.3243
11070W        W27331  10.073   4.001  12.524  0.2495  0.2520 -0.0645
11071W        W27332   5.655   1.894   5.213 -0.0037  0.0302  0.1162
11072W        W27333  10.629   0.925   1.987  0.2303  0.0905 -0.0091
11073W        W27334   5.300  17.929  15.497 -0.0596 -0.0248  0.2649
11074W        W27335   7.665   6.983  16.137 -0.0619 -0.0284 -0.1491
11075W        W27336   9.325   2.072  13.059  0.0381 -0.0591  0.0094
11076W        W27337   5.223  10.188   0.876  0.1483  0.2799  0.0725
11077W        W27338   1.684   4.367   0.038  0.2717 -0.2958  0.0082
11078W        W27339  17.053   4.941   2.290  0.3422  0.1321 -0.3343
11079W        W27340  15.227  17.538   0.387 -0.1376  0.3621  0.4448
11080W        W27341   5.370   7.120   5.201 -0.0108  0.4170  0.4043
11081W        W27342  16.153  13.228  14.168 -0.1531  0.0172 -0.0606
11082W        W27343  11.842  15.718   1.394 -0.0764  0.0035 -0.0967
11083W        W27344   3.323  16.801   0.532  0.0295 -0.0582 -0.1627
11084W        W27345  16.663   1.830   5.965  0.3714  0.3505  0.1681
11085W        W27346  13.652  10.937   3.834 -0.0995  0.0431  0.0092
11086W        W27347   8.755   5.152  12.905 -0.2543 -0.1104  0.0221
11087W        W27348  16.831  14.191   0.142  0.0829  0.3349  0.2542
11088W        W27349   4.461  13.037   5.114 -0.0284  0.0482  0.2739
11089W        W27350  13.690  10.024   2.781 -0.3663  0.3911 -0.2415
11090W        W27351   6.910   0.963   0.265  0.2526  0.2024 -0.2325
11091W        W27352  16.263   9.765   4.012 -0.0064  0.2808 -0.0387
11092W        W27353   9.555  14.465   4.141  0.3733 -0.1776  0.1138
11093W        W27354   7.998  11.876  16.244  0.2739 -0.4288 -0.0216
11094W        W27355   2.805   7.478   6.060  0.0229  0.1345 -0.1557
11095W        W27356   3.436  14.260   0.707  0.3975  0.1118  0.1303
11096W        W27357  12.725   8.975   3.543 -0.0930 -0.2722 -0.0893
11097W        W27358  13.724   5.172   4.594  0.0988  0.0707 -0.0475
11098W        W27359   4.876  10.538  14.767 -0.2899  0.1079 -0.0963
11099W        W27360  17.692  13.747   0.987 -0.1371  0.0268  0.1685
11100W        W27361   8.122  17.219  13.774  0.0595 -0.3127 -0.0959
11101W        W27362   1.148   8.060   4.667  0.4658  0.0127  0.0210
11102W        W27363  12.760  11.669   5.058  0.1241 -0.0828  0.1030
11103W        W27364   7.284   5.675   3.095  0.0303  0.2854 -0.2854
11104W        W27365   2.643   1.313   2.526 -0.2221  0.1821  0.0016
11105W        W27366   2.146  15.600   1.996 -0.1176 -0.2100  0.1001
11106W        W27367   2.940  11.942   1.454 -0.1128  0.2671  0.0068
11107W        W27368  14.392   6.480   0.636  0.4689  0.1511  0.0360
11108W        W27369  16.943   5.110   4.614 -0.0625 -0.1827  0.1334
11109W        W27370   0.728  11.233  15.294 -0.2637  0.0612 -0.0753
11110W        W27371   7.704   0.341   2.343  0.4600 -0.0299  0.4812
11111W        W27372   3.971  11.634  11.441  0.1026 -0.0447 -0.2708
11112W        W27373  16.400  12.954  13.815 -0.2729  0.3007  0.0633
11113W        W27374  17.459   8.526  10.384  0.0456 -0.2195  0.0309
11114W        W27375  10.278   7.979  10.268 -0.0234 -0.0827  0.1901
11115W        W27376   5.467  11.290   6.075  0.0927  0.1120 -0.0364
11116W        W27377  14.837  12.113  14.043  0.0631  0.1441 -0.1558
11117W        W27378   5.884  14.402  12.405  0.3694  0.0335 -0.0004
11118W        W27379  11.887   3.412   1.927 -0.1301  0.1104 -0.1464
11119W        W27380  12.332  11.879  12.548  0.0620 -0.0440 -0.0246
11120W        W27381   5.875   4.485   0.467 -0.0550  0.0835  0.2806
11121W        W27382   2.787   4.457   0.765  0.1015  0.0051 -0.1230
11122W        W27383   9.822  12.619  13.870 -0.1008 -0.0920 -0.2055
11123W        W27384  12.745  15.835  13.291  0.0124 -0.3607 -0.1486
11124W        W27385   7.204   5.475   4.897  0.1433  0.1950 -0.1190
11125W        W27386  17.832  11.174  13.162  0.3528  0.0211  0.0875
11126W        W27387  11.170   3.968  11.188 -0.3794  0.0575  0.0415
11127W        W27388  16.049   4.079   3.444 -0.2642 -0.1777  0.1685
11128W        W27389  12.989  14.628  15.872  0.1980 -0.1799  0.0818
11129W        W27390  13.514   4.664   1.843 -0.0058 -0.1080  0.3087
11130W        W27391  14.447   9.527  11.978  0.2907  0.1319  0.0166
11131W        W27392   7.687  15.666   4.400 -0.0503  0.3630 -0.0435
11132W        W27393   2.620   9.227  16.161 -0.0878  0.3449  0.3738
11133W        W27394   4.930   4.003   5.618  0.2343 -0.2101  0.3359
11134W        W27395   4.033   0.460  13.492  0.0002 -0.1094  0.1618
11135W        W27396   1.788   1.630   6.222  0.1697  0.3393 -0.2623
11136W        W27397   0.544  14.523   1.660 -0.2337 -0.3844 -0.1008
11137W        W27398   6.627   7.112  11.126 -0.1912  0.0023  0.0893
11138W        W27399  16.365  14.274   0.277  0.3881  0.2734 -0.3620
11139W        W27400   7.637   9.699  15.433 -0.0365 -0.1355 -0.0931
11140W        W27401   4.493   8.935   0.071 -0.0423  0.1290 -0.0980
11141W        W27402  16.987   2.611   1.764 -0.0833 -0.1852  0.0490
11142W        W27403  13.226   8.408   3.064  0.2930 -0.1551 -0.2241
11143W        W27404   9.833   1.220   2.580 -0.0865  0.0617 -0.0890
11144W        W27405   7.171   9.620   2.118 -0.1656 -0.3121  0.1696
11145W        W27406  14.589  15.444  16.097  0.2517  0.0782 -0.1103
11146W        W27407   9.013   5.289  11.518 -0.3977  0.2449 -0.1970
11147W        W27408   6.667  16.738  12.041  0.0238  0.0971  0.0633
11148W        W27409   0.907   7.792  12.394 -0.0961 -0.0657 -0.0796
11149W        W27410  16.740   5.944  12.630 -0.0305 -0.1572 -0.0752
11150W        W27411  13.621   9.844   0.847  0.2944  0.0613 -0.1179
11151W        W27412   6.981   5.092   9.972 -0.1258  0.1369  0.1574
11152W        W27413  18.172  14.369   2.008 -0.1016  0.0633 -0.1968
11153W        W27414   7.600  11.322  11.576  0.0289 -0.2089 -0.1201
11154W        W27415   7.808   2.526  11.002 -0.2173 -0.1650  0.0971
11155W        W27416  16.164  12.262  15.254  0.1144  0.2757 -0.1335
11156W        W27417  11.711   3.938   0.746  0.1046  0.1676 -0.2473
11157W        W27418   3.721  10.489   4.792 -0.1700 -0.1234  0.1623
11158W        W27419  14.343  14.277   0.946  0.0182 -0.0168  0.1618
11159W        W27420  10.215   0.771   1.194 -0.0295  0.0281  0.2833
11160W        W27421  12.253   6.029  15.812  0.2768  0.1634 -0.3319
11161W        W27422   3.247   9.447  12.591 -0.0374 -0.3054 -0.0229
11162W        W27423   2.393   5.002   5.258 -0.1065 -0.0514 -0.0138
11163W        W27424  13.792  16.238   3.710  0.0049 -0.2802  0.0209
11164W        W27425  16.066   6.234  11.624 -0.1074 -0.0856 -0.2594
11165W        W27426  17.145  13.670  16.070  0.1964  0.1944 -0.0840
11166W        W27427   0.013  14.254   2.471 -0.1004  0.1425  0.2294
11167W        W27428  13.005   1.396  13.479  0.0930 -0.1526 -0.1528
11168W        W27429   4.032  13.513   1.807 -0.0853  0.2321  0.0722
11169W        W27430  18.090   7.051   1.545  0.1669  0.1438 -0.3275
11170W        W27431  10.741  16.971   0.492 -0.1781  0.1462 -0.0709
11171W        W27432   3.001   5.510   3.801 -0.1910 -0.0320 -0.2032
11172W        W27433  11.413   2.094   3.278 -0.0004  0.1203 -0.1411
11173W        W27434  10.266  13.096   3.396  0.0625  0.0879  0.0760
11174W        W27435  10.272  13.948   1.977  0.3400  0.1641 -0.3945
11175W        W27436   5.470   2.073  13.439 -0.0430 -0.2689  0.0262
11176W        W27437  16.624   0.285  15.677  0.1123  0.1011  0.4269
11177W        W27438  11.945   2.104   3.378 -0.2497 -0.2433  0.1228
11178W        W27439   0.651  10.585   4.845 -0.0787 -0.1087 -0.1037
11179W        W27440   5.617  12.118   0.111  0.0360 -0.2263 -0.1369
11180W        W27441   6.052  17.321   2.055 -0.0156 -0.0343 -0.2890
11181W        W27442  13.509  11.022  12.474  0.1925  0.1094 -0.1006
11182W        W27443   4.968   0.474  10.889  0.2775  0.1838  0.2173
11183W        W27444   5.375  13.929  12.803 -0.1734 -0.0837  0.4321
11184W        W27445   6.633  17.242   4.598  0.0922  0.1638 -0.0232
11185W        W27446  18.144  13.034  15.590  0.2249 -0.0611  0.0984
11186W        W27447   2.199   9.936   4.236  0.0355 -0.1054  0.0061
11187W        W27448  15.568   0.173  11.435 -0.5420 -0.3032  0.2798
11188W        W27449  10.811   7.248   4.187 -0.0174  0.4492 -0.3761
11189W        W27450  17.512  16.449   2.507 -0.1183 -0.0204  0.1072
11190W        W27451  14.209  14.707   3.988 -0.4511 -0.0077  0.2907
11191W        W27452  16.646   8.246  12.298  0.1655 -0.2185 -0.2366
11192W        W27453   0.899   9.208  13.553  0.3382  0.2272  0.2689
11193W        W27454  13.625   8.716  14.246 -0.1664  0.2504  0.0197
11194W        W27455  16.234  18.328  14.880 -0.0350  0.3284  0.2042
11195W        W27456  17.757  11.565   4.848  0.4023 -0.3353  0.1636
11196W        W27457   1.510   7.157   2.182  0.1400  0.1601 -0.0355
11197W        W27458   8.671  13.659   0.957 -0.1293 -0.1049  0.1572
11198W        W27459  18.245   4.367  14.275  0.0772  0.0907 -0.0937
11199W        W27460   2.719   0.006   3.970 -0.2144  0.0344 -0.1320
11200W        W27461  17.283  15.591  15.905  0.0760 -0.2543  0.1349
11201W        W27462   1.554   5.694   2.206 -0.0829  0.0927  0.1763
11202W        W27463   1.597   2.681  15.079  0.2545 -0.2266  0.0340
11203W        W27464   3.602   1.841  11.893  0.1759  0.1426 -0.0972
11204W        W27465  11.047  15.561   4.444 -0.1744 -0.0699  0.0536
11205W        W27466   8.970   6.660  12.052 -0.0374  0.4894 -0.2135
11206W        W27467  12.130   3.275  11.833 -0.4014  0.0140  0.1106
11207W        W27468   1.946   6.345   1.635  0.4852 -0.0598  0.1789
11208W        W27469   5.237  11.726  12.413  0.0856  0.0676 -0.0055
11209W        W27470   4.507  18.070   4.725  0.2002 -0.0095 -0.1339
11210W        W27471   0.216   1.464   2.767 -0.0471  0.0524 -0.0519
11211W        W27472   0.264  11.927   3.850 -0.2571  0.0823 -0.2231
11212W        W27473  11.322  13.140  16.139  0.0798 -0.1489  0.1250
11213W        W27474   2.266   0.889  15.846  0.0262 -0.3869 -0.2512
11214W        W27475   9.793  18.294   1.043 -0.0764 -0.0739  0.1372
11215W        W27476  15.815   6.503  16.094 -0.1165  0.0738  0.1015
11216W        W27477   8.060   3.828  14.933  0.0294  0.0499 -0.0828
11217W        W27478  10.541  14.583   5.362  0.1711 -0.5109 -0.0487
11218W        W27479   2.552   9.548  13.085 -0.1951  0.0709  0.0213
11219W        W27480   0.383  14.383   4.228  0.1089 -0.0789  0.2067
11220W        W27481  14.952   5.960  15.152 -0.0193 -0.1407  0.0082
11221W        W27482   9.255  16.935  12.405 -0.0691  0.0859 -0.2688
11222W        W27483   6.594   9.382  14.098 -0.1183 -0.1934  0.2267
11223W        W27484   0.210   7.971  11.871  0.3420 -0.0690  0.3026
11224W        W27485  17.801   1.442   2.787  0.1088  0.1795  0.2091
11225W        W27486  17.353  12.497  15.443 -0.0930 -0.2322 -0.1096
11226W        W27487  10.507  18.340  11.491  0.0804 -0.4561  0.1489
11227W        W27488   3.392   5.407   4.654  0.0910  0.1117  0.1723
11228W        W27489  12.922  13.224   0.688 -0.1633 -0.0001 -0.0470
11229W        W27490  16.334   3.280  12.952 -0.1027 -0.0607 -0.2975
11230W        W27491  15.161   7.790   3.159  0.1820  0.1007  0.0721
11231W        W27492  10.956  17.128  14.802 -0.2012  0.2274  0.2486
11232W        W27493  15.252   0.215   3.058 -0.0929 -0.0389  0.0672
11233W        W27494  13.446  11.471  11.734  0.1599  0.0122  0.4670
11234W        W27495   6.429  10.436   0.724  0.2611  0.2937 -0.0659
11235W        W27496  11.729   3.964   1.303  0.2455 -0.0037  0.3280
11236W        W27497   8.412  14.954  13.066  0.1325  0.2518 -0.0470
11237W        W27498  12.999  11.891   1.453  0.0057  0.0266 -0.1469
11238W        W27499  15.678  16.285  15.016 -0.1586 -0.2392 -0.0296
11239W        W27500   9.553   9.629  13.312  0.1186 -0.1840 -0.0152
11240W        W27501  15.978  17.697   5.055  0.3338 -0.2120  0.0390
11241W        W27502  11.965  12.277  14.020 -0.1294  0.0156  0.1070
11242W        W27503  16.996  12.369   3.498 -0.1575  0.2670  0.0787
11243W        W27504   8.838   2.171  14.077  0.0635  0.2750  0.1146
11244W        W27505   8.096  12.289  11.188  0.1691  0.0225  0.1654
11245W        W27506   0.227  14.531  11.467 -0.2800  0.3904 -0.1278
11246W        W27507   3.468   5.241  14.333 -0.0390  0.2237 -0.2961
11247W        W27508  17.328  11.154  13.897 -0.1534 -0.1309 -0.2036
11248W        W27509  15.924  13.059  13.698  0.2662 -0.1254 -0.2182
11249W        W27510   2.976  14.300   0.928 -0.1492  0.2595  0.0584
11250W        W27511   0.235  17.718   0.910 -0.2676  0.0145 -0.1214
11251W        W27512  12.488   1.862  12.859 -0.2506 -0.3724 -0.2352
11252W        W27513  11.610   3.670   3.276 -0.0529  0.0422  0.1089
11253W        W27514   2.166  18.225   6.582  0.2063  0.1653  0.0885
11254W        W27515  16.963   6.504   1.153 -0.3057  0.2943  0.2146
11255W        W27516  12.054  15.695  16.129  0.2296  0.1374 -0.0048
11256W        W27517   0.317   0.609   1.303  0.1642  0.1057  0.1721
11257W        W27518   1.587   0.392   3.576  0.0915  0.0310 -0.1358
11258W        W27519   8.541   2.595   4.510 -0.0143  0.0109 -0.0582
11259W        W27520   4.228  15.149   4.438  0.0426  0.0337  0.1323
11260W        W27521  12.397  11.326   1.911 -0.1430  0.0582 -0.2346
11261W        W27522  16.612  17.739  15.062 -0.3640  0.0443  0.1740
11262W        W27523  13.335  11.505  10.259  0.1343 -0.0795  0.0456
11263W        W27524  15.642   0.739   4.531  0.1702  0.1137  0.2276
11264W        W27525   9.916   6.772  11.886  0.1151 -0.0582 -0.4570
11265W        W27526  10.167  14.593  13.527  0.0984 -0.1739 -0.0663
11266W        W27527   4.190   5.373  12.131 -0.0744  0.4890 -0.1539
11267W        W27528  10.384  16.189  11.380  0.2405 -0.0217  0.0353
11268W        W27529  18.288   1.517  13.830  0.0869  0.1487  0.0335
11269W        W27530   7.876  11.995   4.175 -0.1217  0.0468 -0.0725
11270W        W27531  13.508  14.204   4.402 -0.0035  0.1812  0.2006
11271W        W27532   6.327   0.342  11.947 -0.0914  0.0186 -0.1695
11272W        W27533  16.638  17.305  15.281  0.1283  0.0170  0.1243
11273W        W27534  11.229  16.526  16.057  0.1902 -0.1825 -0.0348
11274W        W27535   7.184   0.499  14.899  0.1064 -0.0109  0.1067
11275W        W27536  15.169   9.058  14.977 -0.2545  0.2211 -0.1166
11276W        W27537  16.867  18.011   2.650  0.4033  0.0992  0.0161
11277W        W27538   5.576   6.651  16.074 -0.0234  0.0524  0.2425
11278W        W27539  16.857   3.248   0.998  0.0841 -0.3056 -0.1515
11279W        W27540   9.249  16.237   2.219  0.0938 -0.1336 -0.2875
11280W        W27541  11.152  18.269   1.788 -0.0299  0.1130 -0.2063
11281W        W27542   8.491  11.310  12.821 -0.1790  0.0313  0.1012
11282W        W27543   1.499   2.988   2.151  0.0630 -0.1626 -0.0052
11283W        W27544  10.283  14.071  13.585  0.1976  0.2488 -0.1599
11284W        W27545  10.244   7.317  13.073  0.1689  0.1479  0.1351
11285W        W27546   2.475   2.871   3.177 -0.0119 -0.2308 -0.0298
11286W        W27547   3.096   4.411  12.987 -0.2833 -0.1398  0.1345
11287W        W27548   6.542  16.463  13.884 -0.0940  0.2474  0.0144
11288W        W27549   0.435   6.199   0.167 -0.0255  0.0533  0.2954
11289W        W27550  16.916   6.351  14.356 -0.0510  0.0295  0.0942
11290W        W27551  16.679   1.216  14.489  0.1638 -0.2480  0.0253
11291W        W27552  13.116   8.126  15.509  0.0963 -0.4177  0.0348
11292W        W27553   6.506   1.255   5.189 -0.1333 -0.2862  0.0988
11293W        W27554  14.670  17.471  14.796 -0.0940  0.1467  0.1274
11294W        W27555  14.217   6.657   1.853  0.1090  0.2502 -0.0476
11295W        W27556   5.341  13.956  11.787  0.2614 -0.1687 -0.0177
11296W        W27557  16.373   0.912   3.275  0.4714  0.1238 -0.1881
11297W        W27558   5.749   0.925   3.010 -0.0172 -0.1257  0.2236
11298W        W27559   3.878   0.418  12.769  0.1993 -0.0577  0.0313
11299W        W27560   9.635  10.309   1.854  0.3622 -0.1187  0.0946
11300W        W27561   4.917   4.520   5.525 -0.0289 -0.3092 -0.0271
11301W        W27562  11.355   6.139  12.164 -0.0008  0.2714 -0.1753
11302W        W27563   5.951   6.488  10.688 -0.1011  0.2307 -0.0200
11303W        W27564   1.820   9.260  15.796  0.1420 -0.1089  0.3762
11304W        W27565  17.462   2.560   2.698 -0.0634 -0.3851 -0.3288
11305W        W27566  12.661   6.746   2.284  0.0961  0.1905  0.0070
11306W        W27567   5.222  15.399  14.340  0.2913  0.0941  0.1789
11307W        W27568  12.171   9.428  15.553 -0.3889  0.2202  0.0043
11308W        W27569   5.825   1.032   1.181  0.0587  0.0627 -0.0537
11309W        W27570  12.315   0.218  15.601 -0.1021  0.0920  0.2021
11310W        W27571  10.062   4.304  12.078 -0.3117 -0.0590  0.3323
11311W        W27572  10.124   1.297   0.872 -0.0183  0.2286  0.0922
11312W        W27573   4.281   7.461   3.774 -0.2566  0.0441  0.0351
11313W        W27574   5.980   8.655   4.671 -0.0262  0.0168  0.0802
11314W        W27575  15.406   2.199  12.838 -0.3214  0.0627  0.1735
11315W        W27576  13.641   0.728   0.829  0.1967  0.1102  0.0753
11316W        W27577   0.323  14.033  13.443 -0.1445 -0.0779  0.0286
11317W        W27578  16.904   7.249   3.197 -0.1126  0.0312 -0.1157
11318W        W27579  14.060  16.524  12.643  0.2641 -0.0393  0.1877
11319W        W27580   4.702  10.096  15.616 -0.0226  0.0601  0.0594
11320W        W27581   3.515   6.844   0.532  0.1633  0.3105  0.3164
11321W        W27582   9.465  13.568   4.156 -0.1576 -0.5232  0.2976
11322W        W27583  18.345  11.136  15.882  0.1007  0.0937  0.1500
11323W        W27584  15.732  10.042   0.100  0.1697  0.1514  0.0837
11324W        W27585  13.841   4.479  12.162 -0.2648  0.0619 -0.2615
11325W        W27586   4.875   2.460   0.987  0.1541 -0.1056  0.0061
11326W        W27587  17.668  10.290  14.286  0.0550 -0.0109  0.1206
11327W        W27588  16.573   2.238   1.890 -0.1155 -0.0407  0.3694
11328W        W27589   8.175   9.810  10.824  0.0545 -0.0228  0.0868
11329W        W27590  18.234  16.695   4.288 -0.3123  0.0713 -0.0218
11330W        W27591   5.699   8.324  14.838 -0.1735  0.1965 -0.0429
11331W        W27592  15.821  12.790  14.146 -0.1291  0.1062  0.3146
11332W        W27593   6.515  16.485   3.716  0.0328  0.0112  0.2128
11333W        W27594   2.584   4.669  14.174 -0.1532  0.0895 -0.0990
11334W        W27595  17.811   8.307   0.972  0.4505  0.2741 -0.0563
11335W        W27596  12.230  13.783   0.504 -0.0131 -0.0823 -0.2360
11336W        W27597  10.960   6.663   0.499 -0.1132 -0.0589  0.1089
11337W        W27598   6.226  10.108  14.455  0.4356  0.2314  0.3393
11338W        W27599   1.743   0.052  15.363 -0.0296  0.2816  0.1905
11339W        W27600   0.483   5.498  15.834  0.0711 -0.1289 -0.0914
11340W        W27601   8.244   1.682  15.241  0.0436 -0.0149 -0.0405
11341W        W27602  14.780   5.031   3.626 -0.2177 -0.5023 -0.0070
11342W        W27603   0.672  12.883   0.956 -0.1709  0.2345  0.1068
11343W        W27604  17.635  13.269   1.110  0.0920  0.2748 -0.0149
11344W        W27605   2.757  14.206  15.238  0.3518 -0.1015 -0.0498
11345W        W27606   0.861   9.174  11.935  0.2115  0.0516  0.0681
11346W        W27607   3.561  18.341  12.782 -0.1924  0.4754  0.0564
11347W        W27608   0.868   9.611  15.975 -0.2256  0.0477  0.2167
11348W        W27609   7.005   6.262  13.407 -0.0754  0.1187 -0.4119
11349W        W27610   4.684  10.581   1.237 -0.3482 -0.1977  0.1367
11350W        W27611   1.439  13.189   3.289 -0.1280  0.3225  0.4000
11351W        W27612   3.642   9.922   0.363  0.0164 -0.0638  0.0949
11352W        W27613   9.623  17.883   2.561  0.4179  0.2703 -0.0722
11353W        W27614   5.881  16.450  15.912  0.1847 -0.3222  0.1351
11354W        W27615   2.806  11.286  14.780 -0.0790 -0.0770 -0.3563
11355W        W27616  13.424  10.486   2.728 -0.0352  0.1667 -0.0215
11356W        W27617  14.966   2.912  15.657  0.2682 -0.3389 -0.1917
11357W        W27618  10.570   6.585   1.483 -0.0083  0.0625  0.0392
11358W        W27619   4.342   2.236   1.858 -0.2086  0.0492 -0.0026
11359W        W27620  14.983   4.172  14.507 -0.0339  0.0888  0.0404
11360W        W27621   6.984   7.641   5.122 -0.0729 -0.0526 -0.0969
11361W        W27622  13.215   2.634   4.313 -0.0866 -0.2317  0.3325
11362W        W27623   0.153  16.712   3.592  0.2319  0.0591 -0.4309
11363W        W27624  15.777   8.626  12.430 -0.1235 -0.0924  0.2895
11364W        W27625  12.341  12.356  13.228 -0.2011  0.1088 -0.3100
11365W        W27626   3.556   0.425  11.557  0.3252 -0.3250  0.1846
11366W        W27627  10.720  13.570  12.912  0.1470 -0.3476 -0.3111
11367W        W27628   3.893  14.726   3.064 -0.2226 -0.0364  0.1454
11368W        W27629  15.138   8.930  13.067 -0.1186 -0.0834  0.2020
11369W        W27630   6.740   6.496   1.153 -0.0181  0.0641 -0.1234
11370W        W27631  11.349   4.209  12.479 -0.1711 -0.0047  0.0391
11371W        W27632   2.531  13.051   3.166  0.1329 -0.2183 -0.0535
11372W        W27633   0.018   4.893  13.421 -0.0367 -0.0944 -0.1471
11373W        W27634  13.316  14.629   1.297  0.1867  0.3286  0.0744
11374W        W27635  13.548  10.449  15.415  0.2380 -0.2977 -0.0344
11375W        W27636   1.881  11.055   2.302 -0.2796  0.0966  0.1416
11376W        W27637  10.143   7.283   1.280 -0.2095  0.1131  0.1213
11377W        W27638  17.490  14.858   3.459  0.0174 -0.0089 -0.0858
11378W        W27639   5.776  11.961  14.225 -0.1164  0.0541 -0.0331
11379W        W27640   2.359  17.385  15.878 -0.0487  0.2024 -0.3425
11380W        W27641   5.601   1.610  11.506  0.0947 -0.4362 -0.4240
11381W        W27642   8.239   3.603   1.524 -0.0476 -0.1192  0.1202
11382W        W27643  18.026   9.177   1.265  0.1776 -0.2854  0.0029
11383W        W27644  13.475   3.207   2.508 -0.2327  0.2087  0.1685
11384W        W27645   9.777  18.132   4.716 -0.2818  0.0050 -0.0938
11385W        W27646   0.136  10.494  11.307 -0.1923  0.1681  0.1333
11386W        W27647   9.412   1.555   2.513 -0.1608 -0.0839 -0.0419
11387W        W27648  10.515   9.659  13.522 -0.2444  0.3464 -0.2664
11388W        W27649   4.613  12.996  15.771 -0.0187 -0.0315  0.0822
11389W        W27650   7.459  17.619   2.642 -0.2035 -0.1939  0.3087
11390W        W27651   0.949   2.185   3.249 -0.0441  0.2617 -0.0717
11391W        W27652  12.575   8.279   2.520 -0.1461  0.0949  0.0062
11392W        W27653   0.143  11.489   1.986 -0.0660 -0.1801  0.0558
11393W        W27654  11.871   1.294   0.491  0.0320  0.5686 -0.0934
11394W        W27655   9.170   6.211   3.963 -0.1562  0.3806  0.1304
11395W        W27656  15.068  18.018   2.869 -0.1167 -0.2041  0.3458
11396W        W27657   0.765  11.218  13.531 -0.1247 -0.2386 -0.0886
11397W        W27658  17.862   2.262   2.052  0.0901  0.2381 -0.0334
11398W        W27659   7.754  17.973   1.743 -0.2596  0.1443 -0.2139
11399W        W27660  14.520   7.765  16.185 -0.1179  0.2471 -0.0626
11400W        W27661   9.212  17.581   1.418  0.0971 -0.0808  0.0150
11401W        W27662   1.163   4.422   5.553  0.0544 -0.0454 -0.2221
11402W        W27663   5.745   7.311  15.356  0.1367 -0.0454  0.1707
11403W        W27664   9.819  11.491   5.484  0.2083  0.0467 -0.2164
11404W        W27665   7.944  10.125  14.214  0.0200  0.1976  0.3138
11405W        W27666  12.139  10.402  15.325  0.2321  0.1002  0.1695
11406W        W27667  14.329   1.268   0.879  0.0071 -0.1808 -0.1738
11407W        W27668   3.904   9.695  16.120  0.0907 -0.1258  0.1327
11408W        W27669   3.957   1.300   4.214 -0.0132 -0.0046 -0.1642
11409W        W27670  11.862   0.739   6.282 -0.1764 -0.3089  0.1662
11410W        W27671   6.160   3.404   3.227  0.3069 -0.1367 -0.1688
11411W        W27672  14.179  15.615  14.575 -0.2932  0.1949 -0.0395
11412W        W27673  12.360  13.088  16.130 -0.5261 -0.1247 -0.1279
11413W        W27674   8.397   1.976   0.605 -0.1140  0.1174 -0.0213
11414W        W27675   9.793   9.299  11.500 -0.0849 -0.0396  0.0591
11415W        W27676  15.894   8.649  11.970 -0.1781  0.1716 -0.1495
11416W        W27677  12.144   3.660   1.477 -0.1844 -0.0914 -0.0892
11417W        W27678  10.735  13.535   0.703 -0.0601  0.2591 -0.0753
11418W        W27679  16.459   8.192  13.301 -0.0241 -0.0741 -0.0234
11419W        W27680  10.721  11.014  10.959 -0.2026  0.2714  0.3169
11420W        W27681   6.051   8.595   2.167 -0.3547  0.3209 -0.1737
11421W        W27682   8.656  18.096  12.658 -0.1388 -0.0967 -0.3064
11422W        W27683   3.247  14.316  14.081 -0.0346 -0.0609  0.0809
11423W        W27684   5.279   5.780   2.299  0.1881 -0.2561 -0.0112
11424W        W27685  13.967  13.973  15.651 -0.1952  0.0292 -0.0646
11425W        W27686   6.754   0.505   1.552  0.1421 -0.2585  0.2669
11426W        W27687  14.177  13.956  13.398  0.0295  0.0954 -0.0389
11427W        W27688  12.051  15.604  12.032 -0.1491  0.2705 -0.0861
11428W        W27689   2.337  13.079  12.604 -0.0635  0.0478  0.0087
11429W        W27690  15.648   7.788  15.070  0.3057  0.0415 -0.0058
11430W        W27691   2.452   6.684   4.673 -0.1526 -0.2649 -0.1119
11431W        W27692  10.933   1.948   0.027 -0.0158 -0.0926 -0.1926
11432W        W27693   8.571  17.335   1.765  0.1583  0.1340 -0.2031
11433W        W27694   0.443  13.946   3.985  0.0278 -0.1303  0.0471
11434W        W27695  14.933   3.566  12.179  0.3559  0.2359  0.1421
11435W        W27696  17.452   3.115   1.171  0.2497  0.2665 -0.0968
11436W        W27697   9.338  17.909   2.169 -0.1218  0.1049  0.1501
11437W        W27698  13.498   7.067   5.778  0.2051 -0.2897  0.1918
11438W        W27699  15.381   3.161  12.637 -0.0529 -0.0924  0.0017
11439W        W27700   3.092   9.555  11.305  0.1768 -0.2272 -0.1387
11440W        W27701  18.262   2.663  14.812 -0.0740  0.0421  0.3409
11441W        W27702  14.944   2.814   1.694  0.0803 -0.2341  0.1230
11442W        W27703  10.201  12.478   4.527  0.0951 -0.0054 -0.2109
11443W        W27704  12.374   2.253   2.331 -0.3116  0.2107  0.0550
11444W        W27705  14.007  16.360   1.486  0.1362  0.0225 -0.2911
11445W        W27706  12.599   7.983  12.177 -0.1005  0.2500  0.1883
11446W        W27707  11.795  11.466   3.013  0.0974  0.1307 -0.2483
11447W        W27708   2.299   1.325  13.876  0.3648 -0.2017  0.4147
11448W        W27709  13.014   8.049  11.675  0.0766  0.0643  0.0711
11449W        W27710   0.780   2.346   0.730  0.0340 -0.2240  0.0489
11450W        W27711  12.166   2.279  12.055 -0.1559  0.2656 -0.2139
11451W        W27712   3.511   7.751   0.104 -0.2022  0.0630  0.0744
11452W        W27713  14.194   9.772  14.934  0.1865  0.0119  0.3827
11453W        W27714   3.382   4.947  12.982  0.0530 -0.3704  0.0195
11454W        W27715   9.732  12.804  11.773 -0.2558  0.1639  0.3282
11455W        W27716   7.423   0.932   1.356 -0.0505 -0.3048 -0.1604
11456W        W27717   2.164  10.237   1.295 -0.0123 -0.5083 -0.1522
11457W        W27718  10.849  17.481   5.698 -0.0424  0.1545 -0.0698
11458W        W27719  14.612   6.422  12.288  0.0907  0.0498 -0.0802
11459W        W27720   5.507   5.018  12.992 -0.0699  0.1515  0.2106
11460W        W27721   3.812  15.926  14.598 -0.1038  0.0474 -0.0969
11461W        W27722  13.619  15.777   0.517  0.0251 -0.2171  0.0358
11462W        W27723   0.970   2.038   3.995 -0.2504 -0.1558  0.1509
11463W        W27724   6.989  15.457  14.763  0.2516  0.2859 -0.1783
11464W        W27725  10.696  13.270   3.801 -0.0369  0.0811  0.0215
11465W        W27726  10.456   0.467   1.456  0.0721 -0.0205  0.2851
11466W        W27727  10.973   8.710  11.259 -0.0347  0.1312 -0.2611
11467W        W27728   7.926   8.494   4.978  0.0475 -0.0736  0.1018
11468W        W27729   8.972   7.195   5.043  0.1061 -0.3107 -0.2389
11469W        W27730  17.834   0.750  12.135  0.2869 -0.1181 -0.0552
11470W        W27731   2.156   6.044   0.256  0.1736 -0.2345 -0.0658
11471W        W27732   8.810  18.008   2.176  0.0359 -0.0328 -0.4163
11472W        W27733  10.823  15.146  15.260 -0.0314 -0.3534  0.0775
11473W        W27734   9.219  12.597  15.221  0.0513  0.0519  0.0127
11474W        W27735   7.819   7.044   0.349 -0.0407  0.1756  0.1760
11475W        W27736   3.469  15.147   4.044  0.1363  0.1652  0.0946
11476W        W27737   3.820   8.644   5.221  0.1811  0.0401  0.1347
11477W        W27738  11.375  10.453  13.998 -0.3323  0.0507 -0.3021
11478W        W27739   6.460  10.932   0.462 -0.3151 -0.0310  0.2829
11479W        W27740  15.546   1.604   1.173  0.1213 -0.0615  0.1464
11480W        W27741   4.918   8.148   3.149 -0.2712 -0.2396  0.1508
11481W        W27742  17.831  14.958   3.797 -0.1484 -0.1384 -0.0210
11482W        W27743  12.305  13.851  12.315  0.0192 -0.0604 -0.0854
11483W        W27744  12.229   1.895  15.554 -0.2522  0.0600  0.0858
11484W        W27745  15.665   0.407   3.358  0.1373 -0.0683 -0.0790
11485W        W27746  10.726  10.114  15.468 -0.3146  0.2036 -0.1564
11486W        W27747   1.150  10.332   2.670  0.0943 -0.1294 -0.0442
11487W        W27748   2.999   3.532  15.061 -0.1180 -0.0113  0.2575
11488W        W27749   7.718  13.587  16.153  0.0445 -0.1065  0.2838
11489W        W27750  13.586   9.173  11.513  0.2640 -0.3589  0.0244
11490W        W27751   5.028  12.296   5.450 -0.1063  0.2757  0.2819
11491W        W27752   7.264   2.342   3.398  0.1677  0.1668  0.0209
11492W        W27753  14.353  17.268   4.079  0.2286 -0.1248 -0.2410
11493W        W27754  13.810   7.604  11.591  0.0896 -0.2109  0.0103
11494W        W27755   2.985  12.852   3.130 -0.1490  0.1695 -0.1446
11495W        W27756   2.015  12.851   1.404 -0.1425 -0.0394 -0.1415
11496W        W27757  14.105  16.575  15.439 -0.2400 -0.0141  0.1133
11497W        W27758   1.577  10.195   6.508  0.1307  0.0517  0.0677
11498W        W27759   1.223  16.189   0.381 -0.0428 -0.0855 -0.2015
11499W        W27760  13.259   6.263  12.968 -0.0835  0.2063  0.0128
11500W        W27761   2.288  16.616  13.670  0.3562  0.1146  0.0859
11501W        W27762   9.202  13.066  13.358 -0.0528 -0.1926  0.1762
11502W        W27763  10.110  12.167   0.554  0.0176 -0.1627  0.0954
11503W        W27764  13.040   2.603  15.963 -0.0551  0.0284  0.1762
11504W        W27765   1.065   0.280   2.713  0.1606  0.0768  0.5134
11505W        W27766  13.541   0.064   1.507  0.0282 -0.2196  0.2054
11506W        W27767   8.449  12.681   4.696 -0.0607 -0.2552  0.1066
11507W        W27768  14.523   6.265   2.965  0.0943 -0.1162 -0.0684
11508W        W27769   8.801   9.208   5.350 -0.1389  0.1196 -0.0313
11509W        W27770  16.835  10.097   2.180 -0.2295  0.0481 -0.1472
11510W        W27771   4.014   4.180   5.773 -0.0871 -0.1958  0.0413
11511W        W27772  11.065   7.641   1.735  0.1372 -0.1127 -0.1183
11512W        W27773   2.235  13.769   0.957  0.3641 -0.0273 -0.1501
11513W        W27774   5.476   1.532  14.878 -0.0777  0.0180  0.0171
11514W        W27775   2.985   0.443   4.057  0.4961 -0.1407  0.1128
11515W        W27776   2.880  13.001   5.358 -0.2268  0.1329  0.2210
11516W        W27777  12.454   7.547   3.410 -0.3156 -0.0723 -0.1442
11517W        W27778  18.253   7.417   1.847  0.3766 -0.2491 -0.1840
11518W        W27779   9.574   5.535  13.975 -0.1272  0.0545  0.1870
11519W        W27780   8.561   4.852   4.126 -0.0805 -0.0359  0.1492
11520W        W27781   5.665  12.153  13.042 -0.0466  0.0972  0.1013
11521W        W27782  17.146  16.003  13.100  0.2155  0.1006  0.2194
11522W        W27783   0.837   7.667   1.057 -0.0608 -0.1041 -0.1769
11523W        W27784   1.448  10.407  15.648 -0.0202  0.0536 -0.0810
11524W        W27785   2.757  13.341   2.072  0.1627 -0.2128  0.0099
11525W        W27786  11.319   6.383  15.490 -0.0725 -0.3152  0.2574
11526W        W27787  16.378   0.192  13.782  0.0799  0.1010 -0.3211
11527W        W27788  14.465   8.235  12.607 -0.2831 -0.2838 -0.1124
11528W        W27789   6.057   9.051  13.988  0.2187  0.1496  0.0088
11529W        W27790   8.053  13.207  12.253  0.0402 -0.1320  0.1746
11530W        W27791   4.594   3.925  14.164  0.0312 -0.4064 -0.2674
11531W        W27792   6.744  13.338   5.785  0.1895 -0.1091  0.1000
11532W        W27793  17.018  17.510   0.838  0.0768  0.3204  0.1911
11533W        W27794   6.653   0.299  14.036  0.2476 -0.2352  0.1262
11534W        W27795   3.635   4.957   1.457  0.2516 -0.2793 -0.3911
11535W        W27796   2.215  16.329   4.325 -0.2345 -0.0764  0.1000
11536W        W27797   1.690   0.219   5.380 -0.0734  0.2544 -0.2229
11537W        W27798  16.637   8.724   5.459 -0.1877  0.4390  0.1401
11538W        W27799  10.325  14.847  12.189  0.1741 -0.2963  0.0842
11539W        W27800  17.853   6.144   5.128 -0.0918  0.3577  0.0603
11540W        W27801   1.762   7.377  14.100  0.1078  0.2913  0.2721
11541W        W27802   9.079  10.538   4.735 -0.0764 -0.0188 -0.3198
11542W        W27803  10.538   6.422   0.156 -0.0354 -0.0536  0.4517
11543W        W27804   6.801  14.773   2.736 -0.2039  0.0109  0.0174
11544W        W27805   9.153  13.773   4.549  0.1561  0.2352 -0.2608
11545W        W27806   2.412   1.867   0.946  0.1557  0.1431 -0.2931
11546W        W27807   8.876   6.853  11.603  0.1289 -0.0282  0.1185
11547W        W27808   3.546  17.459   4.484 -0.1661 -0.1000  0.0431
11548W        W27809   9.172   3.097   3.658  0.0244 -0.5583 -0.1237
11549W        W27810  10.797  17.022   5.887  0.1374  0.2721 -0.0577
11550W        W27811   9.751   7.603   1.454  0.0732 -0.2481 -0.0897
11551W        W27812   0.399  16.793  11.548 -0.0998  0.0142  0.0019
11552W        W27813   1.613  15.523   3.174  0.1797  0.1901  0.3419
11553W        W27814   1.316  13.445   2.843 -0.2059  0.1723  0.1225
11554W        W27815  17.765  16.498   4.087  0.1620  0.0842 -0.1174
11555W        W27816   4.119   6.355   3.103 -0.1957 -0.1137  0.0740
11556W        W27817  10.159  11.083   1.459  0.2808 -0.1861 -0.1732
11557W        W27818   7.317  17.591   4.254 -0.0979  0.3690 -0.3830
11558W        W27819  10.428  17.539  14.777 -0.1325 -0.2072 -0.1862
11559W        W27820   0.955  18.045   3.868 -0.1647 -0.1338 -0.2778
11560W        W27821  12.650   3.245   0.918 -0.2661 -0.3171 -0.0397
11561W        W27822  11.947  15.386   6.024 -0.0039  0.1137  0.0222
11562W        W27823  11.017  10.124  15.922 -0.1095  0.1026 -0.1375
11563W        W27824  10.505  14.056  12.626 -0.2593 -0.1500 -0.0793
11564W        W27825  11.045   6.640   0.018 -0.0380  0.0972 -0.2413
11565W        W27826   4.234   6.016  15.116 -0.0998 -0.2914  0.0663
11566W        W27827  17.412   3.127   5.937 -0.1610 -0.1627  0.1302
11567W        W27828  13.475  11.933  12.069  0.1220 -0.1531 -0.3124
11568W        W27829  14.920   6.287  11.819  0.0353 -0.1583  0.1827
11569W        W27830   3.562   0.684  15.334  0.0023 -0.0037  0.2137
11570W        W27831   4.732   1.590  15.351  0.2007 -0.1097  0.0688
11571W        W27832  10.613   7.976   4.695  0.3440  0.0939  0.2395
11572W        W27833   4.557   6.238  14.847  0.2408  0.0058 -0.2185
11573W        W27834   7.063  11.940  11.218 -0.1966  0.0559  0.1355
11574W        W27835  16.165  16.258  11.682 -0.0006 -0.0318  0.1633
11575W        W27836   9.149   6.444   1.943 -0.1575 -0.0526  0.0333
11576W        W27837   8.532  18.278  13.836  0.0313 -0.0804 -0.2314
11577W        W27838  15.639   8.644  11.551 -0.2600 -0.1136  0.2604
11578W        W27839  17.694  10.065  11.515  0.2259  0.1950 -0.1825
11579W        W27840  11.382   8.841   0.854 -0.1073  0.0594 -0.1878
11580W        W27841   2.694   0.765   4.296  0.4275  0.0235 -0.0324
11581W        W27842   2.238  15.333   5.201 -0.0159  0.1952 -0.4865
11582W        W27843   1.849   6.001  15.723 -0.3152  0.2012 -0.0117
11583W        W27844  17.255  12.990   0.826  0.6208 -0.0219 -0.0666
11584W        W27845   0.937  12.637  13.551 -0.2274  0.2966  0.0087
11585W        W27846  12.730  16.803   2.010  0.0835 -0.1829 -0.2564
11586W        W27847   4.319  18.374   5.990  0.2732 -0.0301  0.2058
11587W        W27848  16.720   3.406   4.946 -0.0886  0.2215 -0.3097
11588W        W27849   5.377   6.585   2.889 -0.1307 -0.1275 -0.1620
11589W        W27850  17.014  10.404   3.029  0.1140 -0.2111  0.3028
11590W        W27851   8.748   9.423   4.374 -0.3012 -0.0899 -0.2341
11591W        W27852  12.398   5.584  14.933 -0.1992 -0.0209 -0.0931
11592W        W27853   4.216   2.448   1.052  0.0565  0.0536 -0.0784
11593W        W27854  15.913   2.987   0.300 -0.0249  0.1088  0.0086
11594W        W27855  17.893  11.824   2.452 -0.4210  0.2745  0.0667
11595W        W27856   6.698   1.913  16.004 -0.0267  0.1495  0.0948
11596W        W27857   1.506  10.567   0.235  0.1992  0.4401 -0.1486
11597W        W27858  11.202   8.673  12.310  0.1295 -0.1624 -0.4727
11598W        W27859   3.905  14.997  14.846  0.0178  0.2559 -0.2825
11599W        W27860   1.197   6.716   3.933 -0.3481  0.0752 -0.0228
11600W        W27861   2.501   9.748   0.060 -0.1346 -0.0101 -0.1235
11601W        W27862   0.581   7.119   2.573 -0.0881  0.1082  0.2200
11602W        W27863  13.393  11.075  13.584  0.1982  0.1134  0.1338
11603W        W27864   5.545  17.846   3.121 -0.2371 -0.0211  0.0332
11604W        W27865  11.712  15.123   1.503  0.3272  0.2867 -0.0516
11605W        W27866   7.595  12.977  14.364 -0.2722 -0.0456 -0.0104
11606W        W27867   8.823   1.590   2.507 -0.3649 -0.0053  0.0821
11607W        W27868   8.005  14.665   4.128 -0.0101  0.2219 -0.3515
11608W        W27869   4.361   5.456   2.915  0.0269 -0.1108 -0.2662
11609W        W27870  16.015   8.237  14.289  0.3285 -0.1541  0.2371
11610W        W27871   4.347  17.697  15.740 -0.1160 -0.2440 -0.1746
11611W        W27872   8.545  12.369   5.151 -0.1793  0.1451  0.3402
11612W        W27873  17.807  12.358   6.094  0.0995 -0.1996  0.1977
11613W        W27874   4.515   9.824  13.250  0.3823 -0.1113  0.0422
11614W        W27875   5.281   1.577   2.934  0.0069 -0.0804 -0.0021
11615W        W27876  14.883   3.390  14.666  0.0853 -0.0749  0.1997
11616W        W27877   1.645  13.143   1.283  0.3004  0.2666 -0.0350
11617W        W27878  13.415   2.397  12.803 -0.1691  0.4756 -0.1731
11618W        W27879   6.491   6.834   2.467  0.0961 -0.1142 -0.1670
11619W        W27880   3.272   8.031   4.097 -0.0197  0.2067  0.1131
11620W        W27881   9.817  16.959  14.852 -0.2884  0.0142  0.0204
11621W        W27882   2.573   4.841   2.362  0.4482  0.0438 -0.1221
11622W        W27883  14.032   9.212   2.516  0.0343  0.2055  0.1629
11623W        W27884  12.457  12.723  15.789 -0.0495 -0.3900  0.0774
11624W        W27885   0.901  16.679   0.884  0.0508  0.3322 -0.1872
11625W        W27886  15.081   5.343  12.425  0.2083  0.3090 -0.1788
11626W        W27887   3.603  17.759  16.050 -0.1252  0.1024  0.1627
11627W        W27888  12.154   0.554  12.868  0.1097 -0.0203 -0.1355
11628W        W27889   5.219  18.253   0.665 -0.1974  0.1841 -0.1700
11629W        W27890   2.384  17.363   4.984  0.3725 -0.1537 -0.0667
11630W        W27891   5.843   7.605   0.162  0.0250  0.0740  0.1055
11631W        W27892  15.823  11.398   0.742  0.0704 -0.2897  0.2910
11632W        W27893   6.513   2.320  14.858  0.0493 -0.2843 -0.0240
11633W        W27894  17.837  17.784   1.502 -0.1040 -0.1467  0.1407
11634W        W27895  11.300   5.501  14.916  0.2938  0.0902  0.0095
11635W        W27896   6.523   8.120   3.849 -0.0542  0.2323  0.1265
11636W        W27897   1.203  13.072   0.128  0.0823 -0.1336  0.3104
11637W        W27898  16.892  13.584  11.633 -0.4270  0.2887  0.3690
11638W        W27899   5.150   4.266   3.827 -0.0340 -0.2781 -0.0104
11639W        W27900   8.595   8.468  15.343  0.3420 -0.1983  0.0200
11640W        W27901  17.202   6.511  10.536 -0.0593  0.1510  0.0194
11641W        W27902  10.718   9.831   2.820  0.0917  0.0638 -0.1188
11642W        W27903   2.674  13.193   2.618  0.3299  0.1536  0.0456
11643W        W27904  14.201  11.917   0.192 -0.0687  0.1417 -0.2019
11644W        W27905  17.187   6.719  14.572 -0.2638  0.0139  0.0652
11645W        W27906  15.475   1.332   5.153  0.1441 -0.2485 -0.1345
11646W        W27907   4.282   6.703   1.606 -0.0170  0.2070 -0.0943
11647W        W27908   0.705   6.907   5.779 -0.0750  0.1783 -0.1264
11648W        W27909  11.348   9.419  16.041 -0.1872 -0.1214  0.0829
11649W        W27910  15.312   2.357   1.303  0.0453  0.0599  0.0623
11650W        W27911  15.597  13.189   3.272  0.1370  0.1435 -0.2943
11651W        W27912   2.147   3.768   0.059  0.0829 -0.0244 -0.3498
11652W        W27913  17.569  18.036   0.102 -0.0726  0.0251  0.1971
11653W        W27914   4.777   9.453   0.305 -0.0229 -0.0316  0.1743
11654W        W27915  10.910  14.573  12.953 -0.0510 -0.0215 -0.2375
11655W        W27916   7.019  17.912   4.957  0.1213 -0.0215 -0.1044
11656W        W27917   6.616  15.797   0.323 -0.0128  0.2444  0.0687
11657W        W27918  16.243  12.957  16.281 -0.1959 -0.1792  0.4216
11658W        W27919   2.329  13.480   1.862 -0.1541  0.1301  0.2448
11659W        W27920  11.495  11.308   4.795 -0.2633 -0.2470 -0.0593
11660W        W27921   5.476   2.100  11.728 -0.0074 -0.0292  0.1254
11661W        W27922   8.447  14.657  14.473  0.2008  0.0233  0.0123
11662W        W27923   2.711  13.617   6.216 -0.3745 -0.0871  0.4138
11663W        W27924   9.296   9.607   4.704 -0.2164  0.0674  0.1077
11664W        W27925  12.904   5.237  13.441  0.2389 -0.1244  0.0927
11665W        W27926  14.033   8.830   4.815  0.1200 -0.0499 -0.0266
11666W        W27927   6.295  15.584  12.863 -0.0390  0.2471  0.0607
11667W        W27928   2.189   2.661   1.548  0.1359 -0.2123  0.1403
11668W        W27929  13.816   0.882   3.710  0.1750 -0.2837 -0.2596
11669W        W27930   8.901   3.377   0.188  0.0454 -0.0372  0.0368
11670W        W27931  11.373  16.314   4.265 -0.2355 -0.0979 -0.0518
11671W        W27932   9.906  13.516   2.660  0.2232  0.0046 -0.2086
11672W        W27933  12.273  17.833  11.874 -0.0655 -0.1967  0.0930
11673W        W27934   1.429   3.556   3.420 -0.1027  0.0718  0.1283
11674W        W27935   9.584   1.400   3.974  0.3202  0.1223 -0.0011
11675W        W27936   8.437   1.182   1.550  0.1305  0.0623 -0.0568
11676W        W27937  11.019   0.951   1.237 -0.1328 -0.2175  0.1476
11677W        W27938   5.726   0.072  14.406  0.1251  0.1236  0.0916
11678W        W27939  12.438  12.175  15.845  0.2334 -0.0985 -0.1328
11679W        W27940   4.133  14.012   0.017 -0.0330 -0.2559 -0.1119
11680W        W27941  17.104  12.129   2.989 -0.0745 -0.3484 -0.1613
11681W        W27942  17.290  16.833   3.982 -0.4061  0.2166 -0.0069
11682W        W27943  13.215  12.309   1.598 -0.0632 -0.0625 -0.1166
11683W        W27944   9.344   4.728   3.513  0.0265  0.0028  0.2419
11684W        W27945   8.831  13.267  11.824  0.1888 -0.0935  0.2418
11685W        W27946   9.476   1.150   5.480  0.1222  0.0102  0.4021
11686W        W27947   4.687   0.388   3.630  0.1269 -0.1442 -0.0616
11687W        W27948  12.605   3.918   0.161  0.0749 -0.2227 -0.0206
11688W        W27949  13.365   6.332   1.075 -0.0640 -0.1842  0.0859
11689W        W27950  15.477   7.506  13.597  0.2525  0.2674  0.1644
11690W        W27951  18.266   2.444   1.770 -0.2428  0.3055  0.2771
11691W        W27952   2.845  10.633  13.656  0.3177  0.1560 -0.0609
11692W        W27953  15.036   2.173   2.931  0.1490 -0.0770  0.4563
11693W        W27954   6.202  10.110   5.160 -0.0611 -0.1168  0.0038
11694W        W27955   7.973   2.466  11.462 -0.0909 -0.3259 -0.0526
11695W        W27956  11.637   3.805  12.481  0.3642 -0.1292  0.0432
11696W        W27957   2.275  12.857   4.412  0.0979  0.0203 -0.1168
11697W        W27958   9.746  16.416  14.496  0.2164 -0.3374 -0.1409
11698W        W27959  12.029   2.613   5.779  0.0640 -0.0250 -0.0574
11699W        W27960   5.371  13.351  15.240 -0.2773  0.1494 -0.0030
11700W        W27961  13.945  10.465  11.947 -0.0061 -0.1852  0.1298
11701W        W27962   6.576   3.316   4.698  0.1654 -0.0030  0.1572
11702W        W27963   8.335  13.695  13.370 -0.0900  0.0674 -0.4360
11703W        W27964  17.551  17.982  14.877  0.2142  0.2135 -0.0156
11704W        W27965   8.897  16.958   1.536  0.0742 -0.0935  0.1084
11705W        W27966   1.131   3.406   6.309 -0.0817 -0.0173 -0.1461
11706W        W27967  13.467  16.080  14.715 -0.1403 -0.0538 -0.1021
11707W        W27968   6.336  17.985   0.890  0.0800  0.0693  0.2783
11708W        W27969   3.170  14.731   2.195 -0.0837 -0.2484  0.1913
11709W        W27970   5.733  11.001  15.492 -0.1409  0.1445  0.0627
11710W        W27971   0.649   1.725  13.721 -0.0120 -0.0225  0.0577
11711W        W27972   7.701   7.984  11.050 -0.2370 -0.0016  0.1221
11712W        W27973   2.186  14.434  12.244  0.1087  0.1840 -0.0905
11713W        W27974   8.978   5.602   1.437 -0.0578  0.1123  0.4924
11714W        W27975  13.966  17.792   5.481 -0.0109 -0.1668  0.0954
11715W        W27976  15.338  16.240  14.491 -0.2637 -0.1488  0.1419
11716W        W27977  16.758  17.694   5.749  0.1744 -0.1540  0.0604
11717W        W27978   9.725   1.785   2.860 -0.2751 -0.1028 -0.0100
11718W        W27979  10.868  16.483  14.185 -0.2693 -0.1418  0.0843
11719W        W27980   8.029  12.646  14.132 -0.0865 -0.1895  0.0675
11720W        W27981  10.582   9.777   0.107 -0.5807  0.4808  0.0516
11721W        W27982   3.539  10.248   1.344  0.1027  0.2398 -0.0783
11722W        W27983  15.062   0.696  14.305 -0.0361 -0.2691 -0.1739
11723W        W27984  14.493   5.087   2.086  0.3039  0.3327 -0.1450
11724W        W27985   1.948  11.166  14.553 -0.0079 -0.3300 -0.0768
11725W        W27986  15.263   5.815   4.844 -0.0603 -0.0258 -0.0757
11726W        W27987   4.272   1.581  14.813 -0.0600  0.0486 -0.0486
11727W        W27988   7.689  10.402   2.642  0.0051  0.0725  0.2049
11728W        W27989   4.111   4.043  14.140  0.3230 -0.1454 -0.0085
11729W        W27990   2.607   7.776  15.465 -0.2248 -0.1488  0.0943
11730W        W27991  15.544   7.915  13.312  0.3429  0.2030  0.0037
11731W        W27992   4.500   4.578   4.319 -0.1663 -0.2967 -0.0031
11732W        W27993   0.434   9.210   2.538  0.1029  0.0176 -0.3010
11733W        W27994   2.210   7.712   2.632  0.1291 -0.0120  0.1126
11734W        W27995  13.655   3.096  14.190 -0.0723 -0.1210  0.2227
11735W        W27996  10.740  14.385  11.659 -0.0812  0.0733  0.2650
11736W        W27997   8.545   8.466  11.147 -0.0659  0.3098 -0.2052
11737W        W27998   2.140  15.885   5.176 -0.0089 -0.2085  0.1782
11738W        W27999   2.542   0.980   5.245  0.2644  0.3770 -0.1676
11739W        W28000   2.497   7.674   0.194 -0.3021  0.1747  0.3423
11740W        W28001  10.976   9.948  11.351  0.1149  0.0915  0.3138
11741W        W28002   3.543  17.804  14.689 -0.4665  0.2883  0.0848
11742W        W28003  11.388  11.630   1.175 -0.1394  0.1741 -0.0016
11743W        W28004  12.499   3.431  15.641  0.1458 -0.0656  0.3746
11744W        W28005  11.041   3.027   2.334  0.0495  0.1631  0.0177
11745W        W28006  10.003   5.698  12.417 -0.3562  0.2713  0.2495
11746W        W28007   2.560   6.400   4.270  0.0158  0.0440 -0.0381
11747W        W28008   4.857   6.634   2.790  0.1012  0.0240  0.0516
11748W        W28009  10.475  11.468   3.097  0.0814 -0.0384  0.1078
11749W        W28010   5.439   4.475   5.827 -0.1557  0.1789  0.0788
11750W        W28011  13.720  17.814   6.030 -0.4317 -0.0049  0.0071
11751W        W28012  14.367   6.196   4.833 -0.3063 -0.0357  0.3196
11752W        W28013  11.447   0.150   3.392  0.2019  0.1202  0.0859
11753W        W28014   4.885  17.388   0.112  0.0589  0.0700  0.2238
11754W        W28015  17.039   6.272   5.335 -0.1999 -0.3406  0.0959
11755W        W28016   5.038  12.511  12.406 -0.1644  0.1499 -0.0958
11756W        W28017  11.859  13.448  14.874 -0.2425 -0.1773 -0.0756
11757W        W28018  14.477   1.738  15.286  0.1961  0.0615 -0.0177
11758W        W28019  10.730   7.166  14.521  0.2782 -0.2125 -0.0714
11759W        W28020   9.370  10.644   6.125 -0.3405 -0.4469  0.0600
11760W        W28021   9.018   9.660   1.913  0.0992 -0.0995  0.0670
11761W        W28022   0.347  16.143   4.861  0.2375 -0.0247 -0.2253
11762W        W28023   8.622  11.791  13.269  0.1791 -0.1720 -0.1648
11763W        W28024  12.442  13.341  14.335 -0.1815  0.0233 -0.0819
11764W        W28025  10.370  17.778  15.261 -0.1160 -0.1700  0.3113
11765W        W28026  10.654   4.390   5.068 -0.0983  0.0277 -0.0830
11766W        W28027   1.327  18.301  12.716 -0.1390  0.0930  0.0801
11767W        W28028  14.922  10.146   3.809 -0.1375  0.0610  0.2392
11768W        W28029   6.093  13.854  14.559 -0.1728 -0.1826 -0.0972
11769W        W28030  12.536  11.977   4.318  0.0396  0.0062  0.1336
11770W        W28031   7.080   9.546  16.253  0.1279 -0.0518  0.3978
11771W        W28032   1.719   6.871   5.291  0.1834 -0.2195 -0.1673
11772W        W28033  11.763   7.576   1.171 -0.1511 -0.4782 -0.1591
11773W        W28034  13.991   8.938   5.927  0.2948 -0.1100  0.0364
11774W        W28035  11.248   9.595   2.602  0.1024  0.1510  0.1291
11775W        W28036  16.280   3.922   3.866 -0.0374 -0.1768 -0.1135
11776W        W28037   1.133  11.580  15.408 -0.1380  0.1014  0.2275
11777W        W28038   4.339  14.502   2.861  0.1078  0.1739 -0.0477
11778W        W28039  12.509  16.861  12.308 -0.3131  0.1474  0.0597
11779W        W28040   8.381  10.184  12.862  0.1208  0.3314  0.2053
11780W        W28041   8.864  13.696  11.175  0.1533  0.2557  0.1604
11781W        W28042  12.132  17.760  12.382 -0.0332  0.0197  0.0527
11782W        W28043   3.930  12.972  15.117 -0.4387  0.3302  0.4512
11783W        W28044   8.333   6.796  14.843 -0.0464  0.3968  0.1172
11784W        W28045   8.267   8.108  11.399  0.0337  0.1329 -0.1384
11785W        W28046  11.342  16.076  11.411 -0.2165 -0.4854  0.0485
11786W        W28047   6.436  12.518   2.192 -0.0109  0.1122  0.2363
11787W        W28048  10.819  13.378  13.821  0.0508 -0.1270 -0.0737
11788W        W28049   2.386   0.025   4.992 -0.2213  0.0317 -0.1680
11789W        W28050  15.136  11.179  11.908 -0.0643 -0.0881  0.1601
11790W        W28051   5.635   6.095  11.486  0.0680 -0.1793  0.0100
11791W        W28052  14.696  17.519   2.770 -0.1397  0.1818  0.2042
11792W        W28053  17.099  17.175   0.383 -0.2892 -0.3210 -0.0488
11793W        W28054  15.692   6.660   1.495 -0.0710 -0.3915  0.0802
11794W        W28055  14.575  10.957   3.271  0.2596 -0.1961  0.0551
11795W        W28056  16.744   0.017   5.189  0.1910  0.2612  0.1840
11796W        W28057   4.480   1.207   4.036  0.0913 -0.1144  0.1687
11797W        W28058  13.670  14.263  14.010  0.0763 -0.0798 -0.2562
11798W        W28059  17.753  10.442   1.690  0.1414  0.0440  0.1222
11799W        W28060  14.163   1.300  12.035  0.1661 -0.1953  0.2084
11800W        W28061   8.472  18.001   5.073  0.0868 -0.0392  0.1708
11801W        W28062  13.006   2.068   2.627  0.1305  0.1751  0.2373
11802W        W28063   7.548   8.458  10.738 -0.0326 -0.0744  0.0736
11803W        W28064   2.993   8.224   6.101  0.3765  0.1296  0.0662
11804W        W28065   5.885   7.230   3.070  0.0377  0.1230  0.1026
11805W        W28066  13.085   6.521  12.265 -0.1947  0.2664 -0.1868
11806W        W28067   4.477   5.534   5.380 -0.0810  0.1338 -0.0770
11807W        W28068  10.411  12.792  12.162  0.1426  0.1251 -0.0712
11808W        W28069  10.819   5.152  14.158  0.0353  0.2653 -0.2379
11809W        W28070   8.894   6.832   6.127  0.0990  0.0042 -0.4419
11810W        W28071   5.144  18.058   3.054  0.1962 -0.1270 -0.0644
11811W        W28072   0.258   7.229   1.596 -0.0284  0.1777  0.0717
11812W        W28073   7.818  14.238  14.652 -0.1290 -0.1265 -0.3010
11813W        W28074   1.331  14.961   5.306  0.3631  0.4286 -0.0493
11814W        W28075  17.620  13.889  14.631  0.3573  0.0547  0.4414
11815W        W28076   8.037  18.183  15.835 -0.1552 -0.0679 -0.1109
11816W        W28077   7.963   2.242   1.405  0.3546  0.0098  0.0485
11817W        W28078   1.818   2.258  12.855  0.1497 -0.1630  0.0572
11818W        W28079   2.754  13.697   0.789  0.0724  0.0668  0.1650
11819W        W28080  10.359   0.619  15.005  0.2881  0.1432  0.4330
11820W        W28081   4.257  14.671  11.669 -0.3649 -0.3034 -0.0229
11821W        W28082   9.220  17.335   5.170 -0.1156  0.2247 -0.0609
11822W        W28083   9.789  11.711   2.094  0.1736 -0.0358 -0.1653
11823W        W28084   5.063  15.367  15.445 -0.1461  0.0505 -0.1787
11824W        W28085  17.504   9.994  12.881  0.2254  0.0248 -0.0813
11825W        W28086  13.867   7.447   5.076  0.0222 -0.0748  0.1358
11826W        W28087  17.676   1.043  13.589 -0.0806  0.0100 -0.0271
11827W        W28088  11.264  14.918  14.665 -0.0329 -0.0445 -0.0689
11828W        W28089   2.921   5.606   5.939 -0.0673 -0.2754  0.1005
11829W        W28090   9.677   3.505   0.008  0.2117 -0.1690  0.0545
11830W        W28091   2.760  12.108  12.609  0.0180 -0.1574  0.3184
11831W        W28092  13.030  11.350  11.344  0.2079 -0.1378 -0.0200
11832W        W28093  18.183  16.371  12.175  0.1104  0.0898  0.1394
11833W        W28094  13.358   8.852   3.294 -0.3582 -0.2659 -0.3947
11834W        W28095   8.421  16.271  14.816  0.0066 -0.3969  0.1914
11835W        W28096  10.074  13.695  13.323  0.3126 -0.0128 -0.1324
11836W        W28097  14.283   4.077  12.986 -0.0189  0.0447 -0.0291
11837W        W28098  14.138   6.660   4.142 -0.1443 -0.2285  0.0844
11838W        W28099   1.432  10.627   2.318  0.0438  0.1663  0.0830
11839W        W28100  14.069  12.203  11.527  0.1237 -0.2057 -0.0890
11840W        W28101   8.950  10.272   2.608  0.0476  0.1015  0.1419
11841W        W28102  16.374  15.904  14.448 -0.0470  0.0946  0.1069
11842W        W28103  14.984  13.111   0.523 -0.1144  0.0940 -0.3579
11843W        W28104  10.596  11.788   5.178  0.0515  0.1299  0.1482
11844W        W28105   1.598   9.592   1.483 -0.3156  0.1341 -0.0717
11845W        W28106   4.203  11.699   0.366 -0.2073 -0.0308 -0.1080
11846W        W28107   9.318  14.556   2.947  0.1364 -0.2486 -0.0147
11847W        W28108   9.644   2.367  14.442  0.1861 -0.0088 -0.1588
11848W        W28109  10.235  13.116   3.964  0.0780  0.0805  0.0874
11849W        W28110  10.675   3.970   1.836  0.0571 -0.2720 -0.2868
11850W        W28111  17.467   4.023   0.078 -0.0642 -0.2434 -0.3828
11851W        W28112   3.812   2.176  15.527 -0.0838 -0.0503  0.0824
11852W        W28113  15.272  11.936   5.892  0.2678 -0.2553  0.0365
11853W        W28114  18.367   9.074   0.858 -0.3897  0.1160  0.0055
11854W        W28115  11.097  13.178   3.531  0.0534 -0.0952  0.1949
11855W        W28116  12.128   7.975  12.012  0.0904  0.1929  0.2087
11856W        W28117  11.469  13.389  11.530  0.1490  0.1565 -0.2078
11857W        W28118   8.496   6.606   3.909 -0.1964  0.4554  0.1084
11858W        W28119   1.615  15.258  14.358  0.0561 -0.0918  0.1939
11859W        W28120   1.085  10.118  12.606 -0.2844 -0.5009  0.0203
11860W        W28121   5.402  12.966   3.951 -0.0065  0.1261  0.0259
11861W        W28122  14.923   4.247  16.185 -0.3200 -0.0314  0.2023
11862W        W28123   5.845   4.984  11.956  0.0457  0.2121 -0.0677
11863W        W28124  15.505  12.541   4.810  0.0137  0.2861 -0.1255
11864W        W28125  18.369   0.369  12.390  0.0158  0.1748  0.0246
11865W        W28126   6.735  11.935  12.870  0.0716  0.2330 -0.3313
11866W        W28127  13.323  15.964   3.761 -0.1954  0.1171 -0.0813
11867W        W28128   8.931  10.216  14.618  0.3605 -0.2434 -0.0420
11868W        W28129  13.977   9.350   4.701 -0.1085 -0.0044  0.0287
11869W        W28130  15.692   4.169   2.220 -0.0864 -0.2068  0.0403
11870W        W28131  10.884  13.208  15.172  0.0871 -0.2434  0.1387
11871W        W28132   5.288  17.763   1.414  0.1866  0.0690  0.0250
11872W        W28133   3.521  10.046   0.846 -0.1545 -0.0225  0.1889
11873W        W28134  15.810  17.441  12.758 -0.2049  0.0019 -0.1247
11874W        W28135   3.523  10.505   0.370  0.0732  0.1703 -0.1768
11875W        W28136   2.363   1.428  15.893 -0.1829  0.0792 -0.2353
11876W        W28137   4.380   2.048  13.639 -0.2980 -0.0866  0.0292
11877W        W28138   2.117   8.203   6.228  0.1168 -0.2297 -0.0893
11878W        W28139  14.714  12.882   5.618 -0.0808 -0.2605  0.0486
11879W        W28140   5.949   8.593  16.099 -0.0614  0.0510  0.2842
11880W        W28141  11.094   7.043  12.045 -0.0477 -0.0993 -0.5066
11881W        W28142   9.650  16.728  13.109  0.0236  0.3411  0.0055
11882W        W28143   4.795   0.935   5.053 -0.0439  0.1616 -0.3264
11883W        W28144  14.392   0.310   6.313  0.0537  0.0461 -0.0611
11884W        W28145   0.072   5.990  14.374 -0.0939 -0.0424 -0.1577
11885W        W28146   0.481  16.645   0.540  0.0414  0.1201  0.0386
11886W        W28147   7.355   4.017  12.551  0.2282  0.3790  0.0629
11887W        W28148   4.400   8.835  14.397  0.3463  0.2377 -0.0089
11888W        W28149  15.213   7.369   0.544  0.1610  0.0536 -0.0185
11889W        W28150  13.022  13.032  13.334 -0.1714  0.1200 -0.2124
11890W        W28151  14.041   7.439  15.300  0.0131  0.2853 -0.2148
11891W        W28152   5.438   0.459  15.332 -0.2437  0.1227  0.2568
11892W        W28153   5.969  11.401  10.615 -0.1525 -0.0249  0.0252
11893W        W28154   3.902  11.570   4.409  0.0770 -0.0172  0.2384
11894W        W28155  10.943  15.263   0.300  0.4302 -0.0963  0.0594
11895W        W28156  17.243  17.337  13.149  0.1855 -0.2920  0.0806
11896W        W28157  10.875   9.465   3.741  0.2358 -0.0514  0.1120
11897W        W28158   6.652   9.502   3.817 -0.1246 -0.1852  0.1208
11898W        W28159  10.481  17.130  12.803 -0.0773 -0.1218 -0.3278
11899W        W28160  16.137  18.047  14.364  0.1449 -0.1338  0.1649
11900W        W28161  15.743  15.681  15.528  0.2344 -0.0852 -0.0013
11901W        W28162  12.740   9.098  10.901  0.0469  0.0332  0.1148
11902W        W28163   0.240  18.204   1.089  0.0577 -0.1182  0.2491
11903W        W28164   8.407   8.946   1.705 -0.0493  0.0165  0.0492
11904W        W28165   8.241  12.208   2.480 -0.0761 -0.1448 -0.0373
11905W        W28166   8.485   7.407   1.367  0.1412 -0.3808 -0.3381
11906W        W28167   1.107  15.571   3.192  0.1219 -0.0817  0.0661
11907W        W28168   5.627   0.220   0.835 -0.1097  0.0223 -0.0886
11908W        W28169   8.761   4.999  14.782 -0.1283 -0.0779  0.1683
11909W        W28170   0.669   1.092  11.796  0.3558 -0.0288 -0.1454
11910W        W28171  15.216   4.966  13.145 -0.3208  0.3019  0.1054
11911W        W28172   8.319   8.441   5.319 -0.1156  0.4538  0.1450
11912W        W28173   5.531  17.948   0.905  0.1969  0.3177 -0.0954
11913W        W28174   4.226   5.461  14.505  0.1285  0.0129  0.2091
11914W        W28175   3.766  12.271  13.278  0.1251  0.0267 -0.1355
11915W        W28176  17.905   8.968  10.881 -0.2442 -0.2412  0.2542
11916W        W28177   9.734   5.765  15.980  0.2034  0.1373  0.0589
11917W        W28178  12.848  15.147   2.009 -0.1111 -0.1474  0.0316
11918W        W28179   3.111  17.008  13.468 -0.1309 -0.0179  0.3918
11919W        W28180   6.427   5.832  11.122 -0.2806  0.2321 -0.2576
11920W        W28181   5.200   6.819   0.579 -0.1185 -0.5212 -0.0188
11921W        W28182  16.076  16.760  14.249 -0.3508  0.1402 -0.0178
11922W        W28183  14.306   9.738  15.717 -0.2078  0.1088 -0.0747
11923W        W28184  11.311  12.917  13.825 -0.2715 -0.0863  0.1289
11924W        W28185   6.034   6.272   3.841  0.3711  0.4528  0.2136
11925W        W28186   9.244   2.347  11.756 -0.0938  0.3000 -0.0745
11926W        W28187   5.742   1.361   2.724 -0.0305 -0.3521 -0.1154
11927W        W28188  15.755  12.731  11.520 -0.1071  0.0304 -0.1328
11928W        W28189  15.840  11.041   3.312  0.0225  0.0076  0.2980
11929W        W28190   9.832  13.836   0.276  0.2061 -0.0603  0.0805
11930W        W28191  12.820  15.930   4.820 -0.3073 -0.1426 -0.1992
11931W        W28192   1.776   9.345   0.478 -0.0114 -0.1362  0.1543
11932W        W28193   5.225   0.946   2.978  0.0647  0.3219 -0.1752
11933W        W28194   4.723  12.687   5.317 -0.1584 -0.1932 -0.1553
11934W        W28195   5.816  16.834  11.699  0.0686  0.1022  0.1588
11935W        W28196   1.491  13.407  12.257 -0.0333  0.0282 -0.1156
11936W        W28197  12.708   3.480   2.438  0.0873  0.2661  0.2066
11937W        W28198  18.112  15.278  15.525  0.1441 -0.0476  0.2963
11938W        W28199   3.136  12.642   3.613 -0.3353  0.2383  0.0265
11939W        W28200  13.689   7.857   4.901  0.1772 -0.0561  0.1484
11940W        W28201  10.782   4.607  12.833  0.0993  0.0128 -0.0931
11941W        W28202   4.282   0.579  14.239  0.2376 -0.0681  0.0515
11942W        W28203   1.662   3.072   2.685 -0.2908  0.0945 -0.0216
11943W        W28204   4.474  13.954   4.233 -0.0337  0.1384  0.1247
11944W        W28205  12.910  14.773  12.729  0.1038 -0.0328 -0.4986
11945W        W28206  11.556   5.787   1.454 -0.0495 -0.0724 -0.1298
11946W        W28207   2.487   6.478   5.213 -0.1989 -0.1822 -0.2204
11947W        W28208  11.141  15.105  14.266  0.0333  0.0551  0.1961
11948W        W28209   9.584  16.194  15.150 -0.1082  0.2590  0.0872
11949W        W28210  10.581   8.207  14.743 -0.0849  0.2228  0.1445
11950W        W28211   1.276  15.030  15.845 -0.2559  0.0438 -0.0627
11951W        W28212  10.826  18.311  13.015 -0.0882 -0.2423  0.1153
11952W        W28213   7.184  14.371   2.681 -0.0384 -0.1035 -0.0057
11953W        W28214   4.583   7.577   1.595  0.0793 -0.1141  0.0051
11954W        W28215  15.465   3.771  12.846 -0.2600  0.1443  0.3022
11955W        W28216   2.825  16.915  12.944 -0.2197  0.2177 -0.3300
11956W        W28217   5.703  11.796  11.432  0.1339 -0.0784 -0.1501
11957W        W28218   9.795   2.456   0.908 -0.0251  0.0980 -0.2028
11958W        W28219   2.637  11.924   3.899 -0.0570  0.0272 -0.2413
11959W        W28220  15.311   1.352  11.376  0.1410 -0.0771 -0.1863
11960W        W28221   5.123   5.650  15.535  0.1387  0.1296 -0.0161
11961W        W28222  10.924  11.246   4.531  0.1139  0.2265  0.0307
11962W        W28223  14.602  17.709  13.429 -0.2157  0.1109 -0.0967
11963W        W28224   6.991   9.866   1.543  0.3857  0.0309 -0.3363
11964W        W28225   5.906  14.147  15.268  0.1163  0.2314 -0.2245
11965W        W28226  14.180  10.937   1.344  0.3015  0.1203  0.1979
11966W        W28227   3.774   5.367  13.896  0.0081 -0.1839  0.0866
11967W        W28228   3.890   3.501   0.229 -0.2382 -0.1142 -0.0355
11968W        W28229   0.853   4.272   2.496  0.0559  0.0260  0.0650
11969W        W28230   4.123  10.206  15.534  0.2404 -0.0022  0.0573
11970W        W28231   2.837  16.008   6.141 -0.0372 -0.3062 -0.0394
11971W        W28232   1.906   4.911  15.061  0.0857  0.2009  0.2955
11972W        W28233  15.975  10.673  11.129 -0.2821  0.2241 -0.2090
11973W        W28234  12.228   3.625  13.862  0.1352 -0.2724  0.0512
11974W        W28235  10.333  13.010   0.905  0.0309 -0.0444  0.2842
11975W        W28236  13.402   5.051  11.412 -0.0298 -0.2500 -0.2941
11976W        W28237  10.718   6.413   3.610  0.1837  0.1953  0.2886
11977W        W28238   8.727   8.763  10.753  0.1664  0.1164  0.0866
11978W        W28239   2.144  10.365  13.780  0.1643 -0.1550 -0.3836
11979W        W28240  13.321  15.790   4.820  0.1177  0.1630 -0.0581
11980W        W28241  13.161  10.169   3.578 -0.1411  0.1509  0.0223
11981W        W28242  15.391   5.334  12.813  0.0621  0.1768  0.2754
11982W        W28243   3.811   2.423   4.463  0.0464  0.1871  0.1941
11983W        W28244   4.190  14.196  12.171 -0.0359 -0.0620 -0.1587
11984W        W28245  12.681  14.410  13.075  0.0381 -0.2143  0.2323
11985W        W28246  13.748  16.974  14.313  0.2258  0.0990  0.0703
11986W        W28247   0.848  18.077   0.220  0.3474  0.4671 -0.4261
11987W        W28248   8.120  12.224   0.820 -0.3099  0.0007 -0.0593
11988W        W28249  15.374  16.609  13.804  0.1962 -0.2783 -0.2485
11989W        W28250  17.487   8.415   3.212 -0.1587 -0.0425 -0.2935
11990W        W28251   7.842   7.800  14.323 -0.0588  0.0359 -0.2960
11991W        W28252  10.960  13.285  11.114  0.1080 -0.2352 -0.4547
11992W        W28253  11.914   4.668   4.820 -0.0680  0.1448  0.1470
11993W        W28254   4.061  17.212  12.352 -0.1104  0.0139 -0.1850
11994W        W28255   0.877  17.532   4.898 -0.1373  0.1093  0.2373
11995W        W28256   8.115  10.721  13.204 -0.5535  0.1320 -0.1511
11996W        W28257  14.642  17.101  16.088 -0.2624 -0.1405 -0.0602
11997W        W28258  12.940   9.128  15.715  0.2803  0.3136  0.0446
11998W        W28259   0.317  13.139   1.648 -0.1656  0.1478 -0.0388
11999W        W28260   2.512   4.875  15.590  0.1220 -0.0378  0.0564
12000W        W28261  17.885   5.600   3.771  0.1744  0.0666 -0.3903
12001W        W28262  15.836   4.104   5.314  0.2010 -0.1119 -0.0779
12002W        W28263   9.993   0.802  12.642 -0.0750 -0.1275 -0.0203
12003W        W28264   5.290   2.912  16.019 -0.0126 -0.3086  0.1026
12004W        W28265  16.887  14.366  13.011  0.1066 -0.1506 -0.1064
12005W        W28266   6.905   2.868   2.854  0.2357  0.1433 -0.1044
12006W        W28267   9.178   0.896  13.058 -0.1022  0.1431 -0.1727
12007W        W28268   3.335   7.067   3.887 -0.0854 -0.1457  0.0662
12008W        W28269   9.445   5.734  14.639 -0.1860  0.1502 -0.0871
12009W        W28270   0.771   8.622   3.643  0.0225  0.0681 -0.0492
12010W        W28271   7.450   2.704   3.679 -0.0085 -0.2720  0.0388
12011W        W28272  14.584  11.779   4.771  0.2220 -0.1481 -0.4075
12012W        W28273   0.055  13.631   3.775  0.0672  0.1580 -0.1115
12013W        W28274   5.671  11.929  15.921 -0.1468  0.1662  0.0256
12014W        W28275   2.350   7.503   0.730  0.1471 -0.0039  0.0741
12015W        W28276   3.777   2.356  12.084 -0.0177 -0.1159  0.2322
12016W        W28277   3.686   1.394  13.326  0.1158  0.0840 -0.0195
12017W        W28278  16.278  14.520   0.715  0.2968  0.2305  0.0611
12018W        W28279   1.321  14.399   2.620  0.1982 -0.1315 -0.2620
12019W        W28280   8.015  10.027   1.780  0.1249  0.3183  0.0511
12020W        W28281   0.422  12.840  12.521 -0.1883 -0.1558 -0.0902
12021W        W28282   4.680  11.197   3.944 -0.3101 -0.2152  0.0545
12022W        W28283   0.656  11.074   0.015 -0.0375 -0.2027  0.0940
12023W        W28284  12.544  15.475  16.004 -0.2870 -0.2912  0.4627
12024W        W28285   7.774   4.456  14.439 -0.0777 -0.4183  0.0926
12025W        W28286   6.328   5.620  13.204  0.1142 -0.2311  0.0721
12026W        W28287   5.971   5.939  10.999  0.0352 -0.0092 -0.0421
12027W        W28288   0.653  15.970  11.856 -0.2533  0.0510  0.3025
12028W        W28289  12.762   2.067  11.579 -0.1595 -0.2735  0.0203
12029W        W28290  15.865   9.074   2.393  0.1682  0.2272 -0.2102
12030W        W28291   9.717   3.634   2.316 -0.0445 -0.2731 -0.1015
12031W        W28292  17.849   3.259   3.688 -0.1032  0.1508  0.1990
12032W        W28293   3.316  14.544   5.263  0.0398 -0.0518  0.1772
12033W        W28294   0.607   2.353   1.787  0.0411 -0.1627 -0.0020
12034W        W28295   5.751   3.486   1.002 -0.0900 -0.2049 -0.3094
12035W        W28296   4.383   3.833   3.835 -0.1964  0.2267 -0.1975
12036W        W28297   9.205  14.787   0.193  0.0055 -0.1584  0.0129
12037W        W28298  17.380   0.345   5.839  0.3244 -0.1169 -0.0798
12038W        W28299  18.100   1.326   5.864  0.0198 -0.0151  0.2298
12039W        W28300   6.858  12.868  11.265  0.3492 -0.0113 -0.2050
12040W        W28301   6.767   6.870   4.935  0.2284 -0.5505  0.2853
12041W        W28302   1.313   3.208  12.104  0.0805 -0.5074  0.2019
12042W        W28303  12.523   5.431   3.972 -0.4145  0.1779 -0.4098
12043W        W28304   2.902  14.037  11.811 -0.3000 -0.0922  0.2079
12044W        W28305   6.674   0.824  10.848 -0.1012 -0.0718 -0.1409
12045W        W28306  10.960   5.168  15.724 -0.1279  0.2083  0.1840
12046W        W28307   6.528  14.945   2.362 -0.0025 -0.0703 -0.2750
12047W        W28308   0.489   5.989  11.571  0.1785 -0.2206 -0.0782
12048W        W28309  11.400  13.435   1.350 -0.3603 -0.0081  0.1787
12049W        W28310  12.155  10.853  11.469  0.1042  0.2209  0.2708
12050W        W28311   1.096   5.924   1.057 -0.1062  0.4129  0.3114
12051W        W28312   9.792   4.171  14.059  0.1051 -0.2277 -0.2038
12052W        W28313   1.442  11.794   2.057 -0.1883  0.0297 -0.1802
12053W        W28314  16.216   4.775   5.933  0.0139 -0.3963 -0.1518
12054W        W28315   2.087  14.095   0.149  0.0895 -0.0270 -0.2837
12055W        W28316  15.078  10.109   5.239  0.1796 -0.1071  0.1183
12056W        W28317   0.612   1.631  14.737  0.1378 -0.1713  0.3353
12057W        W28318   4.061   3.569   2.539 -0.0478  0.0527  0.0134
12058W        W28319  12.750   1.302   3.309  0.0445 -0.1337 -0.1054
12059W        W28320  12.789   9.768   1.348  0.3539  0.0502 -0.3119
12060W        W28321  10.033   3.071  11.256  0.0763 -0.0438  0.1424
12061W        W28322   0.427   9.885  13.202  0.2287  0.2050 -0.0615
12062W        W28323  17.142  11.244  11.130  0.1026 -0.0059  0.2797
12063W        W28324   4.880   0.963  11.843 -0.1425 -0.1038  0.3517
12064W        W28325  16.145   5.157  14.610  0.0972  0.1052  0.4522
12065W        W28326  14.963  15.006  15.841 -0.0895 -0.0902 -0.1346
12066W        W28327  16.911   9.909  13.906 -0.0388 -0.0610 -0.2755
12067W        W28328  13.301   6.040   1.516 -0.1022  0.0286  0.2090
12068W        W28329  10.405   5.602   4.014  0.4819  0.3806 -0.1752
12069W        W28330   1.696  16.323   5.192 -0.2397 -0.2097  0.1488
12070W        W28331   3.603  18.365   4.700 -0.0921  0.2299 -0.1126
12071W        W28332   5.421   5.664   0.317  0.0865  0.2854 -0.0833
12072W        W28333  13.948   3.140  11.909  0.2276  0.2432  0.0983
12073W        W28334  17.773  16.877  13.780 -0.0984  0.2460  0.0029
12074W        W28335   1.455  11.696  13.881  0.0068  0.0214 -0.2475
12075W        W28336  16.025  17.817  15.007 -0.1969 -0.1396  0.0178
12076W        W28337   9.406  10.714   0.490 -0.0877 -0.1970 -0.1712
12077W        W28338   4.752  17.215   1.891 -0.0551 -0.0716  0.0287
12078W        W28339  13.974   8.168  13.230 -0.0768 -0.1987  0.1016
12079W        W28340   2.307  10.687   5.489 -0.4684 -0.0802 -0.1042
12080W        W28341  12.141   6.745   3.506 -0.3912 -0.0617  0.1371
12081W        W28342   0.673  11.723  15.216  0.1184 -0.1938 -0.0313
12082W        W28343   4.479   6.199  14.053  0.1139 -0.0270 -0.1670
12083W        W28344  16.397   7.254  14.747 -0.0950  0.0401 -0.0633
12084W        W28345   3.858  11.025   5.680 -0.0559 -0.0721 -0.0446
12085W        W28346  11.584  16.719  10.110 -0.1321  0.0217 -0.0115
12086W        W28347   9.247   3.473  11.588  0.0488  0.0546 -0.2439
12087W        W28348   9.151  10.679  14.802  0.2120 -0.3467  0.2192
12088W        W28349   4.338  10.703  12.464 -0.2238 -0.0224  0.1894
12089W        W28350   5.601  17.052   0.305 -0.0857 -0.2527 -0.1027
12090W        W28351   3.339   0.937   4.579 -0.0660 -0.0517 -0.1334
12091W        W28352  14.998   4.542   5.307  0.0481 -0.0845  0.2063
12092W        W28353   5.270   1.136  12.198 -0.0559 -0.0253 -0.1777
12093W        W28354   5.414  12.329  13.417  0.2161 -0.1389 -0.2329
12094W        W28355  12.223  10.079  10.727 -0.2643 -0.0272 -0.2268
12095W        W28356   4.946   9.464   3.364 -0.3000 -0.4704  0.0541
12096W        W28357  15.605   4.890   6.112  0.3156 -0.0996 -0.1385
12097W        W28358  18.255  15.837   3.681 -0.2531 -0.1154 -0.2840
12098W        W28359   9.718  17.055   1.802  0.3617 -0.2424  0.0781
12099W        W28360  12.587  13.908   5.425  0.1950 -0.0185 -0.0405
12100W        W28361  11.074   5.167  10.956 -0.0467 -0.0621  0.1043
12101W        W28362   2.900   6.679  16.183  0.3144 -0.0874  0.0215
12102W        W28363   6.807   0.325   1.062 -0.0165  0.0142 -0.2524
12103W        W28364   9.381  16.909  11.480 -0.2989 -0.0343 -0.0541
12104W        W28365   7.216   6.502   1.043  0.4360 -0.1778 -0.1914
12105W        W28366   3.222   1.652  15.648 -0.2345 -0.1578 -0.2223
12106W        W28367   6.568   7.518   4.824  0.1809 -0.1522 -0.1620
12107W        W28368   2.952   6.606   3.896  0.2548  0.0097 -0.3009
12108W        W28369  16.024   1.893  15.546  0.0216  0.0262 -0.1988
12109W        W28370  15.090   1.455  10.850  0.2951 -0.1368  0.0618
12110W        W28371   1.107   5.461  15.178  0.0217  0.1269 -0.0305
12111W        W28372   9.637  13.697   3.088  0.1907  0.2106  0.1585
12112W        W28373  12.088   7.885   0.680 -0.1218 -0.1179 -0.3130
12113W        W28374   6.039   5.022   5.227 -0.2615  0.1166 -0.1089
12114W        W28375  12.414  18.239   1.333  0.1385 -0.1065  0.1544
12115W        W28376  18.011  18.242  12.488  0.2009 -0.0070  0.1075
12116W        W28377  11.479   4.823   2.355 -0.1284  0.2136  0.1248
12117W        W28378   6.961   4.442   2.556  0.0940  0.1925 -0.0730
12118W        W28379  10.306  14.044   5.219  0.0079 -0.0104  0.2272
12119W        W28380  13.836  14.129   0.229  0.0403 -0.0278  0.1205
12120W        W28381   7.389   1.944  16.086  0.3417 -0.1178 -0.0537
12121W        W28382  13.693  13.083   4.948 -0.2383 -0.0594 -0.1611
12122W        W28383  12.985  10.757   2.661 -0.2972  0.0433 -0.3609
12123W        W28384   9.108  16.949   0.435 -0.0249 -0.1327 -0.0208
12124W        W28385   9.280   3.269  16.177  0.4074 -0.0470 -0.1891
12125W        W28386   6.906   2.525  13.857  0.0316 -0.0280  0.1324
12126W        W28387   3.306  13.047   3.778 -0.0826  0.0995 -0.0445
12127W        W28388  16.932   7.800  15.452 -0.0638  0.0275  0.0853
12128W        W28389   7.158  16.403   4.670 -0.1946 -0.0363 -0.0203
12129W        W28390  10.630  13.624   5.197  0.0622 -0.2444  0.0745
12130W        W28391  17.134  14.021   3.483  0.0470 -0.1236 -0.0525
12131W        W28392  11.447  13.356  13.648  0.1997 -0.2192  0.0084
12132W        W28393  10.128   5.288  11.295  0.1868  0.2170  0.1010
12133W        W28394   8.091   4.704  15.739 -0.3804  0.0866  0.1797
12134W        W28395   8.028  16.326   1.149  0.0365 -0.4617 -0.0390
12135W        W28396   5.125   9.823   2.630 -0.0239 -0.0666 -0.1357
12136W        W28397   6.783   7.721  11.820  0.0009  0.0007  0.1941
12137W        W28398   3.193  11.113   1.686  0.1024  0.1000 -0.0235
12138W        W28399   4.944   2.534   4.754  0.3770 -0.0211 -0.0661
12139W        W28400   6.701  13.604  15.028  0.0626 -0.2676  0.0207
12140W        W28401  11.504   8.353   3.226  0.2892 -0.0516  0.0803
12141W        W28402  12.018   6.619  12.266  0.0717 -0.1346  0.1261
12142W        W28403  13.518  12.347   2.758 -0.2598  0.0244  0.0344
12143W        W28404   8.103   3.583   5.631 -0.0221 -0.1457 -0.1607
12144W        W28405  15.285   5.394   5.304 -0.2260  0.0879 -0.1885
12145W        W28406   3.091   0.044   4.391 -0.2215 -0.0448  0.1121
12146W        W28407   1.137   3.155   4.327  0.0891  0.1306 -0.0530
12147W        W28408   6.284   6.291   3.340 -0.3205 -0.0673 -0.0323
12148W        W28409   2.053  18.215  11.743  0.0462  0.0129  0.1809
12149W        W28410   0.249   5.904   4.779  0.0371  0.0257  0.0479
12150W        W28411   6.053  17.153  16.188 -0.0831 -0.3161  0.0442
12151W        W28412  15.433   8.421  13.249 -0.1692  0.0526 -0.1118
12152W        W28413  14.163  10.005  13.263 -0.2447  0.1648  0.0370
12153W        W28414  13.339   5.047  16.144 -0.1288  0.3087  0.0156
12154W        W28415   4.625  15.883   2.393  0.0671 -0.1726 -0.1027
12155W        W28416  11.381   2.578   3.258  0.0066  0.0619 -0.1833
12156W        W28417   7.135   4.879  11.528  0.3765 -0.0943  0.1662
12157W        W28418  17.425   3.940   4.328  0.0794 -0.1506 -0.0231
12158W        W28419   5.726   0.836   5.072  0.0842  0.1210 -0.2583
12159W        W28420   3.348  13.107  14.524  0.3056 -0.0688  0.2894
12160W        W28421   1.523   6.827  15.393  0.3507  0.0491 -0.2093
12161W        W28422   6.820  16.028   5.241 -0.0216 -0.0479  0.0327
12162W        W28423   2.343  15.935  14.376 -0.0401  0.0130  0.0367
12163W        W28424   4.739   0.628   0.824  0.2637 -0.0155  0.0884
12164W        W28425   3.558   0.305  13.483  0.2214 -0.1537  0.0202
12165W        W28426   6.928   6.698  10.882 -0.3144 -0.0019  0.0762
12166W        W28427   0.004  15.721  14.274 -0.0520  0.2122  0.1147
12167W        W28428   0.571  10.973   3.543 -0.1411 -0.2656 -0.1532
12168W        W28429  13.914   7.159   4.170 -0.0396 -0.0588  0.1903
12169W        W28430  14.193   0.373  12.081  0.4483 -0.0802  0.0339
12170W        W28431  10.624   1.001   1.509 -0.1651 -0.1108  0.2823
12171W        W28432   2.210  17.924   0.294 -0.2248 -0.0733  0.1161
12172W        W28433   6.587   1.709  13.172 -0.3874  0.3958 -0.0222
12173W        W28434   6.797   6.381   4.636 -0.0322 -0.1020 -0.1238
12174W        W28435  17.767   0.686  13.961 -0.0822  0.1813 -0.0803
12175W        W28436  15.575  17.974   4.932 -0.0591  0.0264  0.1344
12176W        W28437  18.016   1.103   1.567 -0.2007 -0.2162  0.0649
12177W        W28438   3.856  16.714   3.624 -0.0868  0.5298  0.2377
12178W        W28439  15.158   7.264  13.943 -0.3248 -0.1292  0.0720
12179W        W28440   8.059  14.923  12.573  0.1633 -0.2141 -0.1398
12180W        W28441   9.104  14.904  15.843  0.1039 -0.1332 -0.0561
12181W        W28442   6.478  15.696   4.906  0.3630 -0.0606 -0.0286
12182W        W28443   3.554  14.365   5.676  0.1953  0.1986  0.1391
12183W        W28444  12.302  11.921   5.755 -0.0110  0.0889 -0.2523
12184W        W28445   1.256   3.254   5.811 -0.1887  0.5054 -0.0505
12185W        W28446  15.944  17.543  14.531  0.1214  0.0892  0.0731
12186W        W28447   1.034  11.120  14.046  0.4105  0.0219  0.3358
12187W        W28448   0.486   6.911  11.493  0.0282  0.1369  0.1724
12188W        W28449   3.394  14.667   4.760  0.2688 -0.2778 -0.2965
12189W        W28450   9.278   8.265  14.926  0.0277 -0.1714 -0.3879
12190W        W28451  10.913  18.028   5.583  0.3308  0.1880  0.2411
12191W        W28452  17.184   2.656   6.017  0.0199 -0.0183  0.0336
12192W        W28453  14.402  15.159  14.767  0.0734  0.1377 -0.2896
12193W        W28454  13.209   9.464  13.534  0.1629 -0.1037 -0.0715
12194W        W28455   8.293  13.072  14.109 -0.2016  0.1478  0.0032
12195W        W28456  10.232   7.241  15.493  0.3010 -0.2712  0.3461
12196W        W28457   6.647   1.888  14.630  0.1211  0.0326 -0.2098
12197W        W28458   8.883   1.305   0.662  0.0673 -0.1687  0.3148
12198W        W28459   3.952   6.911  15.486 -0.0087 -0.1983  0.2085
12199W        W28460   8.792  11.831   3.722 -0.0155 -0.0530 -0.0567
12200W        W28461  15.123  16.246  15.393  0.2550 -0.3791  0.0379
12201W        W28462  14.632   8.664   1.604  0.1010 -0.3713  0.0609
12202W        W28463   2.625   7.579  11.304 -0.3577  0.1499 -0.1619
12203W        W28464  16.595   6.102   1.330  0.4586  0.0265  0.1481
12204W        W28465   6.060   6.755  16.111 -0.2742  0.0482  0.1076
12205W        W28466  10.951  17.560  13.966 -0.2170 -0.0566  0.2907
12206W        W28467   8.259   4.594  14.759 -0.1881 -0.4287 -0.1030
12207W        W28468   7.805   5.706  11.702  0.1939  0.0099  0.1363
12208W        W28469  13.143   5.244  12.999  0.0727  0.2450 -0.0942
12209W        W28470   9.237   2.112   5.682  0.1669 -0.1717  0.1970
12210W        W28471   1.746   5.889   2.781  0.4703 -0.2951  0.2220
12211W        W28472   8.269   8.151  14.482  0.0849  0.1612 -0.1119
12212W        W28473   9.987  15.114   2.029  0.4078  0.3161 -0.0150
12213W        W28474   3.810  18.337   3.266 -0.1650  0.0554 -0.0249
12214W        W28475   6.486  10.637   5.056 -0.0774  0.3579 -0.3306
12215W        W28476   4.959   9.664   5.268  0.0894 -0.1092 -0.0640
12216W        W28477  16.832   0.571   4.104  0.1278 -0.5357 -0.0499
12217W        W28478   9.967  10.877   2.500  0.1376  0.2646 -0.0933
12218W        W28479   1.534   6.235   2.443  0.0377 -0.2016 -0.0327
12219W        W28480  15.900   8.618  16.075 -0.0505  0.0035  0.3303
12220W        W28481   7.661   2.920   0.821  0.0746 -0.3499  0.4582
12221W        W28482   1.618   1.907   5.797 -0.0811  0.1612 -0.1460
12222W        W28483   1.690  11.265   1.857  0.0609 -0.3992  0.0184
12223W        W28484   0.339   9.312   3.409 -0.2261  0.1771  0.0261
12224W        W28485   2.006   8.996   2.144  0.3986  0.1874 -0.0679
12225W        W28486  16.326   4.464   2.547  0.3419  0.1274 -0.0292
12226W        W28487  11.415   0.230   0.424 -0.2194  0.0766 -0.3167
12227W        W28488  14.248  10.500  11.321  0.2199  0.0805  0.0982
12228W        W28489  12.491   5.039  15.613 -0.0125  0.0820  0.1110
12229W        W28490   5.155   7.069   2.964 -0.0535 -0.2467 -0.3491
12230W        W28491  17.376   5.877   2.075 -0.0064 -0.0518 -0.0276
12231W        W28492   4.606   0.250  14.745  0.3361  0.2412 -0.0314
12232W        W28493   0.133  15.977  12.168 -0.0870  0.0040 -0.1040
12233W        W28494   4.055   2.044   4.837 -0.1780  0.5222  0.0752
12234W        W28495  15.741   9.375  14.499 -0.0064  0.1356 -0.2874
12235W        W28496  14.919  16.467  11.877 -0.0944  0.1224 -0.0554
12236W        W28497   5.264   2.972  11.971 -0.3958 -0.7226 -0.1264
12237W        W28498   6.967  15.688  11.261  0.0635  0.0090 -0.2647
12238W        W28499   4.974   0.132   2.424 -0.1985 -0.2435 -0.0335
12239W        W28500   4.816   3.161  12.566 -0.2407 -0.4061 -0.0147
12240W        W28501  13.637   9.186  10.910  0.2914  0.0036  0.0185
12241W        W28502   0.296  17.830   5.744 -0.1053 -0.1953  0.1724
12242W        W28503   8.781   9.367  11.379 -0.0018  0.0078 -0.1567
12243W        W28504   3.698  16.263  14.186 -0.1102  0.0367 -0.3776
12244W        W28505   6.544   6.013  12.564 -0.3806 -0.1754 -0.2858
12245W        W28506   7.990  12.657   4.895  0.0333  0.1924 -0.1014
12246W        W28507   2.393  11.613   4.510  0.1964  0.1106 -0.2997
12247W        W28508   7.496   7.641   0.323 -0.2342  0.1569  0.0905
12248W        W28509   3.495   3.009  13.322  0.0452 -0.0326  0.3604
12249W        W28510   5.840  17.440  14.868  0.1220  0.0542 -0.2371
12250W        W28511  12.894   6.945  12.417  0.0326  0.0622 -0.3652
12251W        W28512  12.451   6.678   3.896  0.2165 -0.1777 -0.1055
12252W        W28513  13.450  14.966   2.837 -0.0434  0.1551  0.1032
12253W        W28514  17.851   2.747   1.614  0.0465  0.1543  0.0900
12254W        W28515   6.906  11.259   3.585  0.0215  0.2649 -0.2517
12255W        W28516   7.903   2.238  14.570 -0.0614 -0.1788 -0.1922
12256W        W28517   4.730   9.503   4.332  0.2016 -0.3122  0.0965
12257W        W28518   1.013  17.063   5.164 -0.0236 -0.1194 -0.0730
12258W        W28519   8.339   2.114  11.548  0.3865 -0.0257  0.0543
12259W        W28520   7.709  16.535  15.506 -0.0044  0.0456 -0.0844
12260W        W28521   8.282   7.521   4.393 -0.0596  0.0932 -0.0271
12261W        W28522  16.049  10.515  12.656 -0.0804 -0.0284 -0.4811
12262W        W28523   5.655   7.502  12.072  0.0323  0.0565  0.0375
12263W        W28524  17.747   3.425   2.546  0.0283  0.0419 -0.0874
12264W        W28525  15.889  11.491   3.626 -0.3427  0.3042 -0.4448
12265W        W28526   3.842  15.843  13.414 -0.0220 -0.1095 -0.1186
12266W        W28527   5.906   8.337  10.966 -0.0310 -0.2405 -0.3442
12267W        W28528   9.991  17.984  12.777 -0.0579  0.0826 -0.0827
12268W        W28529  18.130  15.998  13.687 -0.0158 -0.1278 -0.0284
12269W        W28530   3.780  15.597  16.186 -0.1236 -0.3429  0.0777
12270W        W28531   6.358   8.768  11.404  0.1528  0.1312  0.3322
12271W        W28532  15.474  11.340   1.123 -0.2024  0.1491 -0.1481
12272W        W28533   4.114   1.194   3.103 -0.0455  0.1195 -0.1897
12273W        W28534   0.047  15.569  12.440 -0.5887  0.3441 -0.2311
12274W        W28535   7.019  16.495  11.775  0.2209 -0.2518 -0.0798
12275W        W28536   3.899  17.784   2.416  0.0173  0.0106 -0.2534
12276W        W28537  17.366  10.124   4.867  0.1845  0.2261  0.1519
12277W        W28538  11.360   1.656   3.565  0.0008 -0.0510 -0.0964
12278W        W28539  14.079  16.330   4.169  0.3034 -0.0934 -0.0268
12279W        W28540  11.365   8.862   3.419  0.0836 -0.1377 -0.0667
12280W        W28541   8.627   7.212  14.503  0.0851  0.0248 -0.0107
12281W        W28542   4.222  12.790   2.871 -0.1453 -0.0467  0.1419
12282W        W28543   5.259  18.140   3.988  0.0391  0.2844  0.3517
12283W        W28544  17.387  15.738  14.831 -0.2338 -0.1666  0.0174
12284W        W28545  15.549  15.435   3.793  0.0138 -0.2885  0.0231
12285W        W28546  10.705   5.655  15.140 -0.2482 -0.2394  0.1264
12286W        W28547   9.412   5.559  15.477 -0.1301  0.0262 -0.1224
12287W        W28548   5.556  12.060   3.987  0.1639 -0.1398 -0.1031
12288W        W28549   1.255   2.315  14.774  0.1694  0.0790 -0.0940
12289W        W28550  10.196  12.601  15.387  0.0180 -0.0310 -0.0060
12290W        W28551   1.775  14.111  12.366 -0.1947 -0.0515  0.1594
12291W        W28552   3.531  17.843  12.672  0.1160 -0.0616 -0.1128
12292W        W28553   3.082   2.539   3.466 -0.1239  0.2161 -0.2284
12293W        W28554  10.094  17.061  11.812 -0.3508  0.0956  0.0060
12294W        W28555  11.599   7.359  16.299 -0.1983 -0.4115  0.0227
12295W        W28556   9.414  16.003   5.296  0.0919 -0.1984 -0.1219
12296W        W28557  10.141  15.981   2.150 -0.0171 -0.4444 -0.2053
12297W        W28558   6.637  15.315   4.409 -0.0213  0.1444 -0.1065
12298W        W28559   4.395  12.363   0.602 -0.0144 -0.1301  0.1686
12299W        W28560   0.481  16.531   1.949 -0.0187  0.2617 -0.0149
12300W        W28561   8.019   1.439   1.392  0.1182 -0.0416  0.0510
12301W        W28562  11.785   0.366   0.700 -0.0049  0.0060 -0.1476
12302W        W28563  15.232   2.860  13.943  0.1507  0.0383 -0.1432
12303W        W28564  16.103   2.319  14.824 -0.3766  0.1541 -0.0889
12304W        W28565   4.409   4.566   1.417 -0.2138 -0.1329  0.1189
12305W        W28566   3.860   3.527   5.101 -0.2950  0.1898 -0.2893
12306W        W28567  12.613  10.261   1.240  0.1853 -0.0667 -0.0747
12307W        W28568  18.120   3.575  14.427 -0.2186 -0.0835 -0.1150
12308W        W28569  11.519  10.330   1.637 -0.1789  0.1108 -0.1378
12309W        W28570  12.663   1.786   6.353 -0.1716 -0.1394 -0.0750
12310W        W28571  15.706   0.864  13.570 -0.0498  0.1857  0.0905
12311W        W28572  14.534  12.299   1.765 -0.3749 -0.0695  0.1727
12312W        W28573  12.915  11.996   4.746  0.1288  0.1687  0.0009
12313W        W28574   6.194   4.659   2.807  0.5446 -0.1982  0.1109
12314W        W28575   3.642   1.046  14.866 -0.0032  0.1563  0.1692
12315W        W28576   6.910  10.415   3.950  0.0291  0.1143  0.1417
12316W        W28577   5.309  14.470   5.036  0.1420  0.5200 -0.2427
12317W        W28578  12.887  11.840  11.175 -0.1030 -0.2161 -0.0170
12318W        W28579   5.321  11.106  12.709  0.1593  0.0801  0.1312
12319W        W28580  11.768   2.677  15.125  0.1870  0.2160 -0.0608
12320W        W28581   5.381   3.474   2.655 -0.2534 -0.2159  0.0254
12321W        W28582   9.779   4.225   4.278 -0.0714 -0.2300  0.2084
12322W        W28583   3.789  14.680  11.380  0.0362  0.1942 -0.0000
12323W        W28584   5.368  13.125  11.005  0.1927 -0.1612 -0.0329
12324W        W28585   1.114   3.621  10.942  0.1504  0.2511 -0.1946
12325W        W28586  16.060  11.949  11.523  0.0698 -0.2249 -0.1145
12326W        W28587   7.809   5.390  11.315 -0.2126 -0.2326  0.1175
12327W        W28588  14.348   1.686   4.800 -0.0481 -0.3414 -0.1165
12328W        W28589   6.590  11.420   5.448  0.3027  0.0922 -0.1046
12329W        W28590   5.124   7.422   2.583 -0.0133  0.0851 -0.2037
12330W        W28591  17.992   1.569  12.401  0.0985  0.1008  0.1812
12331W        W28592  12.857  10.054  14.095  0.0466 -0.1265 -0.0129
12332W        W28593  16.612  14.783   5.581  0.2420  0.0788 -0.0410
12333W        W28594   3.108   7.573  14.743 -0.0312 -0.0528 -0.3731
12334W        W28595  14.649   3.268  15.793 -0.3736  0.3364 -0.0064
12335W        W28596   6.383   7.374   1.120 -0.3864 -0.1666 -0.1040
12336W        W28597   1.879  10.622  15.404  0.1913 -0.1492  0.0451
12337W        W28598   4.885  14.324   2.774 -0.2883  0.0113 -0.0747
12338W        W28599   2.634   8.340   4.017 -0.1639  0.2305 -0.3275
12339W        W28600   0.121  12.374  13.079 -0.0910 -0.1172 -0.1861
12340W        W28601   6.192   5.894   4.283 -0.1762 -0.0609  0.0844
12341W        W28602  12.481   4.766   0.706 -0.1423  0.1833  0.0757
12342W        W28603   9.591  10.384  14.866  0.2845 -0.2207 -0.1944
12343W        W28604  17.313  11.398  16.192  0.0140 -0.0941  0.1301
12344W        W28605   7.160  14.680  14.315  0.2334 -0.0113  0.1128
12345W        W28606   3.484  15.868   3.316 -0.1640 -0.1824  0.2194
12346W        W28607  11.545   1.324  11.554  0.0353 -0.1180  0.2180
12347W        W28608  12.422  11.439   3.134  0.0468  0.0494  0.0849
12348W        W28609  12.485  10.435  12.837 -0.2870  0.3007  0.3309
12349W        W28610  17.726  17.307   1.668  0.1860 -0.1099 -0.0952
12350W        W28611   4.170  10.682   1.133 -0.3937  0.0522 -0.3328
12351W        W28612  12.770   6.774  14.357  0.3465 -0.1011  0.2609
12352W        W28613  15.813  18.139   0.500  0.1977 -0.0458 -0.2436
12353W        W28614   9.629   7.292   1.007 -0.0454 -0.0122 -0.3737
12354W        W28615   1.447  17.726  12.121 -0.1341 -0.1938 -0.0422
12355W        W28616   7.773   1.144  14.556 -0.0682 -0.1304 -0.0349
12356W        W28617   4.000  12.323   4.859  0.0314  0.0623  0.2911
12357W        W28618  17.700   5.700  11.066  0.1322 -0.0380  0.0809
12358W        W28619  11.106  13.356   4.785 -0.3076 -0.2368  0.0158
12359W        W28620   9.404   6.535   0.738  0.0743  0.1407 -0.2899
12360W        W28621   8.028   2.477  13.783 -0.0521 -0.0540 -0.4897
12361W        W28622  12.655  14.474   4.754 -0.0188 -0.2271  0.0696
12362W        W28623  12.629   6.690   1.027 -0.0416  0.1600 -0.2311
12363W        W28624  14.793   3.545  16.193 -0.1347 -0.1152 -0.5813
12364W        W28625  11.329  12.363  13.862  0.0406 -0.1230  0.1642
12365W        W28626   4.622  10.002   2.660 -0.1009  0.0855 -0.0434
12366W        W28627   1.034   5.905  12.322  0.2185 -0.0976 -0.0302
12367W        W28628   4.950   8.944   0.174 -0.3150  0.2533  0.0177
12368W        W28629   7.358   4.140   5.418  0.0887 -0.3601 -0.3988
12369W        W28630   9.862   9.957   0.601 -0.2832  0.0484 -0.0706
12370W        W28631   7.620   8.243  14.590  0.1945  0.0246 -0.0258
12371W        W28632  14.583   0.005   0.357 -0.2124 -0.1159  0.1578
12372W        W28633   2.245   3.670   3.109  0.0621  0.1411  0.1844
12373W        W28634  17.018  16.642   2.319 -0.2474 -0.2670 -0.1032
12374W        W28635   6.594   0.721  11.826  0.0734 -0.3913  0.1165
12375W        W28636  14.348   5.806   5.216  0.1643 -0.0809  0.0757
12376W        W28637   1.218  12.737  11.627 -0.2280 -0.1965  0.2244
12377W        W28638   9.302   8.668  13.817 -0.2221 -0.1649  0.1339
12378W        W28639   3.989   0.706  15.655  0.0291  0.0724  0.3463
12379W        W28640   1.566   3.060  14.440 -0.1457 -0.1779 -0.1568
12380W        W28641   0.687  12.277  12.306  0.2792  0.1141 -0.2826
12381W        W28642   1.379   5.870  15.891 -0.1366  0.1991  0.0934
12382W        W28643   0.525   6.766  12.848 -0.0668 -0.0736 -0.0452
12383W        W28644   4.364   6.818  15.015  0.1380 -0.1582  0.0915
12384W        W28645   3.612   1.179   3.873 -0.1203 -0.0560 -0.0488
12385W        W28646   6.676  11.372  14.033  0.2355 -0.1726 -0.0628
12386W        W28647   6.294   8.661  15.716 -0.1181 -0.1510  0.2690
12387W        W28648   8.023   1.474  12.867 -0.0729 -0.1906 -0.1313
12388W        W28649   1.196  16.220  12.464  0.3825  0.1823 -0.0076
12389W        W28650  16.451   4.810  14.326  0.0638 -0.4152  0.0567
12390W        W28651   5.912   3.433   1.510 -0.0433  0.0051 -0.3315
12391W        W28652   9.002   1.217   5.716  0.1118 -0.1394 -0.0351
12392W        W28653   9.772   7.632  11.721 -0.0883  0.1347  0.1223
12393W        W28654   1.100   3.759   2.087 -0.3262 -0.1477 -0.1033
12394W        W28655   8.944  13.345  12.794  0.0210 -0.2580 -0.0673
12395W        W28656  13.355   0.607   2.062  0.0242 -0.0560  0.0717
12396W        W28657   8.271  17.888  13.809 -0.1878 -0.2598  0.1042
12397W        W28658  11.534  15.608  15.531  0.0500  0.0935  0.1688
12398W        W28659  10.694  12.025  10.745 -0.0297 -0.0014 -0.0577
12399W        W28660  13.163  17.850  15.717 -0.1104 -0.2185 -0.0657
12400W        W28661   7.954   3.221   4.912 -0.1180 -0.0696 -0.1683
12401W        W28662   6.043   1.760  13.057  0.0428  0.0645 -0.2625
12402W        W28663   7.312  14.813   2.249 -0.0504 -0.0829 -0.0927
12403W        W28664   5.609   7.161  12.876 -0.0436 -0.2120 -0.1250
12404W        W28665   9.377  18.135  14.786 -0.2977 -0.0617 -0.2133
12405W        W28666   1.666  12.850  13.833  0.2770  0.0267  0.0268
12406W        W28667   4.002   4.050   4.844  0.0665 -0.1641  0.1141
12407W        W28668  18.218   1.033  14.688 -0.1287 -0.3051  0.1039
12408W        W28669   2.252   5.924  11.236  0.0165  0.0296  0.1297
12409W        W28670   9.958   6.371  13.825 -0.1644 -0.2338 -0.1623
12410W        W28671   7.366   9.003  14.426  0.0056 -0.0262  0.4340
12411W        W28672  17.379   5.268   4.935  0.1584  0.4119 -0.0301
12412W        W28673   4.883  10.600   4.946  0.2263  0.3162  0.0085
12413W        W28674  11.147   9.328   0.694  0.0536 -0.2974 -0.2838
12414W        W28675   0.487   9.125   0.825  0.0040  0.1788  0.2523
12415W        W28676  13.647  17.973  12.490 -0.0497  0.0381 -0.1095
12416W        W28677   5.596   8.514  11.351  0.0930 -0.3445  0.0397
12417W        W28678   0.231   3.492  15.710  0.1803 -0.1760  0.0529
12418W        W28679   0.205   5.528  13.479 -0.0888 -0.2440  0.1070
12419W        W28680   3.568  18.247  15.899 -0.0463  0.0891 -0.0900
12420W        W28681   8.283  10.885  15.410 -0.1627 -0.1634 -0.3404
12421W        W28682  12.663  12.833  15.193  0.2941 -0.0352  0.0798
12422W        W28683  11.599  10.587   4.393  0.2497  0.2475  0.0219
12423W        W28684  12.212  17.055  13.328  0.2107  0.0247  0.2057
12424W        W28685   4.565  14.495   1.858  0.1992 -0.0065 -0.3449
12425W        W28686   1.298   2.074  13.054  0.0006 -0.0707 -0.0189
12426W        W28687   6.053  16.265   1.858  0.1579 -0.0751 -0.1731
12427W        W28688  16.147  11.946   1.046  0.0924  0.3109  0.0923
12428W        W28689  13.654   3.330  14.647  0.3856 -0.0523  0.0453
12429W        W28690  15.689  10.270  15.575  0.1166 -0.2582 -0.0222
12430W        W28691   2.725  14.837   0.128 -0.2264 -0.0563 -0.0489
12431W        W28692   8.313  16.274  10.408  0.1372  0.1564 -0.0998
12432W        W28693  14.171  18.191  15.375 -0.0237 -0.1427  0.2468
12433W        W28694  10.779  11.859  13.643 -0.0804  0.0912 -0.1012
12434W        W28695   4.168  10.717   0.581  0.1373  0.0865  0.2119
12435W        W28696  16.984   7.395   4.862  0.1741  0.0600 -0.0029
12436W        W28697  11.784   2.386   2.994  0.0884 -0.1583  0.1021
12437W        W28698   5.453  15.442   2.959  0.0041 -0.1358  0.0466
12438W        W28699  13.954   6.867   2.295 -0.1763  0.1347 -0.0006
12439W        W28700  12.718   5.881   4.886  0.2596  0.1962 -0.4606
12440W        W28701  12.303  18.241   3.759  0.0523  0.1697 -0.0275
12441W        W28702   1.662   4.107  14.953 -0.0730 -0.0130  0.1659
12442W        W28703  11.414  15.132  12.853  0.0343 -0.0144 -0.0183
12443W        W28704  17.290  12.617   2.637 -0.0459  0.0412 -0.2108
12444W        W28705   7.810   7.842   1.322  0.0984  0.1044 -0.0951
12445W        W28706  13.218   0.189  16.143 -0.2819  0.1111 -0.0958
12446W        W28707   3.783  16.031   0.217  0.0103  0.0854 -0.0233
12447W        W28708   3.129   0.734   0.088  0.1663 -0.2644 -0.0970
12448W        W28709  18.289  12.034  14.241 -0.1279 -0.0418  0.1352
12449W        W28710   6.530  12.343  14.793 -0.1079  0.4189  0.0982
12450W        W28711   5.337   4.096  15.557  0.1902 -0.2276  0.0436
12451W        W28712  15.098   8.619  14.688  0.0586 -0.0456 -0.1711
12452W        W28713  17.256   8.862  15.248  0.3005  0.3479  0.0989
12453W        W28714   0.302  12.954  15.974  0.1173  0.2070 -0.1105
12454W        W28715   1.777   1.824   1.577  0.1200  0.3241  0.0990
12455W        W28716   9.485  12.629  16.158 -0.0675 -0.1478  0.0523
12456W        W28717   2.126  13.902   3.131 -0.1459 -0.1926  0.2151
12457W        W28718   7.270   7.724  16.220  0.1271 -0.0970  0.1253
12458W        W28719   7.290  17.731   3.063 -0.1490 -0.0773  0.0705
12459W        W28720   2.099   2.233   0.838  0.0643  0.1160 -0.1396
12460W        W28721  11.708  11.190   2.606  0.0468  0.5466  0.2197
12461W        W28722   2.294   2.132   4.569 -0.0382 -0.2239 -0.5543
12462W        W28723   2.229   8.342   2.114  0.0098  0.1926  0.2982
12463W        W28724   9.901   1.658  10.166 -0.1035 -0.0849  0.1452
12464W        W28725  12.344  12.445   3.308  0.4550  0.2090 -0.0580
12465W        W28726  12.193   5.312  15.312 -0.0940  0.1177 -0.0222
12466W        W28727   6.317  10.797  12.860 -0.1164  0.1215 -0.1371
12467W        W28728  18.122  17.398   5.711 -0.0145  0.2470 -0.0928
12468W        W28729   1.842  15.351  10.692  0.2071  0.1579  0.0856
12469W        W28730  16.069  17.342  12.248 -0.0036 -0.1015 -0.2598
12470W        W28731  17.831   6.844   2.062  0.1198 -0.0440  0.2157
12471W        W28732   1.981  17.669   2.249  0.2204  0.2274 -0.0096
12472W        W28733  13.377  15.162   0.102 -0.2073  0.0871 -0.1417
12473W        W28734   0.991   3.725  14.528 -0.0590  0.3636 -0.0101
12474W        W28735  12.441  15.428   2.167 -0.0259 -0.2513 -0.3184
12475W        W28736  11.842  15.781  14.445 -0.2207  0.0062 -0.0786
12476W        W28737   4.788   8.369   1.140 -0.3340  0.3696  0.1172
12477W        W28738  18.072   0.970   4.881  0.2188  0.1515 -0.0906
12478W        W28739   6.899  12.702  13.533 -0.0706 -0.3470  0.1601
12479W        W28740   5.506  15.907   0.409 -0.2824 -0.1482 -0.0341
12480W        W28741   7.779  10.926  12.365 -0.1564 -0.0827 -0.3181
12481W        W28742  13.067   3.837  15.357  0.2441 -0.2336 -0.0158
12482W        W28743  12.468  16.275  13.301 -0.2080  0.0950  0.0577
12483W        W28744   1.243  14.851   6.268 -0.1202 -0.0595 -0.2275
12484W        W28745   5.552  14.151  15.779 -0.0842 -0.1471 -0.0320
12485W        W28746  12.768   9.860  13.631 -0.1402 -0.2870  0.1755
12486W        W28747   9.851   8.911  13.986  0.0774 -0.2148 -0.1122
12487W        W28748   5.509  16.076   4.246  0.4793  0.1104  0.1563
12488W        W28749   8.536   9.997  15.048 -0.0933 -0.0466 -0.0937
12489W        W28750  16.317   6.233   2.127  0.0623 -0.2259  0.1792
12490W        W28751  11.626   2.488  13.382  0.0753  0.2329  0.3072
12491W        W28752   3.530   8.458  15.474  0.0300  0.1158 -0.1969
12492W        W28753  10.968  12.514  10.637  0.1476 -0.0115  0.0625
12493W        W28754  12.715  15.280   1.536  0.1927  0.1945  0.1338
12494W        W28755   5.076   3.774   2.274 -0.0867  0.0749  0.0232
12495W        W28756  14.752   3.034   1.329 -0.2058 -0.0720 -0.1966
12496W        W28757   3.216   0.734   2.319  0.0961 -0.0118 -0.0328
12497W        W28758   1.868   0.652   4.006 -0.0430  0.0085  0.0337
12498W        W28759   1.616  12.530   0.711  0.1089  0.1428 -0.2748
12499W        W28760   4.931  15.883  14.367 -0.1520  0.0883 -0.0992
12500W        W28761  12.731  18.203   2.220 -0.4082  0.4661  0.4618
12501W        W28762  13.213  14.511   4.053  0.0052  0.0943  0.0469
12502W        W28763   1.814  11.384   3.142 -0.0062  0.0241  0.4480
12503W        W28764   5.836   9.314   0.373 -0.2117  0.1461  0.1707
12504W        W28765  16.888   2.625   5.042  0.0015  0.1092  0.0664
12505W        W28766   3.183   2.581   4.429  0.3579 -0.1717 -0.0342
12506W        W28767  16.068  14.655  12.341 -0.1234 -0.0766  0.0002
12507W        W28768  16.562  10.169  14.529 -0.0700  0.0104  0.0986
12508W        W28769   4.193  17.302   1.119 -0.2414  0.2255  0.1657
12509W        W28770   4.920  16.750   1.238 -0.0746 -0.0295 -0.2026
12510W        W28771  11.505  12.257   5.160  0.2357 -0.2199  0.1295
12511W        W28772  12.703   0.268  16.133 -0.0592 -0.0261  0.0520
12512W        W28773   0.470   3.349  13.802  0.0670  0.0249  0.1186
12513W        W28774   1.464  10.089   4.682 -0.4603 -0.0923 -0.1413
12514W        W28775   4.530   1.915   2.714 -0.3038  0.1053 -0.3405
12515W        W28776  10.899  12.715  15.527  0.2094  0.0054 -0.1330
12516W        W28777   8.967   0.275   5.546  0.0629  0.6242  0.0689
12517W        W28778  10.349  15.329   1.078 -0.1621 -0.0912  0.2338
12518W        W28779  12.812   6.605   5.403 -0.2065 -0.0517  0.0433
12519W        W28780   1.838  15.840  16.148 -0.1358 -0.3257 -0.2573
12520W        W28781   0.360   7.837  15.723 -0.0295  0.0566 -0.0205
12521W        W28782  13.308   6.933   1.533 -0.2295  0.1029 -0.0887
12522W        W28783   7.341  16.019  11.272  0.2098 -0.3019  0.1251
12523W        W28784   6.543  13.849   5.315 -0.0752 -0.1044  0.0189
12524W        W28785   6.049   0.469  12.454  0.2867 -0.0702  0.0236
12525W        W28786  18.226  10.834  15.273 -0.2709 -0.2006  0.0647
12526W        W28787  12.606  15.336   5.343  0.2304  0.1026  0.0073
12527W        W28788   4.625  11.578  15.843 -0.0649  0.1098 -0.1345
12528W        W28789   3.110  16.344   1.318 -0.1733 -0.3147 -0.1059
12529W        W28790   0.117  10.950   2.056  0.0672 -0.1498  0.1498
12530W        W28791  15.129   9.245   4.895  0.4889  0.2013 -0.1093
12531W        W28792  13.381   8.639  15.496 -0.0586  0.3612 -0.1251
12532W        W28793  14.088   9.236  11.285  0.2120 -0.1477  0.0079
12533W        W28794   9.187   2.587  13.348 -0.1175  0.2803 -0.0153
12534W        W28795  12.000  12.627  11.912  0.2783 -0.3021  0.0248
12535W        W28796   1.317   8.786   3.954 -0.1348  0.1719  0.2870
12536W        W28797  16.350   9.673  16.250  0.2050 -0.2620 -0.1404
12537W        W28798   6.893  17.641   0.098  0.0006  0.0014  0.1751
12538W        W28799   4.229  13.262  16.012 -0.3714  0.1664 -0.3055
12539W        W28800   9.713   6.210   3.705  0.2368 -0.3762 -0.0260
12540W        W28801   3.436  17.573   4.020  0.1368 -0.1436 -0.1222
12541W        W28802  14.566  17.410  15.269 -0.1454 -0.0961 -0.0209
12542W        W28803   0.930   9.705   0.260  0.2443 -0.0765 -0.0192
12543W        W28804   6.022   8.884  11.902  0.0144 -0.1204 -0.2397
12544W        W28805  14.543   1.229   2.438 -0.1068 -0.1515  0.1397
12545W        W28806   7.051   2.977   1.964 -0.2287  0.0859  0.1845
12546W        W28807  14.835   0.661   4.055  0.3774 -0.0449  0.0667
12547W        W28808   5.150   6.445   1.052  0.0425  0.3791  0.0390
12548W        W28809  15.620  14.126   2.150 -0.0833 -0.1105 -0.2311
12549W        W28810  16.443   0.260  13.260  0.1110 -0.1460  0.0132
12550W        W28811   6.496   1.031   2.988 -0.0730 -0.1209  0.1367
12551W        W28812   2.924   8.103  11.914 -0.0204 -0.3956 -0.1261
12552W        W28813  11.107  14.320   1.438  0.0726  0.1629  0.1397
12553W        W28814  14.282   9.842  11.400 -0.1958 -0.0863 -0.0880
12554W        W28815   3.327   4.813  14.565 -0.0050 -0.1315 -0.1183
12555W        W28816  11.045   1.156  12.630  0.1158  0.0757  0.1093
12556W        W28817  13.697   8.982  16.250  0.0023 -0.3173 -0.2122
12557W        W28818   4.438   4.155   0.978 -0.1321 -0.0114  0.1666
12558W        W28819  14.896  16.288   1.801  0.1034  0.4059 -0.2496
12559W        W28820  13.733  16.651   4.439 -0.3152  0.1091  0.1644
12560W        W28821   2.635  13.623   3.804 -0.4786 -0.0363  0.2182
12561W        W28822  17.183  11.207   2.751  0.3022 -0.3414  0.2464
12562W        W28823  10.360   7.221  10.912  0.0873  0.0631 -0.2019
12563W        W28824  12.564   6.552   1.829  0.2766  0.1873 -0.2530
12564W        W28825   7.798  13.040  13.795 -0.0538  0.0967  0.0374
12565W        W28826  14.476   0.195  15.539 -0.0108  0.1646  0.1789
12566W        W28827  11.019   0.993  11.661 -0.1757 -0.0283  0.1827
12567W        W28828  15.996   0.852   2.076  0.0841 -0.0119  0.0314
12568W        W28829   1.258  11.366  13.549  0.0800  0.2361  0.0480
12569W        W28830  11.486   0.934  11.872 -0.1721  0.2834 -0.0245
12570W        W28831  14.282  12.256  16.083  0.0378  0.2270 -0.3789
12571W        W28832  10.569   6.565  15.088  0.0538  0.0450  0.3301
12572W        W28833   5.992   6.197   0.640 -0.1523 -0.4894 -0.2485
12573W        W28834  14.991  13.781  13.564  0.3076 -0.0859 -0.0064
12574W        W28835   4.898  18.169  15.040 -0.0529  0.1008 -0.1094
12575W        W28836  16.536  16.400   0.354  0.0462  0.0479  0.0343
12576W        W28837  17.871   7.691   0.507  0.1539  0.0066  0.0878
12577W        W28838   2.251   4.319  16.293 -0.0504  0.2910 -0.2467
12578W        W28839   4.980  15.117   4.469  0.0895  0.2780  0.0011
12579W        W28840   6.037  10.399  13.097 -0.0001  0.2767 -0.0181
12580W        W28841  12.105   4.789  15.274  0.2173  0.4429 -0.0433
12581W        W28842  14.909  18.109   3.788 -0.0880 -0.2016 -0.0877
12582W        W28843   6.765   8.468   2.286  0.2388 -0.1528 -0.0678
12583W        W28844   8.262  11.986   3.447 -0.2916 -0.1503  0.2045
12584W        W28845   4.260  15.748  13.074 -0.0570 -0.2782  0.2342
12585W        W28846   1.222   0.600   5.485  0.0188 -0.1376  0.1791
12586W        W28847  10.066   2.486   2.154 -0.4281  0.1504 -0.0015
12587W        W28848   3.627  15.512   1.776  0.3152  0.2959 -0.1066
12588W        W28849  13.950  13.784   2.228  0.0898  0.0931  0.1369
12589W        W28850  10.542   4.072  15.195  0.0819  0.2137  0.0163
12590W        W28851  11.556  17.589   5.311 -0.0025 -0.1521  0.0631
12591W        W28852   2.619  14.783   3.577 -0.4468 -0.2904 -0.0138
12592W        W28853  15.650   3.493   3.445  0.2522 -0.0725  0.3683
12593W        W28854   6.065  14.480  15.682 -0.1435 -0.0030  0.4047
12594W        W28855  17.771   1.921  14.186 -0.0708 -0.1755 -0.4011
12595W        W28856   9.892   5.579   3.021 -0.0484  0.1842 -0.2936
12596W        W28857  12.618   2.883  14.714  0.2020  0.0902  0.0189
12597W        W28858   4.042   6.881   0.731 -0.2308  0.0044 -0.2892
12598W        W28859  13.947  12.920   2.717 -0.1730 -0.3217  0.1518
12599W        W28860  10.069   4.014   3.307  0.3040 -0.0541  0.2271
12600W        W28861  12.743  17.696  12.429  0.2332  0.2957  0.2813
12601W        W28862   8.822   9.752   2.498 -0.1086  0.1960  0.0926
12602W        W28863   0.148  15.965  11.660 -0.1735 -0.0067  0.1971
12603W        W28864  12.204   6.430   5.421  0.1007  0.0691  0.0968
12604W        W28865  14.493  16.564   0.590 -0.4605  0.1525 -0.2032
12605W        W28866  13.393  15.785   4.282  0.0430 -0.1970  0.1609
12606W        W28867   2.512  12.695   3.542 -0.0211  0.1882 -0.1112
12607W        W28868  13.085  10.488   3.184  0.1162 -0.2505  0.0101
12608W        W28869  10.663  12.278  15.333  0.0674 -0.0805  0.1199
12609W        W28870   4.190  15.816   0.101  0.0939 -0.2533 -0.0036
12610W        W28871   1.629   7.729   0.089 -0.3053  0.2220  0.1683
12611W        W28872  17.925   6.059   0.679  0.1034 -0.3561  0.0048
12612W        W28873  14.946   1.477   4.923  0.3229  0.2642 -0.1276
12613W        W28874   4.340   6.985  14.322  0.1149  0.3084  0.0901
12614W        W28875   9.568   7.149   0.502  0.2747 -0.0824 -0.2793
12615W        W28876   9.646   4.073  11.069 -0.0264  0.1493 -0.0889
12616W        W28877   1.883  11.965  14.768  0.3173 -0.0454  0.0211
12617W        W28878   7.833   1.342  11.466  0.0659  0.1013  0.2245
12618W        W28879   5.357   3.380   4.830  0.2751 -0.0644  0.2715
12619W        W28880   0.868  17.896   3.003  0.1613 -0.0510  0.0502
12620W        W28881  15.294   2.541   2.718  0.2470 -0.1415  0.0747
12621W        W28882   9.956   3.081  14.661 -0.2177 -0.0940  0.1585
12622W        W28883   0.811   9.046   5.100 -0.1828 -0.1559  0.5127
12623W        W28884  17.138   3.863   3.310 -0.7022  0.2614 -0.3574
12624W        W28885   5.514   4.718   0.215 -0.1262 -0.1274  0.4824
12625W        W28886  13.224   8.952  11.756 -0.0992  0.0295 -0.0506
12626W        W28887   0.891   2.025  12.312 -0.0515 -0.1911  0.1597
12627W        W28888   9.608  11.707  15.394 -0.1116 -0.3918 -0.0060
12628W        W28889   4.052  12.486   4.294  0.3875  0.1360 -0.0800
12629W        W28890   0.615   6.173  12.105 -0.2615  0.1060  0.0576
12630W        W28891   0.177  10.166  14.861  0.0831  0.1443 -0.0370
12631W        W28892  10.632   2.475   4.978 -0.0104 -0.0873  0.0692
12632W        W28893  11.110  10.345  11.694  0.0643  0.1893 -0.1377
12633W        W28894  15.920  15.526   2.172 -0.2162 -0.1030 -0.0397
12634W        W28895  17.960  18.347   6.002 -0.1642 -0.0645 -0.4107
12635W        W28896  16.208  15.454   0.186  0.1549 -0.1985  0.1734
12636W        W28897   7.529   3.098  14.931  0.0201  0.2098  0.0959
12637W        W28898  14.809  13.279   2.380  0.0022 -0.3019  0.2939
12638W        W28899   7.420   2.104   6.166 -0.2228  0.1094  0.0214
12639W        W28900  12.876   6.138  14.946 -0.0025  0.0347  0.0671
12640W        W28901   6.204   2.849  15.275  0.1148  0.3616 -0.0410
12641W        W28902   3.818  17.373  14.208  0.1182  0.0266  0.3204
12642W        W28903   7.471  17.820  16.256  0.2377  0.0940 -0.1087
12643W        W28904  13.638  14.277   1.520 -0.3645  0.0040  0.2202
12644W        W28905  17.778  13.040  13.940  0.0033  0.0903  0.1510
12645W        W28906  13.948  12.328   4.538  0.0371 -0.2175 -0.1828
12646W        W28907   1.204   4.495   2.818 -0.1717 -0.3163  0.2452
12647W        W28908   1.027   8.240   2.719 -0.0085 -0.2266 -0.2822
12648W        W28909   9.709   0.914  12.152  0.1226 -0.0284  0.0552
12649W        W28910  12.944  13.639   5.105 -0.0457 -0.0523 -0.0901
12650W        W28911  18.136   5.838   4.658  0.2208 -0.0650  0.0763
12651W        W28912   0.417   2.624  15.207  0.1605 -0.2540 -0.2296
12652W        W28913   9.631  15.126   0.898 -0.0388  0.3408 -0.1390
12653W        W28914   9.299  14.182  12.043  0.2573  0.0531 -0.0190
12654W        W28915   3.204   9.948   3.172  0.0851 -0.1901 -0.3388
12655W        W28916   9.002   5.349  12.408  0.2637  0.1771 -0.1871
12656W        W28917   4.677  17.721  14.645  0.0688  0.1102  0.0289
12657W        W28918  12.369  10.877   2.025 -0.2938 -0.0083  0.0317
12658W        W28919  10.715  10.547   3.305 -0.0640 -0.0982 -0.1044
12659W        W28920  12.767  18.298   5.604  0.1087 -0.0811 -0.2838
12660W        W28921   0.337  18.157   2.520  0.0568  0.0253  0.2633
12661W        W28922  13.275  14.217  15.916  0.1216 -0.0225 -0.0196
12662W        W28923   1.501   2.626   4.443  0.0368  0.0528  0.0849
12663W        W28924   7.519  17.162   4.752  0.1725  0.2231  0.0128
12664W        W28925  10.083   1.537   5.558  0.0988  0.0615 -0.1175
12665W        W28926   0.273   4.863   5.912 -0.0637  0.0860  0.0487
12666W        W28927   2.715  12.525  14.847 -0.2325 -0.4613  0.1118
12667W        W28928   9.606   2.386  10.848 -0.1148 -0.1405 -0.0404
12668W        W28929   6.949   7.702   0.306 -0.0964  0.1090  0.0519
12669W        W28930   3.294   7.459  13.755 -0.0422  0.0274 -0.1845
12670W        W28931   4.050  13.334  12.079 -0.2916  0.0344 -0.0252
12671W        W28932   3.021   6.174   2.285 -0.3922  0.0882 -0.2829
12672W        W28933   9.305   4.378   4.353  0.1114  0.0105 -0.1342
12673W        W28934   1.615   9.709  15.521  0.1525 -0.1831 -0.3078
12674W        W28935   8.377  13.932   2.040  0.1076 -0.1037 -0.1434
12675W        W28936   1.588   6.550   4.145  0.3744  0.1955 -0.4205
12676W        W28937   0.044   4.244   4.224  0.0106 -0.3719  0.1868
12677W        W28938   5.587  14.826  14.780 -0.4179  0.2615  0.1933
12678W        W28939  17.499   1.610   4.289 -0.1142  0.3633 -0.1725
12679W        W28940  13.121  10.712   4.204  0.0913  0.0120 -0.1078
12680W        W28941   3.556  17.054  11.922  0.0288  0.0714 -0.2791
12681W        W28942  10.064   8.939  11.716 -0.0136  0.0033  0.2372
12682W        W28943   9.268   3.169   4.864  0.2605 -0.1719  0.1669
12683W        W28944  14.814   1.756   3.173 -0.2106  0.0836 -0.1068
12684W        W28945  10.517  14.859  13.093 -0.1412 -0.0850 -0.1657
12685W        W28946  16.536   7.273   0.418 -0.1459 -0.0849  0.0243
12686W        W28947  15.821   0.746   1.228 -0.0200 -0.2301 -0.3009
12687W        W28948   6.519   8.675  15.291 -0.0260  0.2439 -0.2450
12688W        W28949  13.334   8.477  11.488 -0.3266  0.0478  0.1288
12689W        W28950   7.326   9.668  15.810 -0.0152  0.3374  0.2030
12690W        W28951   5.231   3.425   0.419 -0.3389  0.2113  0.0124
12691W        W28952  17.871   2.158  14.879 -0.0182 -0.0869  0.1545
12692W        W28953  16.809  16.531  12.984  0.2217  0.3332  0.1578
12693W        W28954  14.149   3.167  14.081 -0.2525 -0.2672  0.0857
12694W        W28955  11.547   4.571   3.676 -0.2163 -0.2112  0.2328
12695W        W28956  14.063  16.400   0.527  0.0865  0.0267 -0.0132
12696W        W28957  14.638   1.142  12.208 -0.1630 -0.2053 -0.0818
12697W        W28958   8.709  18.044  14.616 -0.0200  0.0877  0.1772
12698W        W28959  12.017  17.824  13.986  0.0291  0.1989 -0.5360
12699W        W28960   4.572   9.881   3.276 -0.0052 -0.5802  0.1807
12700W        W28961  10.216   1.490  14.832 -0.2946 -0.1210  0.0101
12701W        W28962  18.096  13.797   2.122  0.1317 -0.2173  0.0795
12702W        W28963  13.875  15.032   3.641  0.1398 -0.0941 -0.1294
12703W        W28964  18.305   3.890   4.615 -0.0753  0.2047  0.3450
12704W        W28965  10.730   1.926  15.437 -0.0594  0.2135 -0.1452
12705W        W28966   3.009   9.698  14.145 -0.1417 -0.2246 -0.0337
12706W        W28967  17.081   8.493   2.864 -0.0051 -0.0996  0.3662
12707W        W28968   7.447   9.312   2.527 -0.0886  0.3805  0.3777
12708W        W28969  17.484  15.330   3.523  0.2017 -0.1045  0.0088
12709W        W28970   6.198  10.082   1.629 -0.0002  0.1689 -0.0725
12710W        W28971  11.596   0.944  14.092  0.1590 -0.1497  0.1583
12711W        W28972   1.919   8.003  13.456  0.3153 -0.0449 -0.1479
12712W        W28973  13.423   3.609  15.049 -0.0461  0.2813 -0.1046
12713W        W28974   9.290   8.178   4.237 -0.0301 -0.0302  0.2822
12714W        W28975  13.201   2.271   3.912  0.0971  0.0641 -0.1092
12715W        W28976  13.761   9.748  11.828 -0.1062 -0.0602  0.1859
12716W        W28977   5.183  14.824  15.163  0.0983 -0.0882 -0.0921
12717W        W28978  12.237   2.596   0.332  0.1076  0.2406 -0.2845
12718W        W28979  13.400   9.916  11.437  0.0769  0.2214  0.0832
12719W        W28980  12.114   9.426   3.037  0.0258 -0.0179  0.0725
12720W        W28981  14.854   8.046  13.919 -0.0041  0.1317 -0.0419
12721W        W28982   3.745   7.420   2.809 -0.0718 -0.2387  0.1605
12722W        W28983   4.729   3.013   3.649  0.3792 -0.0350  0.0997
12723W        W28984   5.256  14.392  13.222  0.0605  0.1550  0.0699
12724W        W28985   6.713  13.964  13.453 -0.0508 -0.3000 -0.3727
12725W        W28986   2.828   2.306   2.236 -0.1292 -0.1339 -0.1514
12726W        W28987  14.146  12.065  15.267  0.2824 -0.1243  0.1510
12727W        W28988  14.367  12.816  15.226  0.0862 -0.0789  0.3525
12728W        W28989   2.964   9.779   1.615 -0.1420  0.0677  0.3795
12729W        W28990  16.142   8.379   0.354  0.0016 -0.4132  0.1771
12730W        W28991  15.985  11.440  13.747 -0.0433 -0.3410  0.5397
12731W        W28992   4.733  15.035  12.142  0.1779  0.0684  0.0576
12732W        W28993  18.116   8.800   4.910 -0.3033 -0.2880 -0.1348
12733W        W28994   8.731   4.458  11.188  0.1320 -0.0117 -0.1218
12734W        W28995  17.740  17.473   5.160  0.1377  0.0179 -0.0025
12735W        W28996  12.354   2.149   1.808 -0.0788 -0.1782  0.0509
12736W        W28997   7.203  14.563   1.211  0.2352  0.1718  0.1162
12737W        W28998   9.728  15.030   2.403  0.3036  0.1351  0.0132
12738W        W28999   8.231   3.623  16.198 -0.2736  0.0469 -0.0872
12739W        W29000  15.274  12.479   2.433  0.4158  0.1760  0.0432
12740W        W29001  10.652  13.171   5.500 -0.1227 -0.2300  0.2767
12741W        W29002   9.925   0.847  11.674  0.3142 -0.0159  0.0107
12742W        W29003   7.866   4.980  16.089  0.0529  0.2622 -0.1667
12743W        W29004   1.212  14.102   3.706 -0.2183 -0.0940  0.2014
12744W        W29005   5.216  11.676   1.459 -0.0602  0.1343  0.0050
12745W        W29006  10.317   6.656   4.450 -0.1495  0.1205 -0.1565
12746W        W29007   6.232  16.473   2.823  0.1413 -0.1676  0.0242
12747W        W29008  18.104  13.504  12.348 -0.3613 -0.0565 -0.0947
12748W        W29009  14.291  16.616   2.353 -0.0568  0.4429 -0.1035
12749W        W29010   4.559  16.101   0.752  0.0369  0.0443  0.2731
12750W        W29011   6.817   5.265  15.510 -0.0939 -0.1057  0.0618
12751W        W29012  10.380  13.034  11.033  0.0698  0.1874  0.1016
12752W        W29013   9.517   8.353  15.366  0.0117 -0.2451  0.1480
12753W        W29014   4.692   0.292   1.885 -0.1216 -0.1756 -0.1374
12754W        W29015   0.349   8.957   1.704  0.0519 -0.0233  0.1951
12755W        W29016  15.497  14.495  12.975 -0.2470  0.0406 -0.0083
12756W        W29017   6.741  11.385  12.033 -0.2871  0.2080  0.1033
12757W        W29018   8.358   4.864  12.606  0.0743 -0.1823 -0.0484
12758W        W29019  12.691   2.357  12.001  0.0537 -0.1181 -0.0557
12759W        W29020  13.956  12.348  10.756  0.1524 -0.0025 -0.0102
12760W        W29021   2.601   2.546  12.068  0.3262 -0.2483  0.1627
12761W        W29022  10.984  14.494  15.276  0.1714  0.1286  0.5885
12762W        W29023  16.902  17.771   2.014 -0.2811 -0.4190  0.2752
12763W        W29024   7.103   5.251   3.339  0.0432 -0.0602 -0.1644
12764W        W29025  11.457  14.696   1.368  0.0283  0.4441  0.1084
12765W        W29026   8.184   9.794  12.638  0.4171 -0.0551  0.0378
12766W        W29027  13.732   9.698  12.705 -0.1171  0.0519 -0.0133
12767W        W29028   3.738  16.322   5.842 -0.0776 -0.2098 -0.1944
12768W        W29029  11.727  16.257  12.101  0.0523 -0.4287  0.0399
12769W        W29030   2.226   6.898   5.444  0.3043  0.0922 -0.2146
12770W        W29031  12.172  11.745  15.035 -0.0989 -0.1380 -0.1783
12771W        W29032  17.501   2.988   2.454 -0.1265  0.4001  0.2522
12772W        W29033   4.170   9.411  13.178 -0.0626 -0.0017  0.1263
12773W        W29034   7.756   7.473  13.887  0.0400  0.1392  0.0375
12774W        W29035   3.296  10.773  14.174 -0.1085  0.1251  0.1711
12775W        W29036  10.652   1.272  13.069 -0.1926 -0.0104  0.3100
12776W        W29037  12.353   2.789  14.141  0.1706  0.0857 -0.0204
12777W        W29038   1.105  11.634  11.938  0.1369 -0.1932 -0.0633
12778W        W29039   9.367  12.332  13.686  0.1161  0.3113 -0.0896
12779W        W29040  11.841  13.798  15.710 -0.1662  0.0120  0.0505
12780W        W29041   2.626  15.331  12.145  0.0295  0.0253 -0.1935
12781W        W29042   9.604   4.920  14.733 -0.0795 -0.0442 -0.1448
12782W        W29043  11.863   3.788   4.760  0.2257  0.1600  0.2753
12783W        W29044   7.099  17.273  11.867  0.2446 -0.0776  0.3356
12784W        W29045  18.370   1.553   0.598 -0.0378  0.2496 -0.2113
12785W        W29046  15.532  16.720   2.907 -0.2060  0.0023  0.1581
12786W        W29047   9.311  14.073  10.871  0.4051 -0.1228 -0.0059
12787W        W29048  12.614  10.430   4.484 -0.0474 -0.2800 -0.3041
12788W        W29049   9.461   8.944  11.735 -0.2551 -0.0134 -0.0294
12789W        W29050   0.567  11.781   1.593 -0.3516  0.1123 -0.0301
12790W        W29051   2.405   7.336  14.135  0.1419  0.0005 -0.1012
12791W        W29052  13.534   3.246  13.145  0.0081 -0.1695  0.2021
12792W        W29053  18.322  15.703   1.772 -0.0867 -0.0639 -0.0535
12793W        W29054  13.821  12.980  11.088  0.0736 -0.0037  0.2381
12794W        W29055  13.171   8.798  14.033 -0.2068 -0.0014 -0.0153
12795W        W29056   7.165   5.196   5.406  0.1866  0.4367  0.2748
12796W        W29057   8.922   7.918   3.361  0.0164 -0.1904  0.3168
12797W        W29058  13.579   1.078   1.549  0.2095  0.2050  0.0119
12798W        W29059  10.745   3.655  12.875  0.0845  0.0579 -0.1336
12799W        W29060   8.346   4.352  16.044  0.0176 -0.2359 -0.0069
12800W        W29061   4.170  17.724  14.423  0.1061 -0.1710  0.1342
12801W        W29062  11.129   0.312   3.895  0.3899 -0.0736 -0.1951
12802W        W29063  14.805   1.008   0.168 -0.1539 -0.1577 -0.1128
12803W        W29064  17.927   0.501   4.800  0.2221 -0.4110 -0.0282
12804W        W29065  13.612   5.629   4.387  0.0781 -0.1153 -0.1183
12805W        W29066   3.117   6.603   0.333 -0.0317  0.1085 -0.0822
12806W        W29067  10.296   8.700  15.096 -0.0195 -0.0553  0.0048
12807W        W29068  16.051   9.065   0.715  0.1601 -0.2772  0.1260
12808W        W29069   3.021  15.607   3.371  0.0030 -0.0103 -0.1688
12809W        W29070   6.900   7.307   3.169 -0.1371 -0.1496 -0.0597
12810W        W29071   1.500   2.658  12.946  0.0283  0.0457  0.1431
12811W        W29072   5.551   9.323  11.105 -0.1391  0.0687  0.2761
12812W        W29073   3.712   3.374  15.426 -0.2420  0.0638  0.0692
12813W        W29074  15.251   0.770  15.494 -0.3572  0.2082  0.1003
12814W        W29075  15.225   5.829   2.011  0.1324  0.1877 -0.0163
12815W        W29076  17.735   5.023   2.750 -0.1271 -0.1991  0.0552
12816W        W29077  17.296  15.907   1.280  0.0386  0.3875 -0.2040
12817W        W29078   0.265   2.671  11.809 -0.1498 -0.2039 -0.3430
12818W        W29079  17.462  17.943   5.295  0.1216  0.0702 -0.0431
12819W        W29080   6.534   7.309   2.578  0.0939 -0.3452  0.2621
12820W        W29081  15.173  16.139  11.593  0.0051 -0.2213  0.0254
12821W        W29082  18.264  15.733   0.347 -0.1680  0.1854  0.1435
12822W        W29083   0.134   6.971  11.953  0.0002 -0.2180 -0.2396
12823W        W29084  12.294   7.174  15.445  0.1574  0.1332 -0.0611
12824W        W29085   7.387  18.150   5.748 -0.0094 -0.0902  0.1693
12825W        W29086  13.986  14.298  14.937 -0.0498  0.3260 -0.0982
12826W        W29087   8.231  12.930  15.053 -0.0343 -0.1336 -0.0608
12827W        W29088   7.072  14.792   0.433 -0.1565  0.0946 -0.0255
12828W        W29089  17.711   8.411  11.941  0.0476  0.3993  0.0617
12829W        W29090  17.663  17.038   1.171  0.2972 -0.0692 -0.3645
12830W        W29091   4.802   5.205   6.042  0.3243  0.1303  0.0241
12831W        W29092  17.080  13.367  12.304 -0.1216  0.1709  0.1955
12832W        W29093   2.204  15.523   0.715  0.0083 -0.0109 -0.0530
12833W        W29094  11.517   8.973  15.489  0.3420 -0.0746 -0.0750
12834W        W29095  16.325   0.716  12.162  0.1063  0.2545  0.2103
12835W        W29096   0.895  17.205   3.553  0.0587  0.1566  0.1060
12836W        W29097   4.143   9.249  16.080  0.0307  0.1293  0.1509
12837W        W29098  11.847  11.963   4.050 -0.1276 -0.1776 -0.0787
12838W        W29099   0.102   8.258  11.399 -0.2783 -0.2803  0.0003
12839W        W29100   3.482   5.199  15.735  0.3058 -0.0973 -0.0363
12840W        W29101  17.788  17.852   0.551  0.0858  0.0210  0.0994
12841W        W29102   1.394  14.700   4.820  0.4632  0.1691 -0.2132
12842W        W29103   2.934   8.257  15.480 -0.2397 -0.0052  0.0615
12843W        W29104  15.434  15.394  13.228 -0.1601 -0.1187 -0.2270
12844W        W29105   9.229   3.110  13.202  0.3053  0.3300 -0.0659
12845W        W29106  16.332   9.000   5.688  0.3486 -0.1230  0.0479
12846W        W29107   7.231   2.763  14.710 -0.0837  0.0449  0.2810
12847W        W29108   9.969  10.254   4.769  0.1333  0.2633 -0.2829
12848W        W29109  10.409  15.703  12.187 -0.0686  0.2834 -0.0357
12849W        W29110   8.443   5.001   3.589  0.0839 -0.4955  0.3500
12850W        W29111  12.396  17.477  13.797  0.0097  0.3239 -0.1890
12851W        W29112  15.724   3.525  13.735  0.0620 -0.2040  0.0273
12852W        W29113  14.606   2.302  14.499  0.2231 -0.1774  0.1393
12853W        W29114  17.670   8.499  15.162 -0.0618 -0.1352  0.0984
12854W        W29115  11.722   9.855  12.361  0.3632  0.1990  0.1060
12855W        W29116  10.497  15.208  15.746 -0.0957  0.0136  0.0402
12856W        W29117  16.984  14.643  14.079 -0.3160 -0.2755  0.0765
12857W        W29118   0.486   7.455  14.400  0.2019 -0.1329 -0.3377
12858W        W29119  11.898   8.559   5.368  0.1470 -0.1060  0.2861
12859W        W29120  16.358   4.331  14.509  0.1464  0.0861 -0.1873
12860W        W29121   4.688  12.584  11.430 -0.0513 -0.0414 -0.0795
12861W        W29122   3.230   7.391   1.794  0.1767  0.0364 -0.1275
12862W        W29123   4.243  18.110  12.053 -0.0875  0.0742  0.0848
12863W        W29124   8.738  15.817  11.825 -0.1655  0.1348 -0.1206
12864W        W29125   3.957   7.571  12.958 -0.0181 -0.0093 -0.0781
12865W        W29126  16.542   6.965   5.125 -0.1632 -0.2064  0.1492
12866W        W29127  16.714  17.750  13.613 -0.0237  0.0717 -0.1156
12867W        W29128   9.203  12.472   0.799 -0.2147  0.0864  0.2815
12868W        W29129  12.208   2.804  15.581 -0.4249  0.0446 -0.2206
12869W        W29130   3.985  16.752  12.050  0.3869 -0.3967 -0.2587
12870W        W29131   1.635  12.798  16.291  0.3087  0.0572  0.1247
12871W        W29132   7.403   2.205  14.654 -0.0115 -0.2285  0.1256
12872W        W29133   6.382  14.937  11.519 -0.2325 -0.1094  0.1552
12873W        W29134  10.421   2.902  14.357 -0.1034  0.1489 -0.2751
12874W        W29135   5.203  15.709  12.577  0.0188  0.0993  0.3182
12875W        W29136   7.741  11.312   4.765 -0.1568 -0.1255  0.1539
12876W        W29137   9.893   8.557  12.584  0.2749 -0.0636  0.0458
12877W        W29138   5.058  11.070  11.262  0.0398  0.2634  0.0429
12878W        W29139  14.504   4.634   3.701 -0.0540 -0.2156 -0.0386
12879W        W29140  17.567  10.387   0.567 -0.0764 -0.0282 -0.2907
12880W        W29141  13.613   6.936   4.916 -0.1747  0.0286 -0.2675
12881W        W29142   9.253  17.289   1.893 -0.0673  0.0667  0.0099
12882W        W29143  12.421  18.268   2.752  0.1944  0.0298 -0.0079
12883W        W29144   6.731  10.319   1.587 -0.5832  0.2124  0.2136
12884W        W29145   6.265  15.919  11.991 -0.0739 -0.0966  0.6158
12885W        W29146   0.290  17.280  11.465  0.1506  0.0719 -0.3086
12886W        W29147  10.510   3.029   1.170 -0.2734  0.0734 -0.3119
12887W        W29148   6.943   9.913  13.318  0.1655  0.0416  0.0446
12888W        W29149  18.216  16.625  13.061 -0.0102 -0.1531  0.2414
12889W        W29150  11.734   6.296  12.553 -0.2564 -0.3190  0.1141
12890W        W29151  11.638   8.988  10.056  0.1020  0.3074  0.2379
12891W        W29152  14.119  14.495   3.464 -0.5334  0.1909  0.0020
12892W        W29153  11.395   2.980   5.344  0.2674 -0.1924 -0.2357
12893W        W29154  15.698  12.575   2.090  0.1745 -0.0095 -0.2668
12894W        W29155  18.352   0.033  15.048  0.0797  0.2423  0.0585
12895W        W29156  12.888   0.439  14.654 -0.1885  0.2095  0.3067
12896W        W29157  12.792   3.996   2.283  0.0978 -0.2001 -0.3225
12897W        W29158  11.828   6.978   1.150  0.1640 -0.0283 -0.2356
12898W        W29159  11.591   9.891   0.068 -0.0045  0.1885 -0.1548
12899W        W29160  14.293   8.802  15.215 -0.4005 -0.1686  0.1374
12900W        W29161   0.663  11.048   2.841 -0.0633 -0.2619 -0.0080
12901W        W29162   1.684  10.468   1.298 -0.1658 -0.1426  0.0619
12902W        W29163   6.456   8.740  12.188  0.1010  0.0610 -0.6213
12903W        W29164  17.723   4.050   3.356  0.2646  0.0726 -0.0444
12904W        W29165   4.154   6.837  15.950  0.3048  0.0254 -0.0394
12905W        W29166  14.946  10.555  13.231 -0.2808 -0.0199  0.0537
12906W        W29167   9.968   7.978  12.010 -0.0279 -0.2079 -0.0373
12907W        W29168   5.196   6.832  13.152  0.1228  0.0517  0.0663
12908W        W29169  16.782   2.657  14.106  0.2563 -0.1504  0.0710
12909W        W29170  16.507  11.351   1.036 -0.1326 -0.0551 -0.3127
12910W        W29171  11.171   1.035  14.359 -0.1553 -0.0985  0.0693
12911W        W29172   4.293   4.621  14.804 -0.0171 -0.2979 -0.2089
12912W        W29173   8.597  11.253  15.215  0.2783  0.0194 -0.1931
12913W        W29174  17.356   2.085   0.419 -0.5231 -0.0078  0.0771
12914W        W29175   5.473   6.982   0.941  0.1395  0.2379 -0.0823
12915W        W29176   1.797  15.187   2.774  0.0598  0.1765 -0.0031
12916W        W29177  15.480  15.333  14.876 -0.1695  0.1330 -0.2141
12917W        W29178  15.398  11.682   5.001 -0.2515  0.0197  0.2451
12918W        W29179   0.547   6.834   1.102  0.0745  0.0759  0.2183
12919W        W29180   0.510   0.592   0.382  0.2745 -0.3677 -0.2111
12920W        W29181   9.890   8.073   3.668  0.1325  0.2358  0.1989
12921W        W29182   2.136  14.343   4.935  0.0443  0.2692 -0.3912
12922W        W29183   1.352   8.689   2.362  0.4095  0.2720  0.4112
12923W        W29184  15.533  14.283   3.794 -0.1190 -0.1004 -0.0116
12924W        W29185   9.780   7.555  12.203  0.1587 -0.0361  0.2319
12925W        W29186   7.358   7.499   2.299  0.0566 -0.1837 -0.0033
12926W        W29187  14.088   8.253  14.898 -0.2825 -0.1238  0.0168
12927W        W29188  13.826   4.955  13.281 -0.2496 -0.1198  0.3215
12928W        W29189   0.850  18.361  10.963  0.0172  0.1162  0.0610
12929W        W29190   2.766   7.325  12.569  0.3927  0.0312 -0.2109
12930W        W29191   4.711  11.459  11.214 -0.0118 -0.0438  0.0359
12931W        W29192  11.769   1.633   1.238  0.1747 -0.2274  0.4917
12932W        W29193   4.005  14.302   5.510  0.0867  0.2479  0.0582
12933W        W29194  12.868   7.277   4.499  0.0657  0.0716 -0.3750
12934W        W29195  18.367  17.009   2.459  0.0388 -0.1749 -0.0065
12935W        W29196  16.532   1.960   2.908  0.1839 -0.0523  0.1106
12936W        W29197   4.504  10.930  13.987 -0.2947 -0.4072 -0.0729
12937W        W29198   2.036   2.669  14.830  0.3882 -0.2115  0.1197
12938W        W29199  13.727   1.058   2.098 -0.2204  0.0667  0.1708
12939W        W29200  10.164   8.400   1.494 -0.1378 -0.1246 -0.3638
12940W        W29201  16.229   6.487   0.690 -0.0849  0.3516 -0.1728
12941W        W29202   4.197  11.778   2.304  0.2233  0.0056 -0.1621
12942W        W29203  17.288   2.137   3.038 -0.1653 -0.0811 -0.3947
12943W        W29204   8.182  13.744  13.831  0.3667 -0.1675  0.2139
12944W        W29205  13.078  16.010  13.707  0.0233 -0.0854  0.0417
12945W        W29206   2.447  10.911  13.423  0.1888  0.0925 -0.1856
12946W        W29207   2.736  14.213   0.042 -0.0292 -0.0406 -0.0239
12947W        W29208  14.144  17.385  14.943  0.0510 -0.1127 -0.0666
12948W        W29209   6.612  17.589   0.884  0.1538  0.2349  0.1503
12949W        W29210  15.907   2.591   4.097 -0.5234 -0.1469  0.0199
12950W        W29211   5.915  17.140   3.366  0.1801 -0.0217 -0.1062
12951W        W29212   7.063   7.240  14.733 -0.0358 -0.0135  0.4747
12952W        W29213   3.255   7.912   0.485 -0.4054 -0.0697  0.1757
12953W        W29214   5.397  15.165  13.028  0.2706  0.1185  0.0331
12954W        W29215   3.894  14.510  12.548  0.0489  0.0104  0.3950
12955W        W29216   1.849  14.009   4.051 -0.1113  0.1542  0.1277
12956W        W29217  10.227   8.976  14.264  0.0420 -0.5222 -0.0428
12957W        W29218   3.987   7.449   4.300  0.0736 -0.0131  0.1338
12958W        W29219  15.244   3.187   0.297 -0.1667  0.0765  0.0820
12959W        W29220   0.350  14.354   2.128  0.1169  0.2218 -0.0201
12960W        W29221  13.180   2.486   1.761  0.2319 -0.0023  0.3368
12961W        W29222  11.834   7.477  14.938  0.1441  0.3783  0.2475
12962W        W29223   2.924   7.454  10.906 -0.1803 -0.1591 -0.0457
12963W        W29224  10.633  16.889  12.035 -0.1416 -0.2245  0.0190
12964W        W29225  12.205   8.897   2.343  0.0747 -0.2027 -0.0173
12965W        W29226  16.490  13.218   3.591  0.1525  0.1038 -0.1288
12966W        W29227  17.735  15.796   0.463 -0.1623 -0.1917  0.0099
12967W        W29228  15.094  15.613  12.902  0.0927  0.2914 -0.1035
12968W        W29229  16.549  18.239   3.456  0.0027 -0.0430 -0.1626
12969W        W29230   8.153   0.102  13.592 -0.2570 -0.1034 -0.4621
12970W        W29231   2.713  16.301   4.339  0.5311 -0.1055 -0.0992
12971W        W29232  13.054  13.934  11.749  0.0068  0.0988 -0.0130
12972W        W29233   2.252   0.101  13.239 -0.1074  0.0063  0.1383
12973W        W29234   2.694   2.412   3.076 -0.0572 -0.1074 -0.0652
12974W        W29235  10.929  15.985  16.199 -0.2436 -0.0889  0.1862
12975W        W29236   9.821  18.102   1.489  0.0637 -0.0190 -0.3515
12976W        W29237  14.982   1.249   5.380  0.0285  0.0160  0.1521
12977W        W29238  13.941  11.036   2.302 -0.1113 -0.1632  0.0016
12978W        W29239   9.882   2.412   1.677  0.0573  0.0520 -0.0636
12979W        W29240  11.712  16.395   2.601  0.0402  0.0192 -0.0032
12980W        W29241   6.237   5.215   3.831 -0.0611  0.3704 -0.1925
12981W        W29242   2.022  11.524  11.535 -0.0389  0.1245  0.0869
12982W        W29243   0.898   0.337  14.463 -0.1903 -0.0804  0.3669
12983W        W29244   6.267   2.066   2.625 -0.1338  0.2542 -0.0528
12984W        W29245  15.239   4.900   5.105  0.0074  0.2407  0.1335
12985W        W29246  16.745  10.797   5.298 -0.1066 -0.0968  0.3387
12986W        W29247   0.111  10.302  13.229 -0.1423 -0.2264  0.2030
12987W        W29248   8.770  10.932  13.894  0.5012  0.2085 -0.0303
12988W        W29249  15.556   1.615   0.678  0.1923  0.2979  0.1551
12989W        W29250  15.271  17.130   4.167  0.3145  0.1662  0.0281
12990W        W29251  12.060   6.414  16.050 -0.2215  0.2661 -0.2328
12991W        W29252   6.754  12.246  12.491 -0.0498 -0.3236  0.2936
12992W        W29253  10.358   8.789   1.787 -0.1272  0.3781 -0.0673
12993W        W29254   4.392   9.308   3.398 -0.1875  0.0906 -0.1231
12994W        W29255  14.407  16.406   1.788 -0.1515  0.2057 -0.0583
12995W        W29256   1.297   4.266   3.397  0.3798 -0.1679 -0.0796
12996W        W29257   0.546  11.393   4.224 -0.1327  0.1039  0.1135
12997W        W29258  16.046   0.434  13.520  0.1288 -0.0394  0.1434
12998W        W29259  15.056   9.352   0.471 -0.0118  0.1552  0.1426
12999W        W29260  10.647   8.758  13.427  0.2494 -0.2287  0.0942
13000W        W29261  12.768  18.257   1.740 -0.0701 -0.0208  0.0996
13001W        W29262  14.700  14.362  14.190 -0.0537  0.2722 -0.1652
13002W        W29263  17.019  15.164  15.504 -0.0736  0.1614 -0.1959
13003W        W29264  13.669  14.157  10.449  0.1000 -0.1947 -0.0006
13004W        W29265   4.159  11.958   4.575  0.0218  0.2049 -0.0047
13005W        W29266   4.972   0.863   1.256  0.0707 -0.2886  0.5692
13006W        W29267   5.921   2.421  14.915 -0.2271  0.1132 -0.2359
13007W        W29268  18.229  13.207   3.551  0.1819 -0.1994  0.3749
13008W        W29269  14.858   0.382   0.001  0.2940  0.3771  0.0620
13009W        W29270  17.179  11.726   4.468  0.4482 -0.0466 -0.2478
13010W        W29271  15.616  14.026  12.812 -0.1362  0.0055  0.4815
13011W        W29272   9.978   5.500   5.048 -0.1138  0.2888  0.1649
13012W        W29273  14.628   1.529   6.765  0.1477 -0.1754  0.0641
13013W        W29274   8.025  13.423  11.785 -0.0536  0.1491 -0.1811
13014W        W29275   4.891   1.349   1.308  0.0468  0.0313  0.0717
13015W        W29276  18.252  10.995  12.346 -0.0369 -0.0959 -0.1130
13016W        W29277   0.131   6.417   2.160  0.3532 -0.2263 -0.0792
13017W        W29278  11.814  16.655   1.981 -0.2184 -0.0663  0.0188
13018W        W29279   2.403   9.358   2.126 -0.1056  0.0031 -0.2926
13019W        W29280   0.616  13.185   5.364  0.3216 -0.1934 -0.1679
13020W        W29281   4.531  13.565   2.882  0.1336  0.1546  0.2721
13021W        W29282   9.104   9.491  14.387 -0.1469 -0.0917 -0.1015
13022W        W29283   0.833   4.792  13.561 -0.1633  0.1113 -0.0730
13023W        W29284  15.739  14.791   5.033  0.2966 -0.2278 -0.1451
13024W        W29285   0.076  13.807   4.331 -0.2822 -0.1080  0.2173
13025W        W29286   8.147   0.791  15.144  0.2652  0.3207 -0.0407
13026W        W29287   8.208  13.874  16.275 -0.2489  0.1040 -0.3097
13027W        W29288  10.553   9.914   1.828  0.1804  0.1628 -0.2173
13028W        W29289  17.896   8.014   1.383 -0.3467  0.1712 -0.2412
13029W        W29290   4.672  17.667  11.127  0.1348 -0.1914  0.1009
13030W        W29291   4.449   5.761   4.886 -0.1458 -0.2620 -0.0477
13031W        W29292   7.455   3.466  13.897  0.0998  0.2011 -0.2574
13032W        W29293   7.263  15.134   0.791 -0.1150 -0.0751  0.1225
13033W        W29294   2.166   5.456   1.875 -0.0200 -0.1701  0.0509
13034W        W29295  14.437   1.764   3.575  0.0386  0.1684  0.0198
13035W        W29296   4.048   5.027   3.066 -0.0270  0.1088  0.0370
13036W        W29297  12.865  10.125   5.860 -0.3385 -0.3418 -0.1975
13037W        W29298  10.997  12.512  12.903  0.3844 -0.0867  0.1760
13038W        W29299   3.126   9.351   1.698 -0.0534 -0.0967 -0.0774
13039W        W29300  14.049  12.431   2.787  0.3594 -0.0952  0.2261
13040W        W29301   0.741   7.882   4.886 -0.4189 -0.3376  0.1431
13041W        W29302   1.707   4.782   4.718 -0.1565 -0.1644 -0.0758
13042W        W29303   3.031  15.842   5.117 -0.3213  0.3973 -0.2180
13043W        W29304  16.077   2.379  14.140  0.0424  0.1611  0.1076
13044W        W29305   2.420  12.770   0.656  0.1329  0.2286 -0.2319
13045W        W29306   7.412   2.171   0.191 -0.0728  0.1162  0.0185
13046W        W29307  14.692  13.961  12.051 -0.2713  0.2481 -0.4010
13047W        W29308  11.863   9.317   2.511  0.1040  0.1175  0.1025
13048W        W29309  17.172   4.091  12.213  0.3497 -0.0734  0.1824
13049W        W29310   1.361   1.544   5.470 -0.2449  0.1477  0.0417
13050W        W29311  12.624   1.898  14.158  0.0204 -0.1120  0.0431
13051W        W29312  14.126  16.618  12.172 -0.0123 -0.3478 -0.1240
13052W        W29313  14.946  11.141   4.112  0.0562  0.0054 -0.1548
13053W        W29314   2.290  17.327  12.335  0.0221 -0.3402 -0.0517
13054W        W29315   0.223   4.686   1.252  0.0268  0.0983 -0.0878
13055W        W29316  14.442   0.032   5.830  0.1084  0.3019  0.1063
13056W        W29317  10.482   6.873   5.341  0.1671 -0.3545 -0.2124
13057W        W29318   5.799  17.553  13.655 -0.0394  0.1954 -0.0073
13058W        W29319  18.144   8.132  12.155 -0.1959 -0.1188 -0.0837
13059W        W29320   3.379   4.582  13.452 -0.3708  0.2307 -0.2789
13060W        W29321  17.054  14.025  14.955  0.1183  0.0348  0.0345
13061W        W29322   7.291   9.136   2.069  0.1368 -0.0139 -0.0367
13062W        W29323   7.973   5.558  13.715  0.0663 -0.1301 -0.0241
13063W        W29324   2.546   3.561  13.217 -0.1172  0.1893  0.3678
13064W        W29325   0.614   6.620   1.534  0.1975 -0.2403 -0.0518
13065W        W29326  12.730   1.758  15.347 -0.0661 -0.0897 -0.4199
13066W        W29327   2.167   7.644  13.836 -0.0560 -0.2813  0.1324
13067W        W29328  17.377   7.886  15.759 -0.3634  0.2906  0.1198
13068W        W29329   8.456  17.906  11.007  0.1808 -0.4569 -0.1397
13069W        W29330   6.114   1.971  14.052 -0.0033  0.0449 -0.1921
13070W        W29331   5.309   6.950  14.671  0.3187  0.0289 -0.0117
13071W        W29332  17.209   4.503   6.071  0.1636 -0.1589 -0.0255
13072W        W29333  17.833  10.622  14.691  0.0931  0.1336  0.1700
13073W        W29334  11.930  16.488   6.080  0.1026 -0.1412 -0.4923
13074W        W29335   4.466  14.003   2.546  0.0070 -0.0875 -0.0493
13075W        W29336  10.868   4.951   0.874 -0.2571 -0.0824 -0.2025
13076W        W29337   0.489   1.337  16.247  0.1380 -0.2072 -0.1005
13077W        W29338   1.422  13.419   4.782 -0.3287 -0.0436  0.1632
13078W        W29339   4.867  16.768  15.784 -0.0229 -0.1699 -0.1060
13079W        W29340   4.776  18.124   2.749 -0.0373 -0.1232  0.0562
13080W        W29341   1.215  15.564  14.572  0.0181  0.0279  0.0656
13081W        W29342   6.703   5.598   4.561 -0.1061 -0.0412 -0.0143
13082W        W29343   4.521  18.217   2.030 -0.1895  0.1448  0.1620
13083W        W29344  15.430  17.693   5.354  0.0253  0.2477 -0.1597
13084W        W29345   6.685   5.273  13.318 -0.0690 -0.4934  0.1255
13085W        W29346  12.532  10.867   0.742  0.0099  0.0570 -0.1197
13086W        W29347   1.481  11.505   0.032 -0.1883  0.4663 -0.0322
13087W        W29348   4.758   8.861   1.591 -0.1177  0.1419  0.2712
13088W        W29349  13.431   5.150   2.648  0.0796  0.0317  0.0541
13089W        W29350   9.143   8.624   2.859 -0.2492 -0.1999  0.3429
13090W        W29351   0.614  10.758  15.499  0.0710 -0.0090 -0.1305
13091W        W29352   9.042  10.865  13.406  0.0402  0.0267  0.0144
13092W        W29353  15.793   7.372  13.177  0.0586 -0.0692  0.0400
13093W        W29354  11.009  11.290  12.559 -0.0084 -0.0814 -0.4521
13094W        W29355   8.828  11.578   1.998 -0.2065 -0.1193 -0.4358
13095W        W29356   2.195  10.104  16.119 -0.0632 -0.1831 -0.0359
13096W        W29357   3.962  17.381  13.756 -0.0776  0.2674 -0.1218
13097W        W29358   4.080   1.782  15.661  0.1065 -0.3965  0.0399
13098W        W29359   7.310   0.775  10.145  0.3859 -0.0693  0.0763
13099W        W29360  18.134   5.899   1.810  0.1887 -0.1231  0.2730
13100W        W29361   0.107  11.716   2.867 -0.0601  0.0184 -0.3275
13101W        W29362   4.439   0.842  15.762 -0.2327  0.4047 -0.0341
13102W        W29363   9.962   0.291   0.043  0.1399  0.1811 -0.1321
13103W        W29364  17.822  14.625  12.401 -0.0687  0.2256  0.0141
13104W        W29365  18.368  16.567   1.840  0.1324 -0.0720  0.1920
13105W        W29366   1.623   9.986  14.032  0.0862 -0.0471  0.2372
13106W        W29367   1.951   4.035  14.380  0.3053 -0.1529 -0.3195
13107W        W29368   3.436   8.377   1.477 -0.0737  0.2089 -0.0305
13108W        W29369  16.530  14.232  15.990  0.0839 -0.2928  0.2761
13109W        W29370  12.925   2.689  13.057 -0.0580  0.1988  0.0559
13110W        W29371  12.560  14.582  14.746 -0.2841  0.1266 -0.4554
13111W        W29372   2.361   8.872  11.130 -0.1960  0.0524  0.4446
13112W        W29373   5.571   8.627   2.026 -0.2032  0.0508 -0.1496
13113W        W29374   0.206  14.348   0.975 -0.0371  0.0161 -0.1932
13114W        W29375  10.607   0.371  16.300 -0.2601  0.0654  0.0511
13115W        W29376   8.898  10.885  12.728 -0.2373  0.0478 -0.1200
13116W        W29377   4.089  11.380  15.799  0.0243 -0.2272  0.1787
13117W        W29378   3.819   7.290   4.736 -0.3183  0.2621 -0.0687
13118W        W29379   8.564   0.022  11.730  0.2071 -0.1600  0.0848
13119W        W29380  10.747  17.386  14.426 -0.0443  0.3533 -0.1873
13120W        W29381  12.162   1.409   5.096  0.0484  0.0994 -0.0569
13121W        W29382  16.677   5.464   3.544  0.4567 -0.1449  0.2914
13122W        W29383  17.097  16.568  14.357 -0.2686 -0.0774 -0.1708
13123W        W29384  11.427   3.825   5.574  0.0718  0.1179  0.1426
13124W        W29385  11.516  13.510   2.806 -0.1029  0.1353 -0.2354
13125W        W29386  10.155  14.225  11.013 -0.2051 -0.0914 -0.0027
13126W        W29387   9.670  12.289   2.558 -0.1861 -0.2361  0.0749
13127W        W29388   8.731  16.926  12.731  0.0226 -0.3388 -0.3431
13128W        W29389  16.248  15.259   5.567 -0.3128 -0.0679 -0.0257
13129W        W29390  10.771  13.191   4.320 -0.1018  0.1204  0.0064
13130W        W29391   8.239   2.327  15.973  0.0850  0.1431 -0.0525
13131W        W29392   0.505   5.780   4.412  0.2070 -0.1375 -0.2758
13132W        W29393   3.532   8.977   4.332 -0.0948 -0.0163  0.0259
13133W        W29394  13.567  10.586  12.240 -0.2974  0.0706 -0.1150
13134W        W29395  17.019  13.603  15.241 -0.0536  0.1296  0.2318
13135W        W29396  18.086  10.200  14.056  0.2869  0.1608  0.0176
13136W        W29397   4.773   4.528   2.227 -0.1488  0.4666 -0.1162
13137W        W29398  11.718   3.497  16.115 -0.0138  0.1584 -0.1557
13138W        W29399  13.154  10.769   3.705 -0.2597  0.0300  0.3233
13139W        W29400  16.339   7.790   2.733  0.0443 -0.2633 -0.0056
13140W        W29401  16.251   8.359   3.971 -0.1049 -0.0590 -0.3555
13141W        W29402   6.979   0.812   2.953 -0.3042 -0.1947 -0.0143
13142W        W29403  16.745   9.418   2.641  0.1578  0.0084  0.2380
13143W        W29404  12.017   7.329  10.033  0.0085  0.2450  0.3263
13144W        W29405  11.836  16.194   4.112 -0.1629 -0.0585 -0.0028
13145W        W29406  15.569   9.298   0.350  0.2198 -0.1514  0.0037
13146W        W29407   4.544  15.862  15.854 -0.0332  0.0861 -0.0169
13147W        W29408   8.091  15.822   0.787  0.0717 -0.1083  0.3020
13148W        W29409   5.582   9.005   2.396  0.0420 -0.0258 -0.0956
13149W        W29410  10.103  10.566  11.730  0.0752 -0.3546  0.0612
13150W        W29411   4.805  16.018  12.555 -0.1886 -0.1485 -0.0842
13151W        W29412   1.143   6.634   4.557 -0.1738  0.0916  0.1878
13152W        W29413   3.683   2.613   3.630 -0.0639 -0.0790  0.6413
13153W        W29414  13.535   4.244  14.299 -0.0531  0.1665  0.1950
13154W        W29415   0.112  16.184   4.035 -0.0036  0.1849  0.0682
13155W        W29416  14.592   4.596  16.059 -0.3249  0.1720 -0.1221
13156W        W29417   2.216   5.699  15.886  0.2952  0.0755 -0.1433
13157W        W29418   8.707   8.560   1.942 -0.4433  0.0715 -0.0990
13158W        W29419  12.792   5.192  11.560  0.2243 -0.0382 -0.1206
13159W        W29420  11.713  13.075   0.422  0.2082 -0.0885  0.1088
13160W        W29421   3.322  10.489  12.951  0.0734 -0.1162  0.1097
13161W        W29422  17.171  13.821   3.001  0.1436 -0.3242  0.2233
13162W        W29423  11.574   8.971   2.837  0.1983  0.0716 -0.1281
13163W        W29424   8.481   0.601  14.459  0.0049  0.4246  0.0049
13164W        W29425  12.375  15.560  14.356 -0.4238 -0.0184  0.0723
13165W        W29426  10.653  12.215   3.571  0.1119  0.0172  0.4796
13166W        W29427  17.386  12.547  15.977 -0.3024 -0.0845 -0.3220
13167W        W29428  12.458  14.744  11.993  0.0156 -0.0784 -0.1910
13168W        W29429   1.661   7.553   3.720 -0.2397 -0.2881 -0.1202
13169W        W29430   3.010  16.527   3.976  0.1419 -0.0976  0.1823
13170W        W29431   6.531   3.901  14.955  0.2007 -0.0560 -0.1634
13171W        W29432   1.163   3.679  12.307 -0.0176  0.0219  0.1645
13172W        W29433   3.233   0.894   1.711  0.1400 -0.2002 -0.0756
13173W        W29434   3.804   1.230  15.429 -0.0044  0.0124 -0.1421
13174W        W29435   3.567   2.684   4.840  0.0070  0.2459 -0.1760
13175W        W29436  14.696  15.981  15.342  0.0505  0.2144  0.2155
13176W        W29437  10.143   4.790  13.177 -0.0258 -0.2192  0.1200
13177W        W29438  10.435  12.396   4.078 -0.1888 -0.0540  0.1143
13178W        W29439  18.172   4.434  12.926  0.3686  0.0219 -0.3213
13179W        W29440  16.713   6.378   3.998 -0.0828 -0.0701 -0.3187
13180W        W29441   1.941   4.989   0.679 -0.1453 -0.1433  0.1285
13181W        W29442  16.556   2.646   5.421 -0.0160 -0.2327 -0.1388
13182W        W29443   8.960   4.715   2.601 -0.3066  0.1162  0.0083
13183W        W29444   6.379   2.062   0.265 -0.0160  0.0939 -0.0861
13184W        W29445   6.296  12.650  13.788 -0.0703  0.0391  0.0359
13185W        W29446   8.945  15.017  13.539 -0.1050  0.0524  0.1804
13186W        W29447   1.426   2.959  11.572 -0.1220  0.2635 -0.2842
13187W        W29448   1.563  11.584   2.658 -0.0035 -0.0900 -0.0857
13188W        W29449  15.357   2.266   5.331  0.0955  0.0132  0.0121
13189W        W29450   3.906   7.606  13.913 -0.0313  0.0849 -0.3121
13190W        W29451   1.149   1.689   2.647  0.1494  0.0948 -0.0084
13191W        W29452   7.072   9.334   2.816  0.0025  0.0566  0.4975
13192W        W29453   2.547   3.170   1.769  0.1234 -0.2010  0.1855
13193W        W29454  13.396  13.556   4.883 -0.0302  0.0498 -0.3398
13194W        W29455   3.622  10.648   6.155  0.1695 -0.0638  0.0298
13195W        W29456  14.507   2.060   4.536  0.0140 -0.1888  0.1193
13196W        W29457   5.715   0.261   2.377  0.0047 -0.0425  0.0175
13197W        W29458  15.246   0.142   3.679  0.1876 -0.0502  0.0023
13198W        W29459  11.115  17.344   3.989  0.0800  0.0583 -0.0059
13199W        W29460   1.092  12.708   3.001 -0.0476 -0.0818  0.3362
13200W        W29461   3.571   3.342   2.541  0.1241 -0.3516 -0.0221
13201W        W29462   3.126  17.992  13.696 -0.1791 -0.0712 -0.1784
13202W        W29463   7.272   6.018  11.105  0.2064 -0.2506 -0.1361
13203W        W29464   6.115  16.843   4.115  0.0394  0.1036 -0.0883
13204W        W29465   5.535   4.318  12.185  0.2264 -0.0582  0.0128
13205W        W29466   5.664   2.492   5.749  0.0293 -0.1405 -0.1641
13206W        W29467   0.178  12.945   5.624  0.1019  0.2454  0.1489
13207W        W29468  15.445   9.401  14.109  0.2026 -0.0599  0.1181
13208W        W29469   4.330   3.417   0.667 -0.2335  0.0818  0.2838
13209W        W29470  17.049  12.596   1.695 -0.2263 -0.2784  0.1059
13210W        W29471   9.644  16.229   0.286  0.0098 -0.1457 -0.0354
13211W        W29472   2.486   9.872  12.021 -0.0432 -0.0042 -0.0926
13212W        W29473   6.467  10.947  13.718  0.0325 -0.3829 -0.2905
13213W        W29474   9.295   9.665   3.823  0.1482  0.3047 -0.0635
13214W        W29475  16.372  12.326  12.057 -0.1908 -0.1044  0.0722
13215W        W29476   0.727   4.504  14.107  0.1105 -0.1692 -0.0428
13216W        W29477   8.904   5.082   1.633  0.2988  0.0194  0.1622
13217W        W29478   4.964   9.341  11.132 -0.0194 -0.4463 -0.0981
13218W        W29479   9.232   5.261   0.192  0.3088 -0.1534 -0.1459
13219W        W29480   2.689  15.467  13.128 -0.0952 -0.1575 -0.3009
13220W        W29481  14.878   2.563   5.916  0.1424  0.2664  0.0563
13221W        W29482  10.679  14.604   3.717 -0.6247  0.0333 -0.3094
13222W        W29483   5.791   6.302  15.238 -0.2931  0.2748 -0.0532
13223W        W29484   6.418  12.364  14.304  0.1105 -0.1396 -0.2947
13224W        W29485  12.744   4.874   4.891  0.2950 -0.0634 -0.0854
13225W        W29486  11.069   2.327  14.706  0.2944  0.0675 -0.1299
13226W        W29487  17.309  10.687   1.978  0.2493 -0.0894  0.0527
13227W        W29488  13.112   3.514   2.727 -0.1539  0.4067 -0.1063
13228W        W29489   8.220   2.687  13.306  0.1088 -0.2142  0.1489
13229W        W29490   1.632   5.298  15.295  0.1430 -0.1218  0.1849
13230W        W29491   0.408   8.492   1.966  0.0412  0.4347 -0.0225
13231W        W29492  15.589  12.816   5.648  0.1127  0.0167 -0.0284
13232W        W29493   8.148   3.650   3.041 -0.2047  0.0080  0.0089
13233W        W29494  10.170   9.830   3.808 -0.2144  0.1025 -0.0966
13234W        W29495   0.522   0.861  16.262  0.2802 -0.1892  0.0848
13235W        W29496  10.991   0.662  16.042  0.4065  0.1419  0.2026
13236W        W29497   8.268  12.295   4.241 -0.0323 -0.1383  0.0261
13237W        W29498  10.969   0.321   4.591 -0.2677 -0.0256 -0.2024
13238W        W29499  13.298  14.555  10.414  0.2387 -0.1026 -0.0089
13239W        W29500  16.107   1.201  14.158  0.0061  0.1822  0.0692
13240W        W29501   7.803   3.437  14.677 -0.1509  0.1275 -0.1137
13241W        W29502  16.373   7.486   1.318 -0.2708 -0.0361 -0.0206
13242W        W29503   8.798  15.076   2.695  0.3465 -0.2438 -0.6111
13243W        W29504   1.599  11.799  15.829  0.2262  0.2489 -0.0233
13244W        W29505   6.555   5.543  12.419  0.0843  0.1227 -0.0204
13245W        W29506  10.312  11.735  11.058  0.2114 -0.2243 -0.1328
13246W        W29507   3.751   2.206  14.912  0.1392  0.5718 -0.4193
13247W        W29508   1.712   2.252  15.468  0.0600  0.0862  0.2695
13248W        W29509   1.900  17.390  13.831 -0.0188 -0.2967  0.2414
13249W        W29510  17.019  17.541   3.594  0.2408 -0.3343 -0.4061
13250W        W29511   7.215  13.307  12.041 -0.2888  0.0746  0.0250
13251W        W29512  13.057  10.148  11.722 -0.2498  0.1022 -0.0289
13252W        W29513   7.043   4.258  13.277  0.1318  0.1824 -0.0605
13253W        W29514   3.601  14.117  15.043  0.0265  0.0482 -0.0312
13254W        W29515   6.101   1.695   1.743 -0.3674  0.1301  0.0668
13255W        W29516  10.716  16.004  12.900  0.1548 -0.1649  0.3120
13256W        W29517  13.827   8.347   1.456  0.2434  0.0466  0.1947
13257W        W29518   0.570  13.719   4.414 -0.2218 -0.2551  0.1214
13258W        W29519   5.651  13.510   3.789  0.4864  0.2079 -0.3197
13259W        W29520  13.913  18.247   3.055 -0.1999 -0.0349 -0.1353
13260W        W29521   6.656   1.972   4.529 -0.1807 -0.0391  0.2445
13261W        W29522   3.033  12.796  16.090  0.1281  0.0024  0.0438
13262W        W29523   9.523   9.106  13.597 -0.4074 -0.0461  0.0212
13263W        W29524   0.902  10.796  11.522 -0.2043 -0.1051  0.0532
13264W        W29525  12.086   2.435  14.794 -0.0999  0.2733 -0.1130
13265W        W29526   0.224   5.908  15.002 -0.0951 -0.2358 -0.2646
13266W        W29527  14.950  15.602  12.111 -0.1006 -0.1220 -0.0175
13267W        W29528   5.709   5.498   3.566  0.2389  0.2427 -0.3498
13268W        W29529  15.473   2.737   5.116  0.3553  0.1264 -0.3470
13269W        W29530  11.323   7.728  13.668  0.2077  0.0733  0.2946
13270W        W29531  14.910   3.871  13.153 -0.2667 -0.2299 -0.0437
13271W        W29532   5.630  14.831  12.118 -0.0002 -0.1658  0.3410
13272W        W29533   4.066   4.554  14.091 -0.0928 -0.0392 -0.0640
13273W        W29534   1.578   9.355  12.612 -0.0925 -0.0789 -0.3761
13274W        W29535  18.325   3.319  13.164  0.2189 -0.2088  0.0727
13275W        W29536   8.468   3.625  13.163 -0.0093  0.2765  0.2863
13276W        W29537   7.764   4.252  12.265  0.1178  0.1581 -0.0420
13277W        W29538  13.692  14.744   4.079 -0.1489  0.1530  0.1596
13278W        W29539   0.800   7.362  13.883 -0.4348  0.0745  0.3081
13279W        W29540  15.672   0.113  14.938 -0.2712  0.1884 -0.2643
13280W        W29541   1.517  15.045   3.287 -0.0467  0.0716 -0.1178
13281W        W29542   3.637   0.209  15.285 -0.0578  0.2807  0.0617
13282W        W29543  14.174   8.230   3.081  0.1002 -0.0648  0.1129
13283W        W29544  16.031  13.922   0.183  0.0780  0.2890 -0.0097
13284W        W29545  15.541  10.136   4.504 -0.1515 -0.1917 -0.3735
13285W        W29546  10.079  17.902   5.158 -0.3222 -0.0083 -0.1765
13286W        W29547   3.223   7.872  13.190 -0.2050  0.2262 -0.0295
13287W        W29548   9.431   2.765  15.464  0.1793 -0.0982 -0.3137
13288W        W29549   6.535   8.437  11.733 -0.0133  0.1478  0.1120
13289W        W29550   6.568   2.187   5.341  0.2215  0.3036  0.0364
13290W        W29551  12.960   0.451   2.350  0.2191  0.1393  0.2443
13291W        W29552  11.107   9.342   4.659 -0.2922 -0.0262  0.0873
13292W        W29553  14.404   7.872  14.970  0.1948 -0.1684  0.0991
13293W        W29554   1.001  11.563   1.963  0.0866 -0.0866 -0.0333
13294W        W29555   2.085  14.269   4.387 -0.0050  0.2672 -0.0940
13295W        W29556   6.177   5.563  14.663 -0.0428 -0.0774  0.0011
13296W        W29557  13.152   7.245  10.235 -0.2535 -0.0148 -0.0382
13297W        W29558   9.806  14.934   4.392  0.2252  0.1884 -0.2167
13298W        W29559   7.685   6.728   0.928  0.1721  0.0309 -0.1975
13299W        W29560   5.161   1.397   3.489  0.1000  0.0228  0.2287
13300W        W29561   9.418   0.774  14.080  0.2644  0.0891  0.0056
13301W        W29562   5.507  15.082   3.739 -0.0188  0.0969 -0.1045
13302W        W29563  14.181  11.381  13.983 -0.0061 -0.1235  0.2200
13303W        W29564   4.810   2.636   4.081 -0.1523  0.0036  0.2770
13304W        W29565  16.693  11.771   2.326 -0.0651 -0.5348 -0.2014
13305W        W29566   6.495  17.434   2.285  0.0483  0.2482 -0.0076
13306W        W29567   5.061  15.207   1.267  0.1615 -0.0787 -0.3128
13307W        W29568  12.434   7.450   5.438 -0.0435  0.0127 -0.1678
13308W        W29569   0.473   2.556  12.809  0.0585 -0.0902 -0.1371
13309W        W29570  11.251  10.098   2.517  0.2365  0.2146 -0.0530
13310W        W29571  14.214   8.496   6.089 -0.2104 -0.2375 -0.2656
13311W        W29572   2.300   2.267  15.222 -0.0253  0.1359  0.0411
13312W        W29573  11.643   3.496   4.468  0.1051  0.0318  0.3666
13313W        W29574   3.335   3.716   5.322 -0.1757  0.1786 -0.4056
13314W        W29575  17.090   5.538   5.350  0.2144  0.1330 -0.1554
13315W        W29576  11.728  16.193   5.690  0.2285 -0.2071  0.2408
13316W        W29577   9.248   7.439  13.638 -0.2118 -0.5816 -0.1559
13317W        W29578  18.023  17.928   1.963 -0.0905 -0.0666 -0.0263
13318W        W29579   9.347   5.497  12.017 -0.0861 -0.0158 -0.0424
13319W        W29580   6.754   0.190  13.137  0.2640 -0.0878 -0.0610
13320W        W29581   3.048   9.875   5.248  0.0324 -0.0392  0.0637
13321W        W29582  16.001  10.284   5.911  0.2683  0.0345 -0.0258
13322W        W29583   9.678  17.555   0.749 -0.1008 -0.1768  0.1568
13323W        W29584   8.033   4.519   0.548 -0.0071 -0.1432  0.0184
13324W        W29585   9.538  11.097   5.466 -0.1101  0.3309 -0.0088
13325W        W29586   6.588  17.685   5.934 -0.0479 -0.1206  0.0843
13326W        W29587   3.094   5.012  11.388 -0.3980 -0.0202  0.1200
13327W        W29588   5.873   0.143  12.020  0.0872  0.0918 -0.0343
13328W        W29589  10.971   4.629   4.609  0.0564  0.4459  0.0962
13329W        W29590   8.255  11.122  12.405 -0.0538  0.0372  0.1189
13330W        W29591  15.927  17.136   4.691 -0.0958  0.2927  0.1407
13331W        W29592  16.457  16.663  14.910 -0.0058  0.5226  0.1754
13332W        W29593   8.251  17.898   1.719 -0.1287 -0.3711  0.0962
13333W        W29594  14.588   1.098   1.546  0.3494 -0.4587  0.3429
13334W        W29595  13.249  15.261   4.672 -0.1465 -0.0202 -0.0661
13335W        W29596  11.257   0.465  11.667 -0.1020 -0.0456  0.0859
13336W        W29597   6.949  10.905   1.480  0.0522 -0.0362  0.0242
13337W        W29598   6.206  10.164   2.938 -0.1732  0.1612  0.0923
13338W        W29599   5.493   6.673   3.796 -0.0623 -0.1651 -0.1258
13339W        W29600  11.604  17.150   2.052 -0.2359  0.2588 -0.1926
13340W        W29601   5.488  12.121   1.498 -0.2835  0.1179 -0.0045
13341W        W29602   7.910   4.575   2.857 -0.1327 -0.0263 -0.1157
13342W        W29603  18.121   4.824   4.912 -0.1384 -0.0712 -0.3490
13343W        W29604  13.116   5.608  12.325  0.1982 -0.1436  0.0337
13344W        W29605   8.587  14.067   2.495  0.1871 -0.2443  0.1102
13345W        W29606   6.324   5.014  15.487 -0.0466 -0.0396  0.0804
13346W        W29607  10.575  12.463  14.400  0.0760  0.2459 -0.1058
13347W        W29608  16.758  10.577   2.121  0.2599  0.3072  0.1558
13348W        W29609  15.351   5.135   5.713 -0.1332 -0.1076  0.1378
13349W        W29610  13.010  17.419   6.068  0.2386 -0.0283 -0.1135
13350W        W29611  10.330  16.857   0.939  0.0286  0.2047 -0.4674
13351W        W29612  17.817  10.661   2.193 -0.2499  0.2936  0.3584
13352W        W29613  13.380   8.515   2.198  0.2021  0.1153  0.1489
13353W        W29614   0.117  13.019   3.121 -0.1807 -0.3114 -0.2495
13354W        W29615  12.665   5.372  12.559  0.0441  0.4267 -0.0409
13355W        W29616   8.933  13.372  10.694 -0.1388 -0.0083 -0.0331
13356W        W29617   3.690   9.150  14.831  0.1047  0.1879 -0.1023
13357W        W29618  10.989   9.295   0.223 -0.1254 -0.1479 -0.2692
13358W        W29619  15.266  10.826   3.123 -0.2236  0.1829 -0.1034
13359W        W29620   1.154  15.967  14.182 -0.2718  0.0974  0.1248
13360W        W29621  10.918  13.890  13.351  0.1127  0.3247 -0.2711
13361W        W29622  14.006   2.200   1.624 -0.2312 -0.1843 -0.0563
13362W        W29623  14.125  12.970  14.170 -0.3544 -0.1909  0.0334
13363W        W29624  10.248  17.743  13.660 -0.1040 -0.1523 -0.5032
13364W        W29625  17.655   8.742   3.642  0.1498 -0.1579 -0.0346
13365W        W29626   1.104  17.089  12.719  0.0095  0.3226 -0.0247
13366W        W29627  16.543   7.488  12.866  0.1065 -0.1714 -0.2191
13367W        W29628  12.595   3.602  13.080 -0.1492 -0.1261  0.4016
13368W        W29629   6.808   8.996  10.950  0.0321  0.1296 -0.3601
13369W        W29630  11.326  11.643  12.412 -0.2214 -0.1818  0.0284
13370W        W29631   7.793  18.259   5.476  0.1045  0.0442 -0.0980
13371W        W29632   4.202  13.378  14.924  0.3020 -0.2735 -0.2884
13372W        W29633  16.146  16.837   5.052  0.1482  0.0301 -0.2177
13373W        W29634   4.783   1.956   0.484  0.0676  0.1216  0.0137
13374W        W29635   5.093   0.876   3.585 -0.0744  0.1476  0.3186
13375W        W29636   4.586  17.105   0.426  0.0772  0.0991 -0.0651
13376W        W29637  11.485  11.265  14.341  0.0789 -0.0918  0.1955
13377W        W29638   9.441   2.776   4.023  0.1430 -0.2880 -0.1186
13378W        W29639  16.970   3.921  14.424 -0.1618 -0.1432  0.1930
13379W        W29640  17.374   2.448   2.211  0.0194  0.0330  0.0860
13380W        W29641  10.082   3.095   5.217 -0.1572 -0.3514  0.0036
13381W        W29642   4.512  17.775   4.325 -0.1215  0.1408 -0.1869
13382W        W29643  17.007  13.877   0.868  0.1699  0.0823 -0.1277
13383W        W29644  11.153   7.644  12.170  0.0837  0.1212  0.0253
13384W        W29645  15.799   8.341   3.268 -0.3287 -0.1966  0.2415
13385W        W29646   7.088   3.322  12.034 -0.2772 -0.0234 -0.2096
13386W        W29647   4.921  13.754   1.499 -0.2222 -0.1331 -0.1556
13387W        W29648  16.852   9.341  12.208 -0.0653 -0.0143 -0.2612
13388W        W29649   1.542  17.713  10.724  0.2736 -0.3366 -0.1311
13389W        W29650   8.867  15.522  13.741  0.0524  0.0708  0.3288
13390W        W29651  13.333  16.258  14.068 -0.0757  0.0333 -0.1709
13391W        W29652   7.104  14.109   1.352 -0.1165  0.0608 -0.3590
13392W        W29653   5.084   2.036   2.715  0.0049 -0.0554  0.2385
13393W        W29654   4.631  12.036  13.646 -0.0295  0.0583  0.1480
13394W        W29655  16.687  15.487  13.439  0.0559 -0.1255 -0.1507
13395W        W29656   2.945  15.308  14.476 -0.1962 -0.1022 -0.1166
13396W        W29657   9.536  13.607  11.222  0.1200  0.2342 -0.1639
13397W        W29658  13.297   8.663  12.445 -0.2293  0.5512 -0.0327
13398W        W29659   0.034   7.351   3.326 -0.2152 -0.1273  0.2636
13399W        W29660   7.959   4.027  16.112  0.0025 -0.1266 -0.0070
13400W        W29661  17.317   3.308   0.707  0.2078  0.0086  0.1418
13401W        W29662   3.055   0.132  13.671 -0.4458 -0.3340 -0.2512
13402W        W29663   8.529  18.103   3.271 -0.0246 -0.1456  0.1077
13403W        W29664   1.337  13.632  11.782 -0.1853 -0.0330  0.0632
13404W        W29665   2.369  16.609   3.251  0.0368 -0.3950  0.1687
13405W        W29666   6.227  10.390   4.713 -0.0553 -0.2365 -0.1866
13406W        W29667   3.364   7.280  11.816  0.0183 -0.2399  0.0166
13407W        W29668   4.494  12.168   1.051  0.0511  0.2923 -0.1945
13408W        W29669  14.055   4.197  11.021 -0.1002 -0.1349 -0.2645
13409W        W29670   7.260   2.929  13.596 -0.0621  0.0684 -0.0934
13410W        W29671  14.516   8.404   0.838  0.2485  0.0051 -0.4567
13411W        W29672  16.094   2.466   2.352  0.0881  0.0148  0.3403
13412W        W29673  10.244   5.132   2.881 -0.0865  0.1762 -0.0399
13413W        W29674  11.180   6.591   2.637 -0.2175 -0.0246 -0.0960
13414W        W29675   3.050   5.500   5.039 -0.0171  0.1142 -0.1965
13415W        W29676   1.898   5.059  12.047  0.0952  0.2103  0.2175
13416W        W29677   1.553   2.548   2.633 -0.0168  0.0577  0.2424
13417W        W29678   5.620   8.559  11.812 -0.2806 -0.0720 -0.1271
13418W        W29679   5.099  14.443  14.894  0.0604 -0.0546 -0.0511
13419W        W29680   6.143  10.501  10.043 -0.2373 -0.2651  0.0855
13420W        W29681   6.191  11.355   2.032 -0.1039 -0.1006 -0.1801
13421W        W29682  16.041   1.164   0.138 -0.3515  0.1356 -0.1413
13422W        W29683  14.315   7.138   2.089 -0.2020 -0.1940 -0.0829
13423W        W29684   0.182  14.876   1.322 -0.1953  0.0904 -0.0266
13424W        W29685  16.809  14.676   0.756  0.4454  0.1634  0.0205
13425W        W29686   5.769  13.591   0.176  0.1320 -0.4688 -0.1346
13426W        W29687   8.016   1.182  16.245 -0.2434 -0.1204 -0.0772
13427W        W29688  16.405   8.002  11.884 -0.0250  0.3850  0.1544
13428W        W29689   8.964  10.299  10.505 -0.3483  0.3089  0.1887
13429W        W29690   4.457  15.356   5.024  0.1037  0.0028  0.0092
13430W        W29691  14.068  15.550   0.645  0.0299 -0.0818  0.2576
13431W        W29692   7.835  12.228   3.355 -0.2176  0.0451 -0.0677
13432W        W29693   3.788   0.352   1.406  0.4261 -0.2053 -0.1964
13433W        W29694   9.677  14.383   1.055  0.3754 -0.0946  0.1594
13434W        W29695   3.091   0.103  15.853  0.3415 -0.2660  0.1629
13435W        W29696   7.305  17.092  12.882 -0.1700  0.1287  0.1663
13436W        W29697  12.473   0.921  14.257  0.0837  0.1098 -0.2430
13437W        W29698  10.663  12.223  12.168 -0.0879 -0.1777  0.1258
13438W        W29699  15.580   6.481  14.790 -0.2795  0.0274  0.1029
13439W        W29700   5.852  13.005  12.324  0.0345 -0.0077 -0.2616
13440W        W29701   9.672  14.017   4.488 -0.0179 -0.0491 -0.0843
13441W        W29702  14.538   0.497   5.834 -0.0470 -0.2191  0.2686
13442W        W29703  16.638   5.095  14.789  0.3732  0.0221 -0.0174
13443W        W29704   9.239   4.842  13.139 -0.3388  0.1151 -0.0935
13444W        W29705  18.110   4.695   0.448  0.0534 -0.0566 -0.0660
13445W        W29706  16.053   6.810  11.732  0.2994  0.2677  0.3093
13446W        W29707   9.848  13.667   5.795 -0.1802 -0.2324 -0.0551
13447W        W29708  12.301  14.250  13.921  0.5211  0.1624 -0.0412
13448W        W29709  10.297   0.041   3.448  0.2737 -0.0468  0.0186
13449W        W29710   6.494   2.035   3.121 -0.0593  0.1376  0.0215
13450W        W29711  11.380  13.173   2.437  0.0877 -0.0733 -0.3660
13451W        W29712   0.515  12.146  14.944 -0.1934 -0.2069 -0.0427
13452W        W29713   9.538   2.756  12.950  0.2195  0.1353 -0.0773
13453W        W29714  11.326   5.322   0.651 -0.0936  0.2298  0.3876
13454W        W29715   3.450  10.847   3.749 -0.0593 -0.0296  0.2461
13455W        W29716   8.818   7.066   2.270  0.1683  0.0659  0.0167
13456W        W29717  14.838   5.858   3.916  0.2530  0.1697 -0.2484
13457W        W29718   0.640  13.033  12.895  0.0538 -0.0154 -0.0279
13458W        W29719   4.894   9.530   5.742 -0.0567  0.4723  0.0694
13459W        W29720  12.274  11.102   0.269  0.0374 -0.3234  0.0807
13460W        W29721   9.487   2.194   3.443  0.0183  0.0244  0.1745
13461W        W29722  15.673  15.070   3.078 -0.2215 -0.1679 -0.0623
13462W        W29723  13.524   2.341   3.392 -0.5039 -0.0575  0.1314
13463W        W29724   2.987  15.974   4.092  0.0033  0.0455 -0.3029
13464W        W29725  16.104   8.958  12.726 -0.3492 -0.0484  0.0618
13465W        W29726   3.366   5.019  12.295 -0.2057  0.0482  0.1400
13466W        W29727  13.391  13.568  15.238 -0.0731  0.2535 -0.2849
13467W        W29728   8.329   8.271   4.887 -0.1646 -0.0310  0.0452
13468W        W29729   6.045  15.360  14.297 -0.0043  0.3909 -0.0958
13469W        W29730  13.681   2.831  14.755  0.5129 -0.0782  0.4929
13470W        W29731  11.829   5.950  13.591 -0.0991  0.1345  0.1513
13471W        W29732   7.965   3.245   2.834  0.2722  0.1927 -0.0004
13472W        W29733   0.753   0.832   5.771  0.0624 -0.2885  0.1081
13473W        W29734   6.080  11.537  11.230  0.0815 -0.2588  0.3528
13474W        W29735  12.188  12.803  13.645  0.1453 -0.2108  0.1413
13475W        W29736   9.248   6.373   1.224  0.0981 -0.1987  0.3227
13476W        W29737   0.781   2.230   1.262  0.0242  0.2256 -0.1815
13477W        W29738  12.041  14.593   4.734  0.2847  0.0803  0.2329
13478W        W29739   3.625  13.973   1.483 -0.3366  0.1781  0.3413
13479W        W29740   5.067   8.654   3.200  0.0515 -0.2640  0.3612
13480W        W29741  10.682  11.681  12.384  0.2142 -0.1368  0.3132
13481W        W29742   4.789  11.312  14.273  0.2274 -0.2544  0.1514
13482W        W29743  14.140  10.812   4.363 -0.2524 -0.1079 -0.0197
13483W        W29744   4.651  13.315   3.557 -0.0804 -0.5471 -0.0740
13484W        W29745   6.733  13.789  12.733 -0.2109 -0.1004 -0.1271
13485W        W29746   7.133   3.808   3.871  0.2960 -0.1459  0.0417
13486W        W29747   5.975  10.907  13.382  0.3322 -0.3531 -0.3387
13487W        W29748   8.711  12.148  14.244  0.0763 -0.0873  0.0103
13488W        W29749  12.395   6.162  14.974 -0.0559 -0.1096 -0.0657
13489W        W29750   9.011   6.722   5.252 -0.1614  0.0182 -0.1504
13490W        W29751  16.195   2.571   0.083  0.1407  0.2478  0.0323
13491W        W29752   9.820   3.658  14.047 -0.1035 -0.3261 -0.0465
13492W        W29753  10.849   7.325  14.098 -0.0737 -0.0604  0.0881
13493W        W29754   1.759   3.369  11.533 -0.1452  0.0974 -0.1658
13494W        W29755  12.319   4.653   5.068  0.0010  0.0355 -0.0752
13495W        W29756   2.144   7.386   5.375  0.2179  0.2493  0.4170
13496W        W29757   2.177   6.650  14.259  0.0294  0.1366  0.1060
13497W        W29758  13.228   7.173  13.865  0.1102  0.0433  0.1328
13498W        W29759  10.887  11.004   2.333  0.2209  0.2546 -0.0152
13499W        W29760   2.199   4.529   4.591 -0.1041 -0.1610  0.0494
13500W        W29761  17.380  11.073   5.914  0.2541 -0.1084  0.1981
13501W        W29762   4.219   2.187   2.326  0.0095 -0.1145  0.1710
13502W        W29763  12.851  10.049   0.457  0.0063  0.2366  0.1793
13503W        W29764   4.054  14.244  14.801 -0.1255  0.0122  0.0070
13504W        W29765  15.339   9.873  11.937 -0.1539  0.1951 -0.1351
13505W        W29766   2.463  14.447   2.325 -0.0090 -0.0491  0.0333
13506W        W29767  17.132  10.084  11.536 -0.3581  0.1505 -0.0348
13507W        W29768   2.600   9.798   3.333 -0.0630 -0.2717 -0.3550
13508W        W29769   3.802   3.626   1.583 -0.1994  0.3070  0.1023
13509W        W29770  16.537  13.394   5.673 -0.0244  0.2127  0.0942
13510W        W29771   2.297   3.343  15.509  0.1976  0.0859 -0.1658
13511W        W29772   3.489   8.832  10.793 -0.3178  0.0742  0.2222
13512W        W29773   1.901  12.321   5.510  0.4275 -0.0854 -0.1124
13513W        W29774  16.121   3.442   5.674 -0.3041  0.1209  0.0137
13514W        W29775   8.025   2.869   3.180 -0.1559 -0.0260 -0.1004
13515W        W29776   8.097   5.717  13.216  0.0713  0.2649 -0.0487
13516W        W29777   3.517   3.492  12.696 -0.2051  0.1424  0.0699
13517W        W29778   6.490   8.912  14.301  0.1838 -0.0691  0.0352
13518W        W29779   7.817  11.275   3.570 -0.0605 -0.0191 -0.2146
13519W        W29780  14.060   7.863  14.548  0.1766 -0.0039 -0.2320
13520W        W29781   5.024   5.118  13.206 -0.0307  0.0083  0.2429
13521W        W29782   1.768  14.375   1.402 -0.0130  0.0077 -0.1480
13522W        W29783   9.670   5.098  16.227 -0.0539  0.0732  0.3238
13523W        W29784   0.802  15.298  14.491  0.0891 -0.0856 -0.0132
13524W        W29785   8.606  10.028  13.854  0.1208  0.0585  0.0218
13525W        W29786   5.288   2.268  13.025  0.0155  0.4059  0.1565
13526W        W29787  11.727   1.147   4.331 -0.2832 -0.2338 -0.0940
13527W        W29788  11.337  16.686   3.339  0.5109 -0.1525 -0.0072
13528W        W29789   4.733  16.189  14.781  0.1317  0.0406  0.0995
13529W        W29790   7.455   4.946  12.987 -0.0059 -0.3951 -0.1116
13530W        W29791  13.021   2.186  15.132  0.0353 -0.1661 -0.2748
13531W        W29792  15.719   7.443   0.968  0.0201  0.0495  0.2028
13532W        W29793   7.512   4.920  12.396  0.1996 -0.0920  0.1235
13533W        W29794   4.205  10.847   4.466  0.1830  0.1397  0.1820
13534W        W29795  11.362  10.888   0.035  0.1730  0.0270  0.0695
13535W        W29796   0.198   5.422   3.479  0.1833 -0.0135 -0.0735
13536W        W29797   4.512  16.696  15.441  0.2873  0.4047  0.1025
13537W        W29798   2.100   3.688   0.696 -0.2120  0.0896 -0.1408
13538W        W29799  11.382   2.345   1.816 -0.1957 -0.0122 -0.0299
13539W        W29800   6.536  16.404  11.696 -0.3273  0.3323  0.0606
13540W        W29801  16.841  17.777   3.182  0.2603  0.4043 -0.0827
13541W        W29802  15.691  16.822  16.226  0.0182  0.0093 -0.3646
13542W        W29803   0.959   0.376  13.625 -0.1762  0.5554  0.0055
13543W        W29804   8.636   7.842  14.709 -0.0609  0.3622 -0.0124
13544W        W29805   7.282   7.732  12.219 -0.1032 -0.0102 -0.1186
13545W        W29806   5.785  14.982   0.626 -0.2863 -0.0298  0.2102
13546W        W29807  13.142   6.912   4.851 -0.3140 -0.0819  0.1175
13547W        W29808  13.561   6.668  14.492  0.1909  0.3364  0.0480
13548W        W29809  16.165  11.277  14.160  0.0549 -0.0274 -0.0828
13549W        W29810   3.668   6.208   5.059  0.0815 -0.1892 -0.3063
13550W        W29811  12.771   2.644   0.871  0.1069 -0.1470 -0.2735
13551W        W29812   0.139   1.793  15.468  0.1744 -0.2305  0.0774
13552W        W29813  13.887  12.614   5.024  0.0196  0.0629 -0.3762
13553W        W29814  13.080  16.863   2.702  0.2170  0.0188  0.4051
13554W        W29815  10.492   3.440   5.237  0.0588  0.2065  0.1613
13555W        W29816  15.768  12.956   4.019  0.0592  0.1325 -0.0698
13556W        W29817   0.476   5.950   5.684  0.1721 -0.0553 -0.2150
13557W        W29818   3.583  11.471   0.740  0.0944 -0.0150 -0.0274
13558W        W29819  17.851   9.158   3.419  0.0116  0.2405  0.1210
13559W        W29820   6.143   5.070  16.052  0.0906 -0.0100  0.0123
13560W        W29821   9.542  16.663   0.116 -0.2168 -0.0486 -0.1062
13561W        W29822  11.084  17.293   3.495  0.2493 -0.0655 -0.1193
13562W        W29823  17.973   6.044   0.122 -0.3591 -0.0223 -0.1487
13563W        W29824  16.692   4.760   5.425 -0.2711  0.1363  0.0106
13564W        W29825   1.945  11.526  14.976  0.0302  0.0906  0.0528
13565W        W29826   5.496   2.770  15.229 -0.0330 -0.1372 -0.1908
13566W        W29827   4.394  10.507  14.939  0.0486  0.0603 -0.1828
13567W        W29828   4.210   3.303   1.709 -0.1318  0.0354  0.0284
13568W        W29829   8.910   4.099  15.731 -0.1557 -0.2051 -0.2795
13569W        W29830  18.136  18.266  14.212  0.2134  0.1928 -0.0115
13570W        W29831   6.793  15.689  16.163 -0.1477 -0.0279  0.1160
13571W        W29832   9.115  10.151   0.123  0.1180 -0.1060  0.1771
13572W        W29833   9.331  11.056   3.075  0.1481 -0.4097  0.0771
13573W        W29834   6.216   6.322   1.115  0.0171 -0.0941 -0.1413
13574W        W29835   5.069  15.728  15.862  0.1896 -0.2181 -0.0195
13575W        W29836  13.276  14.677  15.472 -0.2335  0.0412  0.0790
13576W        W29837  17.357   8.321   2.417 -0.0620  0.1737 -0.1275
13577W        W29838   2.481  15.519   1.140  0.1760 -0.2908  0.0002
13578W        W29839  14.685  13.168  13.323 -0.2638  0.0267  0.0839
13579W        W29840   4.270  11.775   2.868  0.0352 -0.1109  0.0666
13580W        W29841   8.650   2.291   3.499  0.1432  0.3028  0.0713
13581W        W29842   6.342  16.266   0.478  0.1161  0.2141 -0.0917
13582W        W29843   4.074   5.079  13.606 -0.0610 -0.3792  0.0414
13583W        W29844  16.538   0.461   2.789 -0.0264 -0.2899  0.0839
13584W        W29845   2.928   8.246  14.683  0.2541  0.3699  0.1534
13585W        W29846  16.819   9.032  14.371 -0.0714 -0.2563 -0.1820
13586W        W29847   0.949   1.101   3.809 -0.0690 -0.2222 -0.1020
13587W        W29848  13.326  11.892   0.670  0.3005 -0.0241  0.1649
13588W        W29849   7.138  12.286   4.410 -0.1460  0.2320 -0.2908
13589W        W29850   3.217  12.673  11.298 -0.2085 -0.1727  0.3642
13590W        W29851  11.668   3.549   2.387 -0.0184  0.0587  0.3018
13591W        W29852   7.211   7.918   3.483  0.0638 -0.3042  0.1263
13592W        W29853   6.291  16.920  15.409  0.1919  0.0630  0.1765
13593W        W29854   1.043  17.690   3.512 -0.2283  0.1977  0.1020
13594W        W29855   5.917   1.774   4.017  0.0679 -0.0793 -0.1048
13595W        W29856   9.703  12.526  15.087 -0.3466  0.3656 -0.0475
13596W        W29857  15.691   8.218  15.320 -0.0071  0.0073 -0.1187
13597W        W29858   1.372   7.544   0.912 -0.0251  0.0256 -0.0012
13598W        W29859  14.738  14.806   4.157  0.0798  0.0211  0.0119
13599W        W29860  15.587   1.609  15.248 -0.0380 -0.0061 -0.0126
13600W        W29861  16.984  12.093  14.577 -0.0634 -0.0158 -0.0020
13601W        W29862  15.240   5.624  13.224  0.0024 -0.0239 -0.0006
13602W        W29863  13.521   4.236  11.090  0.0243 -0.0046  0.0392
13603W        W29864  14.433   3.812   5.269  0.0056  0.0195 -0.0339
13604W        W29865   8.224   3.209  14.201 -0.3576  0.0596  0.2016
13605W        W29866   0.955   1.921   0.395 -0.1613 -0.1433  0.3081
13606W        W29867   7.595   0.830   4.657  0.1413  0.0975 -0.0992
13607W        W29868   5.179   0.298   1.475 -0.1339  0.0239 -0.1645
13608W        W29869  16.235  10.646   0.548  0.0741  0.2643  0.0110
13609W        W29870   1.537   9.642   5.652 -0.2167 -0.1739  0.0102
13610W        W29871  10.265   6.652  15.565  0.4406 -0.2315  0.1255
13611W        W29872   4.692   3.869  13.653 -0.0588  0.0012  0.1290
13612W        W29873   6.235  15.359   5.435  0.0882  0.2556  0.1415
13613W        W29874   9.658  10.646   2.841  0.0496 -0.2269 -0.0323
13614W        W29875   3.893   4.754  15.678 -0.0758  0.0651 -0.2544
13615W        W29876   5.376  17.434   0.044  0.0602 -0.3313 -0.2449
13616W        W29877   1.119  10.682   4.027  0.2386  0.0416 -0.0197
13617W        W29878   2.136  11.392   0.367  0.1830  0.0899 -0.0704
13618W        W29879   1.914  12.779   0.418  0.0783 -0.1523  0.0982
13619W        W29880   1.715   4.280  13.127 -0.1948 -0.1246 -0.1843
13620W        W29881   1.565   6.716   1.403 -0.0005  0.0792  0.1232
13621W        W29882  10.175  13.490   1.139 -0.1947  0.0273  0.1758
13622W        W29883   3.390  15.872   2.028  0.1279  0.0299 -0.1060
13623W        W29884  14.273  14.223   4.714  0.3081 -0.0649  0.0803
13624W        W29885  11.633   0.219  13.582 -0.0024 -0.1283 -0.2569
13625W        W29886   7.483   3.395   0.781  0.2477  0.3602  0.0979
13626W        W29887   3.524  10.129   5.944  0.2768  0.1451 -0.2120
13627W        W29888  18.201   0.693  14.284  0.0332 -0.1230 -0.2344
13628W        W29889  15.676  15.481  12.732 -0.3772 -0.1398  0.1329
13629W        W29890   9.694   9.393   1.760 -0.0062 -0.0094 -0.1279
13630W        W29891   8.224  16.137  15.493 -0.2001  0.2805 -0.0678
13631W        W29892   9.434  16.173  12.923  0.1974 -0.1323 -0.1914
13632W        W29893   8.774   1.712   1.959  0.1726 -0.5420  0.1948
13633W        W29894   0.298  12.778   2.681 -0.1203 -0.3710 -0.0278
13634W        W29895  12.488  17.520  14.665  0.0689  0.3030 -0.3090
13635W        W29896   9.145   8.630   0.086  0.0806  0.0983  0.1608
13636W        W29897   4.367  15.993   3.754 -0.0694  0.3644  0.0531
13637W        W29898   2.157  14.763   1.465  0.1731  0.0582 -0.2016
13638W        W29899   9.579  12.606   1.187 -0.0563 -0.1570 -0.3918
13639W        W29900   7.175   2.622   4.705 -0.0161 -0.0250 -0.5168
13640W        W29901   3.139  11.234   6.313  0.3146  0.1234 -0.0862
13641W        W29902  12.576  18.286  14.261 -0.2227 -0.0146 -0.1852
13642W        W29903   9.631   2.409  13.889 -0.2573  0.1853 -0.0994
13643W        W29904  13.092   5.811  14.235 -0.1061 -0.3381 -0.1637
13644W        W29905   6.794  12.828  14.579  0.0606  0.2685 -0.2721
13645W        W29906   7.471   9.312   0.193 -0.2829  0.0327  0.0196
13646W        W29907   6.007   0.886  13.096 -0.0616  0.2272 -0.2473
13647W        W29908   6.578  13.418   1.955 -0.0708  0.0855  0.0285
13648W        W29909   8.534  14.134   0.962  0.0591 -0.1233  0.1294
13649W        W29910   7.170   2.529   5.779  0.2051  0.2092 -0.0404
13650W        W29911   4.382  17.825  12.593 -0.1492 -0.0526 -0.1191
13651W        W29912   2.836  12.862   1.818  0.1528 -0.1013  0.0162
13652W        W29913  17.818   1.797   0.389  0.2806 -0.3713  0.0979
13653W        W29914  14.091   5.086   0.849 -0.2077 -0.0423  0.2926
13654W        W29915   2.992   8.622  15.069  0.1833 -0.1325 -0.0032
13655W        W29916  10.142  17.400   1.045  0.1499  0.0270 -0.0652
13656W        W29917  13.723   7.790  14.969 -0.0685 -0.0135  0.0185
13657W        W29918   2.202   6.780  14.851  0.0916  0.0013 -0.4023
13658W        W29919  16.474   3.901  14.273  0.2093  0.0670 -0.1257
13659W        W29920  17.821  17.845   5.613  0.0597 -0.1298 -0.1825
13660W        W29921  10.810  14.600   1.789 -0.1751  0.2049 -0.2647
13661W        W29922   9.230  13.796   2.484  0.0587 -0.2775  0.1556
13662W        W29923  12.826   1.661  12.473  0.1476 -0.1993  0.0553
13663W        W29924  11.908  12.536  11.433 -0.0244  0.0617  0.2738
13664W        W29925   0.204   8.212  12.800  0.0972  0.3143 -0.2178
13665W        W29926  10.166   0.016   2.968 -0.1470 -0.2504 -0.2360
13666W        W29927   1.682  17.551   1.065  0.1936 -0.2774  0.0699
13667W        W29928   8.571  16.670   0.541 -0.5189  0.1173  0.3247
13668W        W29929   6.098  14.656   5.546  0.0838  0.0814  0.1099
13669W        W29930  15.351   6.201   4.512  0.2332  0.1592  0.2586
13670W        W29931  12.406   8.264  12.547 -0.0569  0.2603 -0.1040
13671W        W29932   4.010   4.794   1.100  0.1973 -0.0728  0.1406
13672W        W29933  11.856   6.228   2.178  0.0004  0.5954 -0.1611
13673W        W29934   8.329   0.760   1.256  0.0403  0.1166 -0.1819
13674W        W29935   4.538  17.191  15.551 -0.0004  0.1344  0.3341
13675W        W29936  14.231  12.866   6.434  0.1215  0.0631 -0.0834
13676W        W29937   1.026   3.159   5.327  0.0211 -0.0609 -0.0279
13677W        W29938   1.157  13.526  15.930 -0.0483  0.0882  0.1505
13678W        W29939   5.949  15.811   4.108 -0.0692  0.3047  0.0539
13679W        W29940   5.131  11.072   5.093 -0.3421 -0.1033 -0.0875
13680W        W29941   6.718   6.780   1.954  0.2441 -0.2459  0.1094
13681W        W29942   9.163  13.030   1.417  0.0667 -0.2601 -0.0115
13682W        W29943  13.731   2.527  12.404  0.3938  0.0951  0.3303
13683W        W29944   2.076   4.552  15.468  0.0516 -0.2391  0.1087
13684W        W29945  14.279   1.376  14.819  0.1081  0.1634  0.1514
13685W        W29946   3.528  15.809  14.174 -0.4189  0.1449  0.2779
13686W        W29947  13.931   1.397   4.626 -0.0475 -0.0175  0.1142
13687W        W29948   7.441  17.068   4.220 -0.0020  0.1185  0.0472
13688W        W29949   7.487  12.164   2.139 -0.1097 -0.1096  0.0281
13689W        W29950   5.063  18.228   1.267 -0.3084  0.4322  0.1262
13690W        W29951   1.214  16.586   4.729 -0.0959 -0.0159  0.1287
13691W        W29952   7.314   2.474  15.775 -0.2264  0.2532  0.0024
13692W        W29953  13.045  15.986   1.461 -0.2491  0.3239 -0.0024
13693W        W29954   2.973  12.401   4.770  0.4679  0.0380 -0.1180
13694W        W29955   8.346   9.493  14.869 -0.1522 -0.0179 -0.0596
13695W        W29956   0.140   3.364   1.549 -0.3188 -0.2912 -0.1451
13696W        W29957  18.005   4.232   5.804  0.0415 -0.0658 -0.0453
13697W        W29958   0.541  12.684  13.282 -0.3718  0.2722  0.1747
13698W        W29959   5.664  11.543  13.942 -0.0967 -0.4300  0.0720
13699W        W29960   0.133  18.038   2.085  0.0085  0.2373 -0.3435
13700W        W29961   1.538  12.287  15.073 -0.0205 -0.0884 -0.0415
13701W        W29962   8.314   5.277  13.508  0.1878 -0.3214  0.1983
13702W        W29963  12.834  12.137  14.402  0.0930 -0.0691  0.5705
13703W        W29964   0.345  15.915  12.761 -0.2490 -0.5159  0.0781
13704W        W29965   7.019  15.353   3.441  0.0248  0.0742 -0.2463
13705W        W29966   5.076  15.799  14.847 -0.1469  0.1177 -0.0009
13706W        W29967   4.247  17.089  14.367  0.3658  0.0239  0.1086
13707W        W29968   7.264  17.482  13.773 -0.2570 -0.1143 -0.2003
13708W        W29969  17.764  15.021   1.008  0.1742 -0.1016  0.1800
13709W        W29970   6.276   7.221   5.764  0.0780 -0.3242 -0.4044
13710W        W29971   5.987   2.953   4.122 -0.0348 -0.0404  0.1672
13711W        W29972   7.931   4.203   4.385 -0.0077  0.0866  0.0407
13712W        W29973  12.574   5.323  13.074 -0.0863 -0.0544 -0.1091
13713W        W29974   8.120   6.745  13.285 -0.1649  0.1929  0.1107
13714W        W29975   9.334   9.469  13.927 -0.2345 -0.0679 -0.0197
13715W        W29976  16.477  10.225   3.126 -0.0470  0.2486  0.0680
13716W        W29977  13.779  17.135   4.275 -0.2110  0.2460  0.0216
13717W        W29978   8.928  16.177   3.992 -0.1492  0.1080 -0.2725
13718W        W29979  10.832  14.298   2.823 -0.1669  0.1392 -0.1455
13719W        W29980  17.347   9.717  12.004 -0.3566  0.0985 -0.0334
13720W        W29981   5.750  15.988  15.712 -0.1385  0.1988  0.0513
13721W        W29982  11.735   2.203   1.010  0.3131 -0.2331 -0.1985
13722W        W29983  17.729  17.779  12.574  0.0586 -0.0774 -0.2195
13723W        W29984   2.694   5.831  15.506 -0.1123 -0.1783 -0.0030
13724W        W29985   0.578  11.612   0.303  0.1390 -0.1327 -0.1502
13725W        W29986  13.318   3.518   3.818  0.0981 -0.0659 -0.1780
13726W        W29987   0.138  16.829  14.864 -0.1502 -0.3480  0.0504
13727W        W29988  15.666   3.108  14.037 -0.0983  0.1691 -0.0193
13728W        W29989   5.355  17.225  14.051 -0.2143  0.1394 -0.1195
13729W        W29990  14.522  13.754   0.574 -0.4254  0.3329  0.0352
13730W        W29991  15.128  14.153   4.061 -0.2236  0.0034  0.0392
13731W        W29992  15.517  13.840   5.274  0.2977  0.0743 -0.3699
13732W        W29993   1.584   3.298  13.514 -0.0194 -0.2071  0.1307
13733W        W29994  16.558  14.772  13.842  0.2034 -0.1471  0.0648
13734W        W29995  17.379   8.793  12.070 -0.0060  0.0391 -0.1324
13735W        W29996  10.434   4.761   0.786 -0.0094  0.2040 -0.0480
13736W        W29997   3.146   4.653  12.043  0.0275  0.2502  0.2187
13737W        W29998   5.605   2.243   0.807 -0.0813  0.2180 -0.1815
13738W        W29999  16.244  10.953  10.759 -0.1005 -0.1280  0.0401
13739W        W30000   8.134   8.622  15.321 -0.0032 -0.2205  0.3113
13740W        W30001   9.943  16.293  13.058 -0.0222 -0.2376 -0.0754
13741W        W30002  14.644   4.662   0.315  0.0067  0.2399  0.3592
13742W        W30003  18.353  12.638  16.281 -0.1352  0.0647  0.1597
13743W        W30004   3.578   5.973  15.787  0.1409  0.4437  0.1956
13744W        W30005  13.611  17.789   0.813 -0.0174 -0.3476 -0.1498
13745W        W30006   7.302  18.069   1.459  0.0887 -0.2648 -0.2770
13746W        W30007  11.995   3.387   4.075  0.0923  0.1333  0.0269
13747W        W30008   9.157  13.684   3.001  0.1663  0.0927 -0.0772
13748W        W30009  14.689   9.590  13.808 -0.2697 -0.0250 -0.1452
13749W        W30010   5.369  11.964  15.511  0.1014 -0.0767  0.2789
13750W        W30011   4.886  12.291  16.208  0.1597  0.1650  0.1565
13751W        W30012   2.702  18.075   4.399 -0.2483  0.0228  0.3282
13752W        W30013  14.129  16.136  12.360  0.0730 -0.0260  0.2748
13753W        W30014  14.904   7.658  11.320 -0.1633 -0.3181  0.0035
13754W        W30015  10.677   2.791   2.802  0.1579 -0.2326  0.2266
13755W        W30016  11.169   9.810   0.900  0.0427 -0.0110 -0.2404
13756W        W30017   5.432  16.888   1.546  0.4009 -0.0423  0.1078
13757W        W30018   4.685   6.860   4.747 -0.1151  0.2557  0.2964
13758W        W30019   4.341  17.110  11.925 -0.2949  0.3245 -0.2423
13759W        W30020  15.374  15.062   4.098 -0.0946 -0.0037 -0.0982
13760W        W30021  15.512   0.219  15.568 -0.2779 -0.0183 -0.3691
13761W        W30022   4.647   9.645   0.716  0.0622 -0.0013 -0.0556
13762W        W30023  12.370   8.501   2.925 -0.1276  0.0828  0.2217
13763W        W30024   8.505   8.494  13.353  0.1555 -0.0385  0.3488
13764W        W30025   1.763  18.306  12.976  0.0778 -0.0701 -0.3279
13765W        W30026  16.578  10.917   4.795  0.1319  0.1950  0.3268
13766W        W30027  11.404  13.439   4.341  0.0189  0.0538  0.1523
13767W        W30028   7.522   0.943   3.266  0.1748 -0.0186  0.1775
13768W        W30029   3.682  17.961   0.508 -0.0845 -0.2156 -0.1639
13769W        W30030   4.501  16.637  11.952 -0.2694  0.2467  0.1556
13770W        W30031   3.310  10.738   2.712  0.0056  0.1484  0.0648
13771W        W30032  15.629   5.736  14.925  0.1503  0.1920 -0.1089
13772W        W30033  14.844  18.051   4.340  0.1647 -0.0568 -0.0636
13773W        W30034   4.035   7.345   0.498  0.1901  0.2225  0.0547
13774W        W30035   3.169  15.172  13.089 -0.1073 -0.1497  0.2249
13775W        W30036  15.138   2.640  15.213  0.0150  0.0989  0.2526
13776W        W30037  15.158  17.493   2.967 -0.1057 -0.1646 -0.0436
13777W        W30038  18.298   8.353   5.032 -0.0077 -0.3872  0.0130
13778W        W30039   0.330   0.284   0.879  0.4262  0.0313  0.0315
13779W        W30040  14.578   9.412   5.095  0.1101 -0.3560  0.1992
13780W        W30041   3.826   3.529   3.045 -0.1050  0.0655 -0.0598
13781W        W30042   3.786   6.308   1.281 -0.0971 -0.1124 -0.0017
13782W        W30043  12.552  13.527  15.236  0.0703 -0.2209  0.1363
13783W        W30044   5.816   2.895  16.282 -0.1561  0.2566 -0.4007
13784W        W30045   2.653  14.137   2.718 -0.0093 -0.1123  0.0836
13785W        W30046   8.994   8.930   9.991  0.0848 -0.1437  0.2825
13786W        W30047  15.364   0.067  13.662  0.2810 -0.1489 -0.0063
13787W        W30048  15.770   7.000   1.864 -0.0974  0.1249  0.2733
13788W        W30049  17.384   7.385   3.177 -0.3474  0.1459 -0.1443
13789W        W30050   4.464  14.294  13.563  0.0147  0.3406  0.0300
13790W        W30051   7.758   3.654  12.282  0.1365  0.0818 -0.2018
13791W        W30052  16.436   9.829  14.155  0.2286 -0.1846 -0.0813
13792W        W30053   0.744  14.698  15.752 -0.0871 -0.2349 -0.3557
13793W        W30054   5.081   3.940  13.960 -0.0170 -0.2294 -0.0012
13794W        W30055   4.446  13.890   1.830  0.0478  0.4230 -0.1166
13795W        W30056   1.653  15.468   0.819 -0.1338 -0.0796 -0.1616
13796W        W30057  16.927   9.928  12.936 -0.1898 -0.0632  0.0227
13797W        W30058  14.894  11.787   1.267  0.1161 -0.1386 -0.0883
13798W        W30059   9.910  11.580  13.389  0.1715  0.1381 -0.0838
13799W        W30060   3.667  14.530  13.158  0.0936 -0.0091 -0.0926
13800W        W30061  11.068  15.079  12.402 -0.1000  0.0297 -0.1688
13801W        W30062   3.596   9.443  11.406 -0.1500 -0.3560  0.0006
13802W        W30063   8.160   8.764  11.969 -0.1733 -0.0662 -0.0247
13803W        W30064  18.333  17.064   1.073  0.1462 -0.2674  0.2525
13804W        W30065  11.893   7.139  12.443  0.1973 -0.0091  0.2551
13805W        W30066  17.557  13.487   4.765 -0.1309 -0.2410  0.0879
13806W        W30067   5.532  14.272   2.796  0.0375  0.1535 -0.0371
13807W        W30068   9.619  13.355  11.668  0.0786  0.1209 -0.0991
13808W        W30069  10.578   0.049   2.652  0.0547 -0.2895 -0.2042
13809W        W30070  16.759  11.694  16.291 -0.3399 -0.0916 -0.0284
13810W        W30071   9.202  10.543   2.016 -0.0718 -0.1308  0.3220
13811W        W30072  16.527  12.323   4.033 -0.2218  0.1623 -0.0563
13812W        W30073  14.300  10.297   1.992 -0.4094 -0.1472  0.0892
13813W        W30074  13.604   6.745   1.982 -0.4759 -0.3753 -0.3856
13814W        W30075  17.382   4.591   4.672 -0.0281  0.0377  0.0772
13815W        W30076  12.325   7.538  12.357 -0.5012  0.2914 -0.2128
13816W        W30077   4.863   3.681  13.109 -0.1182  0.1100 -0.2603
13817W        W30078   1.921   6.000  14.980 -0.1138  0.1141  0.0960
13818W        W30079  15.877   2.927  12.914 -0.1364  0.0556  0.2253
13819W        W30080   1.708  15.964   3.575 -0.1067  0.4162  0.1378
13820W        W30081   4.981  17.864   4.633 -0.1141 -0.1278 -0.1729
13821W        W30082  10.876   5.262   0.442 -0.1313  0.2745  0.1883
13822W        W30083   6.535   8.566   1.862 -0.1629  0.0639 -0.0726
13823W        W30084   1.449   4.829  16.100 -0.0216 -0.0988  0.0723
13824W        W30085   9.750  10.633   3.818 -0.2359  0.3107  0.0297
13825W        W30086  16.314  15.156   4.341 -0.2826  0.0774 -0.0528
13826W        W30087  15.610   5.395   6.073 -0.1786 -0.2742 -0.0571
13827W        W30088  17.117  13.881  13.062 -0.0185  0.0425 -0.1198
13828W        W30089   7.981   3.256   0.965 -0.1089  0.0110 -0.2579
13829W        W30090  13.867   4.848  11.764 -0.2130 -0.3382  0.1561
13830W        W30091   3.439   6.345   2.502  0.0666  0.2412 -0.0762
13831W        W30092  18.372   6.705   1.220 -0.0084  0.0004 -0.0739
13832W        W30093   5.337   9.169   3.188 -0.0394 -0.0363  0.0140
13833W        W30094   6.726   5.129   4.165 -0.0822  0.2664 -0.2703
13834W        W30095   6.827  15.066  11.811 -0.0456 -0.2689 -0.0423
13835W        W30096   6.009   4.040  11.134 -0.1552 -0.3640  0.0085
13836W        W30097   0.234   4.503  11.494 -0.2828  0.1891  0.1594
13837W        W30098   4.464  18.035  16.204 -0.0170  0.1149  0.2649
13838W        W30099   1.939   5.392   2.847 -0.1239  0.0124  0.0262
13839W        W30100  14.144  16.922   4.473 -0.1066 -0.0580  0.1382
13840W        W30101   0.896  18.133  15.101  0.2580 -0.0286  0.2001
13841W        W30102   8.007  14.410  12.133 -0.3958 -0.0645  0.2361
13842W        W30103  16.926   7.841   0.553  0.1441 -0.0562  0.0544
13843W        W30104  11.725  14.769   9.964 -0.3409  0.1947  0.2060
13844W        W30105   0.919  10.390  14.450  0.3056 -0.3712 -0.1138
13845W        W30106   5.350   9.618  14.926  0.1000 -0.0143 -0.0766
13846W        W30107   6.076  10.707   0.105 -0.2041  0.1633 -0.1076
13847W        W30108  11.350   8.891   5.216 -0.1330  0.0763  0.2117
13848W        W30109  17.908  16.454  13.520  0.0687  0.1449  0.0151
13849W        W30110   6.541   5.712   2.608  0.0100 -0.1734  0.1189
13850W        W30111  16.469  15.123   0.782  0.0994 -0.0689  0.1712
13851W        W30112   3.987  16.009   1.799 -0.0948 -0.0075  0.0368
13852W        W30113  11.703   9.690   3.362  0.0572  0.2423 -0.0178
13853W        W30114   7.333  11.775   2.520 -0.1914  0.0740  0.1621
13854W        W30115   4.313   3.286   4.967  0.0317 -0.3276  0.2792
13855W        W30116   8.644  16.405  10.836 -0.2373  0.0026 -0.0859
13856W        W30117   8.482   1.325  16.043 -0.1174 -0.0168  0.0211
13857W        W30118  14.298  13.475   4.194  0.0196  0.0379  0.0155
13858W        W30119   1.880  12.850  11.854  0.1860  0.2874 -0.2529
13859W        W30120   5.775   0.228  13.374 -0.2879  0.0662 -0.0128
13860W        W30121   7.448   4.239  13.579  0.1220  0.1060 -0.0043
13861W        W30122  15.621  12.155   1.267 -0.0667 -0.3563 -0.0088
13862W        W30123  11.451   7.479  12.523 -0.0618  0.2892 -0.1330
13863W        W30124   3.794  11.293  14.930  0.1072 -0.0679  0.1130
13864W        W30125  15.414  12.307   2.959  0.1543 -0.1765 -0.0721
13865W        W30126   6.307   2.494   4.785 -0.3349  0.1917  0.2442
13866W        W30127   9.230   6.772   2.510  0.1181  0.2525 -0.1454
13867W        W30128  14.342  15.421   1.774  0.0524  0.2643 -0.0007
13868W        W30129   3.078   5.201  16.253 -0.1254  0.1037 -0.1861
13869W        W30130   3.757   2.100   2.543 -0.1381 -0.3492 -0.0010
13870W        W30131   2.138  11.732   3.903  0.3017 -0.1271  0.0576
13871W        W30132  16.919   7.737  12.459 -0.2768 -0.1117  0.1729
13872W        W30133  17.099   4.216   0.520 -0.1743  0.0776  0.0354
13873W        W30134   6.309   8.165   2.906  0.1402 -0.1523  0.0695
13874W        W30135  10.710  12.118   2.400  0.1262  0.1546  0.4976
13875W        W30136  13.886  11.372  12.641  0.0576 -0.4353  0.0016
13876W        W30137  18.217   3.751   5.555  0.0784  0.3053 -0.2298
13877W        W30138   7.674  14.859  16.191  0.1422  0.3155  0.1932
13878W        W30139  17.376   6.735   0.938  0.2376  0.1360 -0.0803
13879W        W30140  10.901  17.075   2.724 -0.1100 -0.0753 -0.0576
13880W        W30141  10.668  12.964   2.902  0.2007  0.0623 -0.0924
13881W        W30142   4.111  18.197  15.262  0.1679  0.2296  0.1993
13882W        W30143   8.047   1.182   4.047  0.3452 -0.0008  0.4560
13883W        W30144   4.107  13.160   0.657 -0.1554  0.1231 -0.0668
13884W        W30145   1.188   6.487   2.750  0.1475  0.1840  0.1544
13885W        W30146   3.009   5.146  11.889  0.0759  0.1326  0.4503
13886W        W30147  15.147   2.394  12.311 -0.1422  0.0957 -0.1019
13887W        W30148   8.298   7.329  10.890  0.0071  0.2339  0.5219
13888W        W30149   6.204  17.235  13.431  0.0196 -0.2304 -0.5935
13889W        W30150   1.972  12.881   0.878  0.0131 -0.4884 -0.1744
13890W        W30151  14.792   8.404  12.981  0.1094  0.2000 -0.0869
13891W        W30152   5.185   5.805   4.414 -0.2483  0.0196 -0.2031
13892W        W30153   3.941   2.773  13.238 -0.1150  0.1039 -0.0793
13893W        W30154  16.825  11.273   5.035  0.0646 -0.0851  0.1694
13894W        W30155  17.328  15.004  13.849  0.0530  0.2538  0.1917
13895W        W30156  12.074   3.416   6.218  0.0994 -0.1637 -0.0417
13896W        W30157   1.454   3.731  16.021 -0.1677  0.0330  0.1374
13897W        W30158   1.614   7.367  11.904  0.2777  0.1634 -0.1135
13898W        W30159   0.360  14.073   0.152  0.2001 -0.1903 -0.3173
13899W        W30160   6.670   5.526  16.269  0.0441  0.1945 -0.1199
13900W        W30161   5.556  16.217   2.249  0.4482 -0.0069  0.0066
13901W        W30162  12.754   2.481   5.697  0.0290 -0.1622  0.0425
13902W        W30163  15.674  17.411  14.932  0.0436  0.1349 -0.2684
13903W        W30164  15.384  14.727   2.685 -0.0967  0.1607  0.0233
13904W        W30165  15.842   8.849  13.378  0.0788  0.0945 -0.0790
13905W        W30166  15.794   0.072  14.480 -0.2109 -0.0810  0.0306
13906W        W30167  14.950   4.616  14.268  0.3251  0.0989  0.0415
13907W        W30168   4.273  17.506   3.904 -0.0694  0.0200 -0.1753
13908W        W30169   1.698  13.683   4.470  0.1758 -0.0599  0.1644
13909W        W30170   7.368   3.746  14.320  0.0140  0.0142  0.0599
13910W        W30171   0.815   1.347   4.921 -0.0056  0.0968 -0.1656
13911W        W30172   7.204   4.716  13.399  0.1479  0.0495 -0.2308
13912W        W30173   5.478   3.897   3.047 -0.2359 -0.1385 -0.1105
13913W        W30174  12.546   0.003  13.422  0.0927  0.2904 -0.2688
13914W        W30175  13.235   6.461   1.777 -0.1665  0.2339  0.0250
13915W        W30176  17.826  13.599  11.666  0.0534  0.3004 -0.2658
13916W        W30177  13.774  15.303   4.285  0.1896  0.2482  0.0822
13917W        W30178   5.757   1.668  13.466 -0.1630  0.1953  0.4211
13918W        W30179  16.701   0.294  12.838 -0.2804 -0.1128  0.0465
13919W        W30180  12.327   4.530  12.921  0.5981  0.0092 -0.1861
13920W        W30181  15.684  13.860  14.812  0.0555  0.2006  0.2043
13921W        W30182  12.102  12.431  12.817 -0.2662  0.2271  0.0781
13922W        W30183   7.362   5.725   4.103 -0.1812  0.0866  0.3111
13923W        W30184  12.023  14.712   3.190  0.1610 -0.2166 -0.3816
13924W        W30185   0.080  16.762  12.063  0.1358 -0.0559  0.2089
13925W        W30186   9.246  13.708  12.139 -0.0055  0.2122 -0.1614
13926W        W30187  18.029  17.353  12.524  0.1444 -0.1462 -0.6246
13927W        W30188   3.359   3.080  12.381  0.0140  0.0702 -0.1148
13928W        W30189  15.545  10.338  14.836 -0.3216 -0.2366  0.1683
13929W        W30190  17.651   4.394  12.193 -0.3693  0.0783  0.2595
13930W        W30191  12.844  12.229  11.555  0.0941  0.0646  0.0780
13931W        W30192   5.998  10.859   2.187  0.4352 -0.3670  0.2165
13932W        W30193  13.904   6.876   3.713 -0.0002 -0.0581 -0.0424
13933W        W30194  15.076  14.736   1.370  0.2513 -0.1075  0.2440
13934W        W30195   4.012   0.440   3.635  0.1557  0.0321 -0.3527
13935W        W30196   7.797   7.153   2.764 -0.3532  0.4643  0.1544
13936W        W30197   2.670   5.254   4.875  0.1358 -0.0794 -0.2217
13937W        W30198  11.627   6.806   2.850 -0.4029 -0.0288  0.0001
13938W        W30199   1.001   1.827  15.663  0.0391  0.1038  0.1120
13939W        W30200  13.465   4.093  15.419 -0.0894  0.0102 -0.0568
13940W        W30201  14.402  10.688   0.499  0.0021  0.0940 -0.0561
13941W        W30202  16.985  15.546   4.829 -0.1256  0.2336  0.2513
13942W        W30203   9.457   2.821  14.054 -0.1108 -0.1000 -0.0986
13943W        W30204  12.735   0.937   4.728  0.2012  0.1933  0.1537
13944W        W30205   8.817   2.279  12.338 -0.0084 -0.3367  0.1874
13945W        W30206  17.657  11.290   3.214  0.0450 -0.1054  0.0288
13946W        W30207  13.375  11.059  15.493  0.0812  0.1332  0.1893
13947W        W30208   2.600   6.800  14.505  0.0340 -0.2365  0.0701
13948W        W30209  16.141   3.957   6.499 -0.0064 -0.0042 -0.0441
13949W        W30210  15.338   7.396   1.849 -0.1004 -0.4235 -0.2058
13950W        W30211  11.533  15.381  14.547  0.1296  0.2283  0.0998
13951W        W30212   1.116  16.447   5.182  0.2647 -0.1807 -0.2084
13952W        W30213  16.634  11.874  12.245 -0.1962 -0.2898  0.2400
13953W        W30214   3.729  18.134  14.347  0.1670  0.4299 -0.0477
13954W        W30215  10.921   0.095   0.399 -0.0448 -0.4521 -0.1048
13955W        W30216  11.118   9.408   3.307 -0.0752 -0.1632 -0.0995
13956W        W30217   4.502   3.362  12.903 -0.3100  0.0019 -0.0560
13957W        W30218   7.777  15.486  13.535 -0.0160 -0.1545 -0.3404
13958W        W30219  12.530  11.205   4.983  0.2012  0.0498  0.1594
13959W        W30220   5.180   8.013   0.873  0.2375 -0.0656  0.1297
13960W        W30221  17.138  13.814   4.132 -0.4416 -0.1847 -0.0522
13961W        W30222   8.379   5.676   4.236  0.0236  0.1196 -0.1084
13962W        W30223   2.045   0.094   1.050  0.0128  0.1207 -0.2918
13963W        W30224   0.393   6.209  12.798 -0.1232  0.0394  0.0766
13964W        W30225  16.455  11.578  14.917 -0.0639  0.0486  0.2453
13965W        W30226   7.858  13.716  15.692 -0.1137  0.1872  0.3103
13966W        W30227  13.127  11.687  15.180  0.0487 -0.2062 -0.1005
13967W        W30228   7.971  15.067  15.793 -0.1832  0.1782  0.3290
13968W        W30229  10.618   3.543  15.183  0.1444 -0.2620 -0.0632
13969W        W30230  15.176  15.666  11.592  0.0697 -0.1138 -0.1591
13970W        W30231  11.309   1.450   1.297  0.0573  0.0625 -0.1467
13971W        W30232  10.476   0.773   2.467 -0.2116 -0.2872  0.1546
13972W        W30233  12.723  13.308   2.751 -0.2288 -0.0555 -0.4787
13973W        W30234   8.961  12.155  12.173 -0.1676 -0.3718  0.1751
13974W        W30235  13.314  16.063  12.108 -0.1717 -0.0593 -0.0018
13975W        W30236   4.154   2.975   4.592  0.1390  0.3143  0.1717
13976W        W30237   3.343  11.509   4.973  0.0705 -0.2230  0.2916
13977W        W30238   0.247   3.011  14.957  0.2558 -0.2620  0.3015
13978W        W30239  17.945  17.308  11.868 -0.2546  0.2075 -0.0454
13979W        W30240   1.281   2.404  11.666  0.0715 -0.0460  0.2182
13980W        W30241  16.450   3.880   1.753 -0.0402 -0.1517  0.1347
13981W        W30242  17.877   0.058   1.589  0.0873 -0.4297  0.2388
13982W        W30243  15.133  17.605   2.510  0.0780 -0.1599  0.3868
13983W        W30244  11.056   1.170   1.674 -0.0091 -0.0241  0.0289
13984W        W30245  11.991   1.106  12.942  0.0928  0.4068 -0.2704
13985W        W30246   4.299  11.265  14.342 -0.1835  0.5116 -0.5671
13986W        W30247   9.615   1.566  13.167 -0.0426  0.0555  0.4137
13987W        W30248   0.336  15.496  13.033  0.1007 -0.2123 -0.3402
13988W        W30249   4.199   3.770  12.306 -0.2229 -0.1067  0.2925
13989W        W30250  13.120  13.766   1.839 -0.0477 -0.2579 -0.3543
13990W        W30251   3.460  16.202  13.092  0.2016 -0.0770 -0.2854
13991W        W30252  16.816   4.220   5.486  0.0855  0.2457 -0.1593
13992W        W30253  13.191  15.184   2.414 -0.0426  0.0473 -0.3017
13993W        W30254   7.788  13.549   2.678  0.1672  0.0550 -0.0392
13994W        W30255   8.654   6.451  10.896 -0.0385 -0.2109  0.1449
13995W        W30256   4.185   2.726  15.569 -0.2476 -0.0979 -0.1678
13996W        W30257  11.253   8.258  15.441 -0.1116  0.0779  0.1514
13997W        W30258   2.166   0.859   4.564  0.0701  0.0828  0.1099
13998W        W30259   7.991  18.121   0.872  0.1156 -0.1344  0.1646
13999W        W30260  11.087   8.856   2.987  0.1252  0.1459 -0.1826
14000W        W30261  11.156   3.682   4.530 -0.3076 -0.2475  0.1242
14001W        W30262   0.511   3.943   2.567 -0.0620 -0.0578 -0.2942
14002W        W30263  10.164   6.748  10.669 -0.1007 -0.1023 -0.0367
14003W        W30264   4.299   1.488   1.286 -0.1183  0.1876 -0.2403
14004W        W30265  16.689  17.094   2.198  0.3851 -0.1323  0.0233
14005W        W30266   2.577   0.179   4.418 -0.3768  0.0895  0.0611
14006W        W30267  10.989  11.171   0.892 -0.1087  0.1293 -0.3324
14007W        W30268   5.172  13.980   2.967 -0.2061 -0.0111  0.0775
14008W        W30269   3.747  17.989   1.872  0.4527  0.4251  0.2233
14009W        W30270   1.882   3.771  13.258  0.0323 -0.3653  0.0290
14010W        W30271   2.390   9.553   5.769 -0.1442  0.0167  0.0277
14011W        W30272   2.886   6.427  15.120 -0.4042  0.2134 -0.0131
14012W        W30273   4.512   1.994  15.545  0.0544 -0.1171  0.0176
14013W        W30274   0.935  18.071   5.083 -0.1563  0.0317  0.1697
14014W        W30275   7.680  13.044   3.978 -0.1478 -0.3587 -0.3033
14015W        W30276  16.856  13.135   5.323  0.0370 -0.1553  0.1003
14016W        W30277   8.658   9.478   1.466  0.0789  0.1131  0.1628
14017W        W30278   1.064   6.488   5.883  0.1457 -0.2062  0.1838
14018W        W30279  15.516   6.599  12.396  0.1651  0.2415 -0.2446
14019W        W30280  14.153   3.116  14.613 -0.1966 -0.2863 -0.1328
14020W        W30281   1.266  17.450   5.810  0.3074  0.0539  0.2215
14021W        W30282  17.586  14.855  15.292 -0.0364  0.0296  0.2672
14022W        W30283   9.067   4.161   4.759 -0.0352 -0.0806 -0.0448
14023W        W30284  15.130   1.344   3.290 -0.0839  0.1450  0.1542
14024W        W30285  10.350  11.479  14.402 -0.0363  0.1823  0.2571
14025W        W30286   3.059   9.092  12.339 -0.0329  0.2497 -0.2507
14026W        W30287   5.572  13.467   1.641 -0.4844  0.2507  0.2422
14027W        W30288  12.627  17.250  15.108 -0.0937  0.0450 -0.2183
14028W        W30289  14.288  15.962   2.114 -0.0018 -0.2775  0.0755
14029W        W30290   9.907  11.822   2.981  0.2274 -0.2648 -0.2497
14030W        W30291   6.386   3.681  13.021  0.2455  0.2353 -0.0803
14031W        W30292  17.570   2.909   0.725 -0.2880 -0.2376  0.0621
14032W        W30293  12.303   9.745   1.304  0.1928 -0.1579 -0.3066
14033W        W30294  11.537   3.838  15.748  0.2101 -0.1362 -0.0281
14034W        W30295  10.982  13.293  12.337 -0.1811  0.0483  0.3024
14035W        W30296   4.623   1.185  14.872 -0.0849  0.1042  0.0721
14036W        W30297   3.495   4.782  16.007  0.4330  0.0536 -0.2025
14037W        W30298  10.186   3.432   2.463 -0.1558  0.2910 -0.0472
14038W        W30299   5.944   6.350   1.546 -0.2102 -0.2386  0.0499
14039W        W30300   3.819  16.882   2.271 -0.0607  0.0122  0.1689
14040W        W30301  14.261  17.706   1.661 -0.0283 -0.3307 -0.1695
14041W        W30302   4.828   9.398   4.827 -0.1847 -0.0221  0.1058
14042W        W30303   6.278  13.763  13.259  0.1615  0.1507  0.2019
14043W        W30304   2.766   3.261   4.351 -0.0880  0.1638 -0.1014
14044W        W30305   6.216  10.243  16.062  0.0007 -0.0338  0.2031
14045W        W30306   9.883   2.919   9.721 -0.1428 -0.2631  0.1429
14046W        W30307  12.497  13.895   2.817  0.0149 -0.1208  0.0508
14047W        W30308   8.855   5.350   0.491  0.2949 -0.0009 -0.1985
14048W        W30309   7.962   5.346   3.501  0.1837  0.0957  0.1856
14049W        W30310  11.435  10.922   4.032  0.1640  0.0541  0.0010
14050W        W30311   9.139   6.159  14.547  0.0496  0.0809  0.0564
14051W        W30312  16.187   8.041  15.155 -0.2881  0.1536 -0.4505
14052W        W30313   2.986   6.892  15.283 -0.0772  0.0919  0.3918
14053W        W30314  15.704  12.086  16.196 -0.2288  0.2033  0.1902
14054W        W30315   8.195  10.555   2.451  0.0383  0.1642 -0.1085
14055W        W30316   1.359  13.966   1.346 -0.2780 -0.0811  0.2452
14056W        W30317  10.160  15.892  14.403  0.2924 -0.0491 -0.2023
14057W        W30318  17.835  10.944  13.693 -0.0516  0.1579 -0.1184
14058W        W30319   1.414   4.228   5.172  0.1481 -0.2497 -0.1621
14059W        W30320   0.313   3.283   2.088 -0.5096  0.3052  0.1830
14060W        W30321  15.438  16.690   4.973 -0.1484 -0.0338 -0.0732
14061W        W30322   3.323  12.727  14.144 -0.0467 -0.1676 -0.1636
14062W        W30323   4.685   6.059   5.289  0.1529 -0.0006 -0.0555
14063W        W30324   8.061   5.686   5.638 -0.2028 -0.0295 -0.4473
14064W        W30325   2.315   3.628   4.818  0.1391  0.3396  0.5804
14065W        W30326   2.581  14.682  15.224 -0.5162 -0.3087  0.0387
14066W        W30327   7.499   3.789  13.478 -0.2086  0.2527  0.4703
14067W        W30328   0.346   9.744   2.650  0.1366  0.3431  0.0022
14068W        W30329  16.390   6.760   4.716 -0.0345 -0.0913  0.3760
14069W        W30330  16.067   7.601   4.656 -0.0146  0.3062 -0.2903
14070W        W30331   4.980  16.268   0.991 -0.0961 -0.0575 -0.0986
14071W        W30332  11.290  17.009   2.433 -0.1116 -0.0390 -0.0923
14072W        W30333   8.688   1.238   2.063  0.2501  0.0172  0.1857
14073W        W30334  15.789  15.060   1.938 -0.3169 -0.1755 -0.1988
14074W        W30335  10.879   5.879  14.534  0.1153  0.0642  0.1779
14075W        W30336  14.523  14.259   2.027  0.2557 -0.1100  0.3000
14076W        W30337   1.340   4.173   2.323  0.0803  0.2967 -0.3332
14077W        W30338  12.470   3.008  11.547  0.2282  0.0009 -0.0479
14078W        W30339   9.265  12.934   3.665  0.2983  0.1645  0.1326
14079W        W30340   8.386   1.487   0.651  0.0768  0.1170  0.1192
14080W        W30341  14.710  16.574   2.954  0.3058 -0.0258 -0.0829
14081W        W30342   4.779  11.231  11.719  0.3219 -0.1635  0.0040
14082W        W30343   3.350   8.083   4.582 -0.0014 -0.1857  0.0109
14083W        W30344   6.055  15.333   1.602  0.0837  0.3767  0.2430
14084W        W30345   7.774  17.308  12.606 -0.0469 -0.1709  0.0807
14085W        W30346   5.179   5.767   3.402 -0.0747 -0.1234 -0.2199
14086W        W30347   3.183  17.503  13.631 -0.0170 -0.0541 -0.2477
14087W        W30348  10.408   9.451   2.762  0.0012  0.0128 -0.1430
14088W        W30349   9.542  17.758   3.169 -0.0973  0.0586  0.0779
14089W        W30350   3.943   6.832   1.269 -0.4684  0.4316  0.2072
14090W        W30351  17.641   3.290   2.037  0.0614  0.0192  0.1051
14091W        W30352  16.500   3.528  15.125  0.0734  0.2862  0.3539
14092W        W30353  14.919  15.274  11.686 -0.1048 -0.3543  0.0139
14093W        W30354  13.979  17.662   3.327  0.1298 -0.1177  0.1005
14094W        W30355  10.865   8.912   0.956 -0.5511  0.0224 -0.3512
14095W        W30356  13.678  12.065   5.899 -0.0413  0.2592 -0.1083
14096W        W30357  14.285   9.063  15.659 -0.0503  0.2979  0.3037
14097W        W30358   7.626  10.508  14.364 -0.0874 -0.3943  0.2038
14098W        W30359  11.151  13.859   0.605  0.0102 -0.2331 -0.1431
14099W        W30360   4.969   2.023  11.951 -0.1985 -0.0968  0.1633
14100W        W30361   0.629   8.031  11.604 -0.1726  0.0383  0.0038
14101W        W30362  11.469   5.705   1.938 -0.1243 -0.3285 -0.1537
14102W        W30363   8.002  14.239  15.265  0.0400  0.1853 -0.0919
14103W        W30364   5.925  15.192   2.867 -0.1542 -0.1571  0.2807
14104W        W30365  11.914   7.126   2.033  0.2159  0.1218  0.2189
14105W        W30366   3.174   5.587  15.760 -0.0452 -0.1371 -0.0153
14106W        W30367  17.997   3.398  12.346 -0.3040 -0.4860  0.1122
14107W        W30368  16.482  16.978  13.311  0.0603  0.2932  0.0905
14108W        W30369   6.153  17.109   4.568  0.0891 -0.2583  0.0108
14109W        W30370   5.978   8.131   4.819  0.2548 -0.0023  0.1647
14110W        W30371  10.639  10.793   4.657 -0.2523  0.0266  0.2358
14111W        W30372   4.628  11.970   0.280  0.1543  0.0261  0.2596
14112W        W30373   9.765  15.281  12.754 -0.0299  0.3346  0.0255
14113W        W30374  15.614  17.602  15.854 -0.1718 -0.0662  0.1427
14114W        W30375  12.920  16.988  14.221  0.1046  0.3749 -0.1721
14115W        W30376   9.354  14.978   4.852 -0.0179 -0.2515 -0.1221
14116W        W30377  17.552   8.908   3.116  0.1211  0.1775 -0.1058
14117W        W30378  15.256   0.889   4.228  0.0306  0.0605  0.1669
14118W        W30379   3.786   6.522  13.836  0.1921  0.3328  0.0370
14119W        W30380  15.258   6.203   1.524  0.0130  0.2193 -0.2386
14120W        W30381   1.212  13.872   1.807  0.2251  0.1320  0.1407
14121W        W30382  11.313   2.598  12.432 -0.1214  0.3049  0.1454
14122W        W30383  16.560  13.821  14.616 -0.2047  0.2458  0.0787
14123W        W30384   3.814  15.486  14.371 -0.3666 -0.0600  0.0111
14124W        W30385  15.280  15.283   1.476 -0.2702  0.1206  0.2680
14125W        W30386  14.181   0.527  13.747  0.0082 -0.3380  0.0363
14126W        W30387   6.967  17.848   3.497  0.0920 -0.0111  0.1427
14127W        W30388   9.554   1.706  11.269  0.1953 -0.3195 -0.4071
14128W        W30389   6.300  14.968   5.883  0.0913  0.1033  0.0868
14129W        W30390  16.115   5.390   3.578 -0.1381 -0.0008 -0.3270
14130W        W30391   2.869  17.703  14.073 -0.1126  0.0018 -0.2528
14131W        W30392   2.160   7.431  12.880  0.0291 -0.0108 -0.0785
14132W        W30393  16.576   3.881  14.841 -0.0054 -0.2804  0.1651
14133W        W30394  14.408   6.600   3.557 -0.2956 -0.1556  0.1383
14134W        W30395  15.470   8.931   0.692 -0.0373  0.0784  0.0998
14135W        W30396   0.284  12.458   4.998  0.1698 -0.4014  0.1884
14136W        W30397   7.153   2.297  11.640  0.0742  0.3242  0.1725
14137W        W30398  17.289  14.022   1.410 -0.0977 -0.1920 -0.1052
14138W        W30399   6.214  14.378  13.336  0.0306  0.1125  0.3901
14139W        W30400  14.388  18.080   0.040 -0.0762  0.1365  0.0242
14140W        W30401  11.166  14.534   3.643  0.2665  0.0173 -0.0086
14141W        W30402   2.500  13.535  12.411 -0.1640  0.0870  0.0391
14142W        W30403  12.760   0.959  12.576 -0.4254 -0.3222  0.5333
14143W        W30404   0.077  18.057  15.970  0.0361  0.2967 -0.1167
14144W        W30405   0.237  16.545   2.515 -0.0556  0.2516 -0.1065
14145W        W30406   2.084   0.597   3.461  0.0390 -0.0907 -0.1354
14146W        W30407  11.841  10.007   1.341  0.0762 -0.1558 -0.2126
14147W        W30408  16.719   1.488  12.186 -0.1865  0.3807  0.3765
14148W        W30409   7.943   4.478   0.021 -0.0060  0.1559 -0.0343
14149W        W30410   1.334  12.904  12.080 -0.1332 -0.1974  0.1817
14150W        W30411   4.331  12.200  11.605 -0.0272 -0.0309 -0.0342
14151W        W30412   4.335  14.677  12.252  0.0787 -0.3042 -0.0254
14152W        W30413   1.757  11.060  15.113 -0.1165 -0.0102  0.1063
14153W        W30414   1.382  13.164  13.067 -0.1446 -0.2712  0.1021
14154W        W30415   4.888   5.846  13.740 -0.0899 -0.0372 -0.1775
14155W        W30416  15.846   1.133   2.490  0.1250  0.2027  0.0409
14156W        W30417   8.486   8.563  15.810  0.1490  0.0289  0.1913
14157W        W30418  10.924   0.012   3.502  0.0814 -0.2516  0.1362
14158W        W30419   3.548  12.833   2.356  0.0987  0.0498 -0.0503
14159W        W30420   4.390   1.421   2.743  0.0498  0.1349  0.0305
14160W        W30421  15.848   1.294  13.747 -0.0934  0.0757  0.1648
14161W        W30422   8.711   1.475   0.198  0.0049 -0.0288  0.1180
14162W        W30423   8.811  17.848  15.858 -0.0375  0.0345  0.1938
14163W        W30424   8.050  10.114   2.276  0.2088 -0.3246  0.1024
14164W        W30425   3.550   1.261   1.625  0.1196 -0.0613  0.1851
14165W        W30426  16.119   5.017  11.600 -0.0947 -0.3356 -0.0633
14166W        W30427   4.035   8.692   2.796  0.0680 -0.0631 -0.0682
14167W        W30428  15.646  15.991   3.640 -0.3678 -0.0794 -0.0017
14168W        W30429   8.288  12.425  14.630 -0.3151 -0.3052  0.1771
14169W        W30430   1.052  11.915   6.058 -0.2793 -0.1330 -0.0191
14170W        W30431   3.594   5.930   0.583  0.2377 -0.1302  0.1976
14171W        W30432  14.556  13.228   2.848  0.0327  0.2761 -0.0819
14172W        W30433  12.648   1.188   0.056 -0.3934  0.0560  0.1583
14173W        W30434  16.404   4.312  15.091  0.4261  0.1245 -0.1911
14174W        W30435  14.519  17.276   1.241  0.1709 -0.1204 -0.1083
14175W        W30436   7.156   2.060  12.509 -0.0973 -0.0728 -0.1076
14176W        W30437  10.867  12.553   2.198  0.1121  0.0678 -0.3807
14177W        W30438   0.993   3.442  16.147  0.0670  0.2012 -0.3900
14178W        W30439   0.775   4.398  16.142  0.0481  0.0752 -0.0002
14179W        W30440   6.808  16.886   3.615  0.2337 -0.2674  0.1490
14180W        W30441  14.991  17.208   1.118  0.1313  0.1421 -0.4708
14181W        W30442  16.125   6.053  14.129  0.0273  0.0962 -0.0747
14182W        W30443   7.373  17.900  13.470 -0.1737  0.0730 -0.0234
14183W        W30444  12.330  10.079   4.754  0.4293 -0.0609 -0.1408
14184W        W30445  12.753  10.398  10.908  0.1281  0.0993 -0.1802
14185W        W30446   2.650   9.028   1.450 -0.1838 -0.1793  0.1408
14186W        W30447   5.151   2.111   0.831  0.1218 -0.2414  0.1929
14187W        W30448   7.108   3.099  15.240  0.0795 -0.0845  0.4939
14188W        W30449   3.594  11.616  15.972 -0.1929 -0.1112  0.1270
14189W        W30450  11.385  15.930  14.523 -0.0620  0.0428 -0.0977
14190W        W30451  14.969  16.463   5.057 -0.0402  0.2119 -0.3405
14191W        W30452   9.997   6.895  13.550 -0.4234 -0.0185 -0.0297
14192W        W30453   2.123   8.417  11.917  0.1439  0.1354  0.1345
14193W        W30454  14.663   8.713   5.764 -0.2692  0.3417 -0.2055
14194W        W30455   6.771  13.549   3.017 -0.0815 -0.0875 -0.2375
14195W        W30456  18.250   3.145   2.817  0.0018  0.0673 -0.1720
14196W        W30457   3.012  11.570  13.905  0.0456  0.1226 -0.0797
14197W        W30458   9.796  12.638  12.229 -0.1033  0.0627 -0.0424
14198W        W30459   3.673  13.542  13.369 -0.2513 -0.1475  0.0721
14199W        W30460  12.455   2.954   2.446 -0.2976  0.1052  0.1984
14200W        W30461   9.749  16.682  11.733 -0.0416  0.0738 -0.2830
14201W        W30462  10.905   3.274   0.527 -0.3171  0.0156  0.0579
14202W        W30463  10.557  10.997   0.704 -0.3434  0.1650  0.0879
14203W        W30464   3.337   1.735   1.437  0.2997  0.0267  0.1910
14204W        W30465  16.143  10.468  11.556 -0.0944 -0.1478  0.2333
14205W        W30466   6.023   1.610  15.690  0.1662  0.3456 -0.0750
14206W        W30467   8.033  15.468   5.154 -0.1422 -0.2410  0.2457
14207W        W30468   4.582  16.415   4.072  0.3254  0.1960 -0.0022
14208W        W30469   5.439   2.312   3.539 -0.4257  0.0816 -0.0303
14209W        W30470   9.414   0.523   1.235  0.3103  0.0941 -0.2172
14210W        W30471   0.500  18.317   2.937 -0.0799  0.0783 -0.2188
14211W        W30472   5.008  15.643   3.191  0.0776 -0.1952 -0.1273
14212W        W30473   8.502   5.741   1.447 -0.3762  0.0217  0.1049
14213W        W30474   4.956  13.504  12.205  0.2607 -0.0280 -0.0365
14214W        W30475   0.043   4.414   4.743 -0.0564  0.1338  0.1318
14215W        W30476   8.600  10.184   2.251  0.2361 -0.0792  0.1252
14216W        W30477   3.778  11.579  12.170  0.1054 -0.1194  0.0107
14217W        W30478   6.231   0.608   4.353 -0.0609 -0.0492 -0.0501
14218W        W30479   6.873  11.477  11.151 -0.0167 -0.0221  0.0515
14219W        W30480   6.510   1.591   3.077 -0.2572  0.0931 -0.0057
14220W        W30481  11.921   5.806  12.695  0.3594 -0.1910  0.1070
14221W        W30482  16.977  13.302   6.566 -0.3762  0.1013  0.3456
14222W        W30483   9.127  16.009   0.034 -0.2376  0.1852  0.3023
14223W        W30484  13.654  17.679  12.883 -0.1454 -0.2486 -0.0214
14224W        W30485   8.333  17.995  14.293  0.1663  0.0780 -0.1610
14225W        W30486   9.665   5.208   3.285 -0.0331  0.0344  0.1643
14226W        W30487   4.825   4.660   2.732  0.1966  0.0194 -0.1428
14227W        W30488   8.179   0.522   5.065 -0.2910 -0.1615  0.2040
14228W        W30489  13.165   7.455   3.999 -0.1312  0.0145  0.0972
14229W        W30490   2.598  10.038   2.816  0.2301 -0.1707  0.4217
14230W        W30491   2.896  15.341   5.352  0.0764 -0.0588  0.2349
14231W        W30492   3.075  15.886  15.063  0.2219  0.2704 -0.0958
14232W        W30493   6.425   3.263   1.593 -0.2664 -0.1397  0.1263
14233W        W30494   7.126  10.728   3.565 -0.3274  0.2058  0.1982
14234W        W30495  13.726  17.537   2.449  0.3476 -0.1596 -0.2094
14235W        W30496  17.768  17.265  13.448  0.0495 -0.0788  0.3239
14236W        W30497  11.959   2.643   2.364 -0.3261 -0.1256  0.0673
14237W        W30498  16.364  16.139  12.135  0.2135  0.0180 -0.1029
14238W        W30499   0.621   8.769  15.618 -0.1423  0.2369  0.0211
14239W        W30500   0.218  13.714  12.247  0.2140  0.0233  0.2849
14240W        W30501  18.098  17.662  12.173 -0.3042  0.1664 -0.0995
14241W        W30502   9.035   6.777   1.501  0.0611 -0.1855 -0.1795
14242W        W30503  17.923   2.484  12.825  0.0485 -0.0531 -0.0649
14243W        W30504   8.324  16.931   3.529 -0.2432  0.3582 -0.0112
14244W        W30505   7.925   2.115   0.015  0.0225  0.1674 -0.2250
14245W        W30506   8.458   3.865  11.215  0.0713 -0.1571 -0.0030
14246W        W30507  18.049  13.614   4.640  0.0199 -0.0374  0.1009
14247W        W30508   8.899   8.323  16.068  0.2491 -0.0827 -0.2531
14248W        W30509   6.037  16.667   3.646  0.2054  0.4556 -0.0001
14249W        W30510   6.218   3.804   2.384  0.2724 -0.1244  0.1099
14250W        W30511   2.976  13.548  13.700 -0.3043  0.1833  0.1997
14251W        W30512   8.958  17.072  13.721 -0.3304 -0.3438  0.3566
14252W        W30513   5.590  17.747  13.198  0.4661 -0.2037  0.2264
14253W        W30514   4.555  13.842  11.467  0.0370  0.3600  0.2056
14254W        W30515  13.335   2.170   5.525 -0.0035 -0.0402 -0.0657
14255W        W30516   9.792   3.118   4.174  0.2293 -0.2655  0.1313
14256W        W30517   0.443  16.969   3.241  0.0918 -0.2516 -0.1938
14257W        W30518   4.603  11.375   3.003 -0.0674 -0.2948 -0.2248
14258W        W30519  18.031  16.594   0.430  0.0950  0.2653 -0.0952
14259W        W30520   9.721   1.919   4.277  0.1460  0.0910 -0.1224
14260W        W30521  10.138   3.472  16.108  0.3025  0.1524  0.0358
14261W        W30522  12.644   9.673   4.143  0.4141  0.2491 -0.0007
14262W        W30523   2.520  14.439  14.690 -0.0775 -0.1584  0.1259
14263W        W30524  11.688   3.297   2.989  0.1757 -0.0516  0.1871
14264W        W30525   7.392  15.682   0.695 -0.0277  0.1959  0.2047
14265W        W30526  12.095   6.782  12.764 -0.0636  0.4649  0.2376
14266W        W30527  17.179  15.352  13.553 -0.6147 -0.1862  0.2684
14267W        W30528  13.473   6.509   4.902  0.1416  0.1676  0.0085
14268W        W30529   2.110  16.869  16.218 -0.0167  0.1197 -0.0480
14269W        W30530   1.546  10.696  13.262  0.2254 -0.2809 -0.4179
14270W        W30531  15.127  16.081  14.915  0.5874  0.3037 -0.3296
14271W        W30532  10.078  13.560  13.932 -0.2527 -0.2044  0.1217
14272W        W30533   6.010  10.815   3.227 -0.0694  0.1474  0.0674
14273W        W30534  12.714  14.475  13.863  0.1794 -0.2123  0.0050
14274W        W30535   0.835  13.147  13.298 -0.0106  0.2231 -0.1953
14275W        W30536   9.230   6.978   0.825  0.1188 -0.0877 -0.1332
14276W        W30537   3.733  15.419   3.336 -0.0578 -0.3976 -0.1285
14277W        W30538   6.582  10.669  12.488 -0.1922  0.2100  0.0831
14278W        W30539  13.154   5.536   4.316 -0.1364 -0.0913  0.3431
14279W        W30540  13.805   6.102  13.079  0.0679 -0.2208  0.2515
14280W        W30541   7.036   0.678  12.390  0.1074 -0.2643  0.0349
14281W        W30542  12.091  15.039   2.081  0.3754 -0.0208  0.0306
14282W        W30543  10.618  17.740   2.155  0.0397 -0.2853  0.3035
14283W        W30544  17.914   3.984  12.997 -0.0336  0.0804  0.1347
14284W        W30545   4.480   2.776  12.737  0.1479  0.3932 -0.3829
14285W        W30546   7.863  12.719  11.028  0.0917 -0.0780 -0.1626
14286W        W30547  15.993   7.094   4.569 -0.1291  0.1526 -0.2150
14287W        W30548   6.404  12.598  16.044 -0.0001 -0.1283 -0.0505
14288W        W30549  16.269  13.787  15.941  0.0822 -0.2987  0.0872
14289W        W30550  14.343   7.720  12.563  0.0727 -0.0965 -0.0550
14290W        W30551  10.839  15.495  11.090  0.2661  0.2747  0.1599
14291W        W30552  14.513  12.784   1.930 -0.0793  0.0638  0.1359
14292W        W30553  11.916   4.277  14.950  0.2427  0.0405 -0.0406
14293W        W30554   3.937   8.655   3.842  0.4636 -0.0705 -0.1765
14294W        W30555   4.609   4.387   0.527  0.1177  0.0721 -0.2104
14295W        W30556   6.273  16.331  14.301 -0.1019  0.0468  0.1485
14296W        W30557  11.522  17.937   0.305 -0.1522 -0.0729 -0.1833
14297W        W30558   4.359  14.815  15.042 -0.0073 -0.3246  0.1170
14298W        W30559  10.112   9.577  15.656 -0.2107 -0.0729  0.2970
14299W        W30560   5.413   6.205   2.115  0.0021  0.1740  0.3136
14300W        W30561   9.953  14.753   1.650 -0.2757 -0.4101 -0.2999
14301W        W30562  16.983   4.240   3.618  0.0705  0.2253  0.0121
14302W        W30563  13.408  14.218   4.905  0.4277  0.2195 -0.3608
14303W        W30564  18.351  15.070   3.943 -0.2288  0.0833  0.3914
14304W        W30565   9.947   2.978   4.679 -0.0270 -0.0877  0.1613
14305W        W30566   3.891  10.702  12.599  0.1408  0.1602 -0.0251
14306W        W30567  16.561   0.514   5.016 -0.2597  0.2007  0.1558
14307W        W30568  15.913   2.689  14.511  0.0348  0.2969 -0.0061
14308W        W30569   0.923   7.477  13.364  0.0001 -0.0528 -0.2478
14309W        W30570   7.518   0.451  14.405  0.0205 -0.0439 -0.0004
14310W        W30571   9.594   2.854  13.567 -0.1311  0.1995 -0.2357
14311W        W30572  13.711   7.125   0.644  0.0006 -0.2685 -0.0796
14312W        W30573   6.638  14.309   2.173  0.0052 -0.4570 -0.2184
14313W        W30574   4.569  15.305   3.226 -0.2335 -0.0154 -0.2555
14314W        W30575  14.515   8.566  11.012 -0.1465  0.1894 -0.1251
14315W        W30576  16.678  14.444  13.495 -0.1140 -0.1969 -0.2438
14316W        W30577  15.068   5.368   4.472  0.1689 -0.1131 -0.0820
14317W        W30578  14.232  13.029   3.827  0.0791 -0.3128 -0.0654
14318W        W30579   5.589   6.790  15.618 -0.0277 -0.1913  0.2337
14319W        W30580  16.633   5.927   3.148  0.0629 -0.0279 -0.0856
14320W        W30581   0.360  17.260   3.688  0.3147 -0.3791 -0.0161
14321W        W30582   6.515  13.055  13.619  0.2359  0.2837  0.0024
14322W        W30583  11.495   2.674  11.368  0.0174 -0.1899  0.0712
14323W        W30584   0.607  14.949   5.523  0.2280  0.1174 -0.1875
14324W        W30585   0.084   9.060   2.082  0.3298  0.2620 -0.0336
14325W        W30586  16.744   3.768  12.058 -0.2482  0.1537 -0.0155
14326W        W30587   8.267   3.553  11.606 -0.0266  0.2335 -0.1334
14327W        W30588   9.411   7.289  15.599 -0.1533 -0.0405 -0.2366
14328W        W30589   4.918  12.399   3.529  0.0358  0.1479 -0.1328
14329W        W30590  12.843   8.895   1.653  0.0297 -0.3279 -0.1653
14330W        W30591   8.958   5.965   1.001 -0.2168  0.1237  0.0617
14331W        W30592  15.747   7.454   3.658 -0.0387 -0.1658 -0.0318
14332W        W30593   0.481   2.278   3.058  0.0232 -0.0837 -0.0039
14333W        W30594  10.874  17.217   1.493 -0.2096  0.1423  0.2061
14334W        W30595  16.990   4.312   1.380  0.2104  0.1553  0.4608
14335W        W30596   2.283  18.155  15.273 -0.1009 -0.2095  0.0207
14336W        W30597   6.537   5.362  11.084  0.0247 -0.3063 -0.5230
14337W        W30598   2.436   8.239  12.432 -0.1415 -0.0816  0.4408
14338W        W30599   0.562  13.693  15.740  0.1042 -0.1414  0.2007
14339W        W30600   9.560   6.826   1.202  0.0243  0.2897  0.3825
14340W        W30601  17.063   8.094   3.241 -0.0959  0.1535 -0.0977
14341W        W30602   6.591  13.008  14.122 -0.1267  0.1593  0.0482
14342W        W30603   0.480   0.725  12.538  0.2532 -0.1294 -0.0718
14343W        W30604   7.052   8.912   2.527  0.2078  0.2021 -0.0174
14344W        W30605  12.377   8.609   3.458  0.3208  0.1107  0.2423
14345W        W30606  14.584   4.227  15.221  0.2947  0.0792 -0.1327
14346W        W30607   5.080   1.315  15.139 -0.2268  0.1965  0.1930
14347W        W30608   4.435   2.294   0.611 -0.0360  0.0938 -0.0841
14348W        W30609   2.982   5.068   2.253  0.2283  0.2872  0.0468
14349W        W30610  12.419  14.681   4.311 -0.0524 -0.0493 -0.1736
14350W        W30611   0.638   3.939  13.116 -0.0627  0.0147  0.1425
14351W        W30612   5.425   5.374   1.927  0.2779 -0.0505 -0.1085
14352W        W30613  16.332   9.035   1.876  0.0642  0.1091 -0.2091
14353W        W30614   1.215  16.806  16.277  0.1507  0.4182  0.3896
14354W        W30615   5.815   2.705   4.546  0.0768 -0.1096 -0.0613
14355W        W30616   1.539   6.710   1.919 -0.0099  0.2150 -0.0531
14356W        W30617   9.826  16.979   1.020 -0.1202 -0.0166  0.2615
14357W        W30618  10.902  16.164   0.779  0.3288 -0.2250  0.2308
14358W        W30619   6.187   4.633   0.899  0.0660 -0.0105  0.0730
14359W        W30620   5.105   3.945   1.412 -0.2881 -0.1219  0.2298
14360W        W30621  10.437   7.727  15.424  0.0060 -0.0327  0.1694
14361W        W30622  17.544   7.331   0.283  0.1826  0.1156  0.1340
14362W        W30623   6.373  18.150   1.873 -0.0816 -0.0861 -0.0255
14363W        W30624   9.204  11.528   0.367 -0.1644 -0.0703 -0.0268
14364W        W30625   1.838   5.226  12.589  0.0164  0.1701  0.0579
14365W        W30626   0.771   5.685   5.392  0.3692  0.1073 -0.0748
14366W        W30627  16.567   7.817   3.715  0.0387  0.0961 -0.1207
14367W        W30628  15.393  16.334   1.708 -0.1837  0.0449 -0.1797
14368W        W30629   5.874  11.724   2.153 -0.0989 -0.1479 -0.3764
14369W        W30630  12.326   6.041  13.515  0.2417  0.1202  0.1174
14370W        W30631  12.429  15.536   6.035  0.0815  0.1189  0.0180
14371W        W30632   7.976  14.321   1.823  0.1031 -0.0205 -0.1298
14372W        W30633   7.322   3.079   2.714 -0.0635 -0.2866 -0.0201
14373W        W30634  11.993   7.243   1.525  0.2055 -0.0703 -0.0463
14374W        W30635   7.272  12.560   2.289 -0.0472  0.1461  0.2001
14375W        W30636   8.434   4.211  14.989  0.1165  0.1636 -0.1656
14376W        W30637   7.150   4.843   5.064  0.1807 -0.3567  0.4552
14377W        W30638   7.212   6.028  15.780 -0.0169  0.0542  0.1031
14378W        W30639   1.364  12.957   4.665  0.3248 -0.0010 -0.2467
14379W        W30640   6.253   2.672  14.608  0.3241  0.4990 -0.1451
14380W        W30641  16.614   6.678  12.104  0.2018  0.0885  0.1973
14381W        W30642  12.252  17.366  11.236  0.2735 -0.4984  0.0799
14382W        W30643  11.877  18.388   5.159  0.5316 -0.2609 -0.0199
14383W        W30644  11.846   8.543   2.721 -0.1728 -0.4716  0.0261
14384W        W30645   9.751  13.459  15.867  0.1477 -0.0411  0.0548
14385W        W30646  17.048   9.977   0.448 -0.2182 -0.1508 -0.1782
14386W        W30647  17.410  16.915  13.438 -0.1101  0.2001 -0.0250
14387W        W30648   3.621   2.758   5.615 -0.0603  0.2713  0.2413
14388W        W30649   0.337   2.527   2.676  0.0480 -0.0311 -0.0402
14389W        W30650  18.100   3.351   5.179 -0.3121  0.2017  0.2235
14390W        W30651   1.221  13.871  13.596  0.0610  0.1974  0.2281
14391W        W30652   3.432  17.318  11.565  0.3192 -0.1336  0.1345
14392W        W30653   1.200  14.695   4.102  0.0872  0.2047  0.0270
14393W        W30654  17.091   7.380  15.710  0.2155 -0.3828 -0.2915
14394W        W30655  13.639   1.876   1.851  0.1803 -0.1734 -0.0324
14395W        W30656   3.018  16.679   4.451 -0.3457 -0.0466  0.1077
14396W        W30657  17.427   4.616  13.415 -0.0453 -0.2192  0.0998
14397W        W30658   4.062  12.373  12.715  0.2757 -0.2024 -0.0916
14398W        W30659  17.333   9.327  10.284 -0.2530  0.1319  0.2351
14399W        W30660  10.665   6.912  15.542  0.0142  0.2656 -0.2622
14400W        W30661  17.536  16.112   1.679  0.1587 -0.0892  0.1777
14401W        W30662   6.431   7.442  14.617 -0.1573  0.2637  0.0759
14402W        W30663  16.462   5.610  16.150  0.1952  0.4342  0.1299
14403W        W30664   9.769  14.085  13.585 -0.0814 -0.0482  0.0205
14404W        W30665  15.697  13.190  11.705  0.1195 -0.0472  0.0755
14405W        W30666   3.192   6.372   0.781  0.0212 -0.0253 -0.1730
14406W        W30667   7.439   5.311  16.072  0.0990 -0.0205 -0.0361
14407W        W30668  15.240   8.436  10.176 -0.4149  0.0104  0.0027
14408W        W30669  14.293  17.832   2.956  0.2147  0.0890  0.3675
14409W        W30670   4.012   2.378  14.467  0.2391 -0.0432 -0.4621
14410W        W30671  18.041  15.549   0.734  0.0169 -0.1562 -0.1612
14411W        W30672  14.222  13.015  11.774 -0.3436  0.1243  0.1899
14412W        W30673  16.787  12.254   2.605 -0.2774 -0.0041 -0.0703
14413W        W30674   9.252  16.435  13.322 -0.0366  0.1447  0.2088
14414W        W30675  15.327   2.265  14.352 -0.0950  0.0803 -0.0614
14415W        W30676  18.254   7.471   5.294 -0.0947  0.0325 -0.1637
14416W        W30677  16.571  13.346   2.988 -0.1520  0.3582 -0.1966
14417W        W30678  11.717   6.768   3.303 -0.0216 -0.0905 -0.0768
14418W        W30679   1.592  12.740   3.308 -0.0814 -0.0902  0.2327
14419W        W30680  13.994   1.976  15.874 -0.0231 -0.0945 -0.2299
14420W        W30681   6.808   5.094   4.705 -0.0833  0.2262 -0.1948
14421W        W30682  14.392  12.582  11.504 -0.3486 -0.0001 -0.1238
14422W        W30683  15.308   6.557   1.902 -0.2063  0.0133 -0.0704
14423W        W30684  17.592  13.776  12.167  0.1588 -0.2021  0.1109
14424W        W30685   3.012  10.221   0.521  0.1536  0.0363  0.0047
14425W        W30686  17.272   8.188   5.602 -0.1278  0.0116 -0.1106
14426W        W30687   7.130  13.097   4.157  0.0821  0.1726  0.1416
14427W        W30688   3.057   9.447  13.106  0.2322  0.0473 -0.2989
14428W        W30689  13.496  17.236  12.710  0.3594 -0.4616 -0.1333
14429W        W30690   6.121  14.118   0.332 -0.0504  0.0987 -0.0146
14430W        W30691   1.063   7.429   4.698  0.2448  0.2101 -0.1189
14431W        W30692   1.264   1.706  12.156  0.0046 -0.0546 -0.0970
14432W        W30693   2.054   5.555   1.405  0.1616  0.0750  0.5237
14433W        W30694   8.401   0.824   1.892  0.1138  0.1591 -0.1545
14434W        W30695  12.774  10.539  16.201  0.3289  0.2143 -0.1601
14435W        W30696  16.128   2.514  11.557  0.0873 -0.1344 -0.0384
14436W        W30697  16.748   3.792  12.551  0.0124  0.0894  0.1106
14437W        W30698   6.747   6.466  15.660  0.0402  0.2141  0.2648
14438W        W30699  18.113  16.866  15.118 -0.0893 -0.0228 -0.0923
14439W        W30700   6.704   5.861   2.186  0.4614  0.0517  0.2264
14440W        W30701   8.862   3.588  11.123 -0.2016  0.1595  0.2382
14441W        W30702  11.080  13.791   1.550 -0.0949  0.1311  0.1225
14442W        W30703  14.812  16.235  14.508 -0.2676 -0.0598 -0.2040
14443W        W30704   8.790  16.226   3.504 -0.2016  0.5234 -0.0617
14444W        W30705  12.858   5.641   0.795  0.0482 -0.0996 -0.0825
14445W        W30706  15.833   1.074   4.895  0.0809  0.2452  0.3454
14446W        W30707   5.893   6.547  13.632 -0.0923  0.1480  0.3008
14447W        W30708   4.667  12.467  13.990  0.1907  0.0259 -0.1422
14448W        W30709   9.511  11.950   3.304  0.0531 -0.0895  0.3388
14449W        W30710   0.004   5.355   2.918  0.0063 -0.0809 -0.0839
14450W        W30711  16.445  12.376  15.663  0.2883 -0.3822 -0.1124
14451W        W30712   2.127  12.506  11.631 -0.1457 -0.2439  0.1816
14452W        W30713   4.651   0.800  13.160 -0.2254  0.0421 -0.3877
14453W        W30714   1.266  13.829   5.015 -0.0386 -0.0831 -0.0708
14454W        W30715   8.960   5.991  13.266  0.1546 -0.1056  0.5136
14455W        W30716   6.058   6.513  14.423 -0.4176 -0.1234  0.2402
14456W        W30717   2.660   7.427   2.638  0.0015  0.2280 -0.2003
14457W        W30718   3.274  14.975   0.044  0.2995  0.2349 -0.2182
14458W        W30719  16.057  11.277   0.070  0.0735  0.1234  0.3165
14459W        W30720  15.620   1.263  12.965 -0.1802  0.2298 -0.1336
14460W        W30721  12.460   6.440   4.993  0.2059  0.0362 -0.1791
14461W        W30722  10.528   9.629  14.799 -0.0670 -0.2943  0.2109
14462W        W30723   2.292  10.807   2.427 -0.3444 -0.2493  0.1325
14463W        W30724   1.812   1.616   0.277  0.2088  0.0325  0.1850
14464W        W30725   8.179  14.567  14.870  0.1014 -0.0608 -0.3068
14465W        W30726   6.180  18.160  15.919 -0.1030 -0.0021 -0.3272
14466W        W30727   0.718  14.384   0.296  0.1973  0.0010  0.4024
14467W        W30728  17.536   4.105  13.600 -0.1075  0.1347 -0.0956
14468W        W30729   5.446  10.735   2.958 -0.1898  0.0907 -0.0846
14469W        W30730   1.294  10.935  11.771  0.1028  0.1192  0.0321
14470W        W30731   9.732   1.730   5.827 -0.2699 -0.3671  0.2676
14471W        W30732   0.282   2.380   1.437 -0.0748  0.0275 -0.0606
14472W        W30733  11.788   0.198   1.212  0.1824 -0.4215  0.0157
14473W        W30734  10.687  13.121  13.370 -0.1498 -0.0588 -0.0853
14474W        W30735  16.291   3.523   5.206 -0.0163  0.0647 -0.1624
14475W        W30736   5.374  16.781  13.759  0.0420 -0.1152  0.1274
14476W        W30737   3.617   4.437   5.561  0.2955 -0.0404 -0.2486
14477W        W30738  14.584  16.599  13.271 -0.3212 -0.2352  0.0475
14478W        W30739  13.050  17.284  12.443 -0.1408 -0.2117  0.0540
14479W        W30740   0.504   6.137   5.141 -0.1703 -0.0647 -0.0076
14480W        W30741   8.568  15.326   4.359  0.0452  0.0225  0.2176
14481W        W30742   4.596   7.267   3.408 -0.1399  0.5553 -0.0251
14482W        W30743   8.635   5.532  13.169  0.0904  0.0746 -0.0046
14483W        W30744   6.567   7.702   2.911  0.4567 -0.0477  0.1833
14484W        W30745  17.606  14.740  13.547 -0.3051 -0.0567 -0.2919
14485W        W30746   9.773   0.685  16.007  0.0608  0.0370  0.1232
14486W        W30747   1.774   5.619   0.388 -0.0502 -0.3028 -0.2706
14487W        W30748   2.201   7.218  12.444 -0.1213 -0.2606 -0.0326
14488W        W30749   5.887  11.270   6.339  0.2545 -0.1078  0.2183
14489W        W30750   2.347  16.373   2.424 -0.1662 -0.1657 -0.1922
14490W        W30751   6.834   5.630   4.041  0.1144  0.1855 -0.3603
14491W        W30752  10.534  16.399   3.488  0.1369  0.1088  0.2359
14492W        W30753  13.201  14.701   1.764  0.0314  0.3481 -0.2357
14493W        W30754  11.515  11.409   1.638 -0.1865 -0.0630 -0.3331
14494W        W30755  16.712  14.787   4.489 -0.2242  0.4267 -0.0266
14495W        W30756   8.851  10.228   1.814  0.0326  0.0852  0.2014
14496W        W30757  10.990   1.307   0.885  0.0258  0.0368  0.2376
14497W        W30758   1.022  15.389  13.614 -0.2611 -0.0196 -0.3476
14498W        W30759   8.205   5.834   3.114  0.1941 -0.1283 -0.1026
14499W        W30760   8.210  12.681   2.501 -0.2399  0.1966 -0.1156
14500W        W30761   3.208  11.995  12.347 -0.2399  0.0538  0.1362
14501W        W30762   0.563  17.471   2.137  0.1712  0.1084 -0.0742
14502W        W30763   0.395   2.896   3.006 -0.0682 -0.0183  0.2806
14503W        W30764  14.881  15.545  15.674 -0.0612  0.0742  0.0249
14504W        W30765   7.555   7.441   4.056 -0.0301  0.4216 -0.1070
14505W        W30766   2.789   5.591  12.758 -0.0414 -0.2340  0.2071
14506W        W30767   2.175  13.027  15.434 -0.0670  0.2097  0.3178
14507W        W30768   4.564   3.847   0.537  0.0384 -0.4192  0.0650
14508W        W30769  17.319  16.704  15.350 -0.0309  0.0994 -0.2041
14509W        W30770   1.487   4.803  12.234  0.0490 -0.0538  0.0562
14510W        W30771  14.564  18.230   1.728 -0.2068 -0.0660 -0.0269
14511W        W30772   2.347  12.339  11.047 -0.0391 -0.0163 -0.2022
14512W        W30773   4.987  11.069  15.601  0.0038 -0.2374  0.1768
14513W        W30774   4.302   3.941  12.766 -0.1653  0.1273 -0.0646
14514W        W30775   7.243  14.405   5.036 -0.1045 -0.1352 -0.2244
14515W        W30776  16.754   0.819   2.994  0.2467 -0.2387 -0.0470
14516W        W30777   7.021   0.083   1.696  0.1523 -0.2560  0.2341
14517W        W30778  12.763  10.762  13.176 -0.2179  0.2103 -0.2009
14518W        W30779   0.182  15.692   3.163 -0.0169 -0.0273 -0.3090
14519W        W30780  17.612   0.651   0.369  0.1643  0.0305  0.0768
14520W        W30781  11.918  16.144   1.111 -0.2686 -0.0541 -0.2579
14521W        W30782  11.278  10.741  11.415  0.0085  0.2607 -0.2846
14522W        W30783  14.476  17.124  13.096  0.0968  0.2047 -0.1014
14523W        W30784   9.755  10.809  14.534  0.1746 -0.2228 -0.0410
14524W        W30785   7.856   1.873   6.199  0.1295  0.0044  0.0938
14525W        W30786  17.178  16.905   1.004 -0.0056  0.0783 -0.2864
14526W        W30787   4.769   2.188  13.979 -0.1128  0.2788 -0.0587
14527W        W30788  17.610  12.205  13.223 -0.0013 -0.0553 -0.0218
14528W        W30789   3.154   5.281   5.529 -0.1539 -0.1690 -0.3090
14529W        W30790   8.846  15.778   3.649  0.0092  0.2230 -0.0782
14530W        W30791  11.473  11.677   0.485  0.0786  0.0432  0.1638
14531W        W30792   1.198   8.627   5.442 -0.1664 -0.0061  0.2506
14532W        W30793  16.874  11.220  16.025 -0.2747 -0.3281 -0.2429
14533W        W30794  10.434   3.417   0.750  0.0371 -0.1224  0.1499
14534W        W30795   1.218  12.186  11.239 -0.0514  0.1135  0.0134
14535W        W30796   2.277   3.753   1.229 -0.1275 -0.2948 -0.2034
14536W        W30797  12.298  15.206  12.710 -0.0883 -0.0216 -0.0553
14537W        W30798   6.037   6.224  12.474  0.3082  0.2069  0.1919
14538W        W30799   0.449  10.825  11.708 -0.0892 -0.0897 -0.0032
14539W        W30800  16.874  11.128  13.510 -0.3088  0.3168  0.1675
14540W        W30801   8.943  13.351  12.312 -0.4184 -0.0255  0.1324
14541W        W30802   9.191  16.648  12.853 -0.1489  0.4346  0.5493
14542W        W30803   1.073   6.469  15.566 -0.1765  0.1449  0.1328
14543W        W30804   5.378  10.222   0.352 -0.0423 -0.0704 -0.1562
14544W        W30805   7.643  14.383   3.846  0.0106 -0.2533  0.1161
14545W        W30806  17.119   0.607   1.587  0.3574 -0.0190  0.2397
14546W        W30807  10.497   1.969   1.471 -0.2679 -0.0460 -0.2165
14547W        W30808  14.346  11.707  12.003  0.1084 -0.1028  0.1333
14548W        W30809  16.882   7.829  13.159 -0.2633 -0.4211  0.0093
14549W        W30810  18.039  14.432  13.833  0.0989 -0.0330  0.1050
14550W        W30811   2.175   9.441   1.311  0.0903 -0.2491  0.2111
14551W        W30812  12.147   5.047   1.666  0.1290 -0.0528  0.1688
14552W        W30813  12.917  10.287   4.078  0.0501 -0.2100  0.1961
14553W        W30814   2.542   0.861  13.743 -0.2233  0.2214  0.1347
14554W        W30815  17.664   7.062   4.004  0.1291 -0.0714 -0.0786
14555W        W30816  10.067   8.712  15.823 -0.1083  0.0527  0.0150
14556W        W30817   6.683  10.931   3.982 -0.1218 -0.0260  0.1822
14557W        W30818  14.935   8.248  12.483 -0.3624 -0.2944 -0.0752
14558W        W30819   8.226  12.849   2.965 -0.2221  0.0703 -0.1840
14559W        W30820  12.186   6.005   5.048  0.1461 -0.1918  0.0026
14560W        W30821   3.764   8.729   1.327  0.0007 -0.2759  0.2292
14561W        W30822   0.364  14.184  13.912 -0.0409 -0.1971  0.1125
14562W        W30823   5.102   8.550  10.004 -0.0879  0.0198 -0.1148
14563W        W30824   2.845  10.151  12.886 -0.0536  0.2438 -0.2329
14564W        W30825  15.586   4.195   4.675 -0.1389 -0.2352 -0.1096
14565W        W30826   6.433   6.337  13.552 -0.0423 -0.1151 -0.1825
14566W        W30827  17.190   2.348  12.259  0.2408 -0.1075 -0.0117
14567W        W30828   3.658   0.628   0.020 -0.0051  0.0507  0.0341
14568W        W30829  10.282  11.328  15.272  0.2051  0.1994 -0.1287
14569W        W30830   7.408  12.646   1.447 -0.1783 -0.2340  0.1521
14570W        W30831  10.753  10.686   1.040 -0.0150 -0.1396 -0.2600
14571W        W30832  10.025   2.498  12.958 -0.1911  0.0543 -0.0811
14572W        W30833  14.632  10.471   5.035 -0.1731 -0.1858  0.0830
14573W        W30834   0.743  14.294  14.276 -0.3908  0.1568 -0.1693
14574W        W30835   5.272  13.808  13.337 -0.0209 -0.0429  0.1248
14575W        W30836  10.074  13.084  15.066 -0.0918 -0.0792  0.0779
14576W        W30837  11.735  18.028  15.733  0.0493  0.4115  0.0458
14577W        W30838   5.956  13.492  12.243  0.2002 -0.0101 -0.4471
14578W        W30839   8.778   0.004   5.109 -0.1504  0.2639  0.3099
14579W        W30840   3.199   6.183  14.850  0.0044  0.1228 -0.0701
14580W        W30841  14.944  10.238  13.639  0.0149 -0.2792  0.0371
14581W        W30842   0.374   0.902   4.535  0.3232 -0.0699  0.0193
14582W        W30843   4.076   5.831  14.044  0.0784 -0.0496 -0.0388
14583W        W30844   4.773   0.434   4.654 -0.0176 -0.0559 -0.0674
14584W        W30845   5.838   3.941   3.387  0.1455  0.1784  0.2382
14585W        W30846   8.805   3.480  11.985 -0.2881  0.0226 -0.1176
14586W        W30847  11.086  12.773  13.389 -0.5125  0.1385  0.0134
14587W        W30848  13.050  15.768  12.455 -0.0822  0.2950 -0.1073
14588W        W30849   1.222   7.884  15.337 -0.6403 -0.2499 -0.1841
14589W        W30850  10.504  14.280  12.169  0.0887  0.2225 -0.0131
14590W        W30851   4.197  13.389  13.423  0.2495  0.2927 -0.0529
14591W        W30852   3.632  17.283  12.803  0.1490  0.1960 -0.1110
14592W        W30853  16.071   9.678  13.267  0.2261 -0.0361  0.2427
14593W        W30854   6.691   3.487   1.211 -0.2138 -0.0005 -0.0695
14594W        W30855   9.575  14.711   2.003  0.1583  0.0064 -0.1250
14595W        W30856  15.227   7.644  11.764 -0.1875 -0.0119  0.4490
14596W        W30857  16.920   2.134  11.649 -0.0897 -0.0002  0.1272
14597W        W30858   9.607   0.137   1.800 -0.0151 -0.0934 -0.0054
14598W        W30859  14.654   6.760   3.995 -0.1589 -0.1969 -0.0357
14599W        W30860   1.795   6.854   3.150 -0.0777  0.4839 -0.0507
14600W        W30861   6.280   5.419   0.272  0.2138  0.0232 -0.2387
14601W        W30862  15.054  14.091   2.181  0.5092 -0.0704 -0.0005
14602W        W30863   3.229   4.492   0.600 -0.0753 -0.1747  0.0607
14603W        W30864  17.880   0.891   1.087  0.0496  0.3562  0.4590
14604W        W30865  17.741  13.419  15.308 -0.1892  0.0921 -0.0255
14605W        W30866   7.198  15.709  14.253  0.1692 -0.2721 -0.0673
14606W        W30867  11.070   9.713   4.147 -0.2505  0.0174  0.1110
14607W        W30868   4.742   7.469  14.119  0.0832  0.0478  0.0750
14608W        W30869   8.528   9.198   2.156 -0.1489 -0.0369  0.3137
14609W        W30870  11.123  15.231   4.873 -0.0564 -0.0937  0.2366
14610W        W30871  10.163   7.648  11.103 -0.1994  0.1037  0.1233
14611W        W30872  16.186   9.445  15.797  0.1015  0.0638  0.0701
14612W        W30873   8.330  17.815   0.381 -0.1157 -0.0384 -0.1588
14613W        W30874  18.269   0.603  11.873  0.0074 -0.1510  0.1615
14614W        W30875   6.788   6.243  11.096 -0.2025  0.1456  0.1737
14615W        W30876   1.313   4.403  14.794 -0.0393 -0.4137 -0.0828
14616W        W30877  13.367  12.224  11.563 -0.3716 -0.0577 -0.2548
14617W        W30878   1.377  10.870   5.333 -0.0390 -0.0373 -0.0418
14618W        W30879   5.708   8.169   0.951 -0.1693  0.2903  0.1240
14619W        W30880  10.311  15.120  15.044  0.1094 -0.1524  0.0185
14620W        W30881  17.194  12.843  11.592 -0.1982 -0.3309 -0.0656
14621W        W30882   6.841   2.000  14.082 -0.0734  0.1806  0.1881
14622W        W30883  16.478  18.176  12.748  0.2235  0.0051  0.0979
14623W        W30884   2.847   0.324  16.262  0.0116 -0.0714  0.0789
14624W        W30885   1.429   3.230  15.840 -0.0872 -0.2161  0.1636
14625W        W30886   6.012   7.647   9.767 -0.1048  0.0384 -0.0030
14626W        W30887   3.283   8.382  13.891 -0.0868 -0.1761 -0.0358
14627W        W30888  17.850  17.795  11.566  0.0277 -0.1504 -0.2145
14628W        W30889   7.502  11.950  13.941 -0.1667  0.4158  0.0632
14629W        W30890  12.261   6.471  11.784  0.0425 -0.2919 -0.4633
14630W        W30891   0.903   0.112   3.718  0.0103  0.1028  0.0155
14631W        W30892   4.611  10.122  16.156  0.0686  0.1274 -0.0864
14632W        W30893  11.321   3.776   2.821  0.0371 -0.0047  0.0597
14633W        W30894   3.453  16.725   1.575  0.0138 -0.1227  0.0399
14634W        W30895   7.103  17.955  14.940  0.2465 -0.1490 -0.1172
14635W        W30896   1.249   8.814   3.448 -0.0677  0.0404 -0.2654
14636W        W30897   1.283   2.202  15.769 -0.2146 -0.2006 -0.2144
14637W        W30898   7.796   9.683   4.809  0.0558 -0.4253  0.1797
14638W        W30899   3.287  15.702  13.112 -0.2385  0.0405 -0.2410
14639W        W30900  17.470  15.076  12.695  0.0776  0.2353 -0.0960
14640W        W30901  16.399   4.375   5.652 -0.2294  0.2692 -0.0195
14641W        W30902  11.522   7.291   0.471 -0.0146 -0.4044  0.4194
14642W        W30903   3.236   6.221   1.285  0.1831  0.2303  0.1053
14643W        W30904   1.075   1.206  12.061  0.1887 -0.0633 -0.1627
14644W        W30905   9.927   5.053  14.054  0.4763 -0.2374  0.0632
14645W        W30906  10.815   9.739   5.385  0.3774  0.5023 -0.0955
14646W        W30907  11.592  14.982  15.976  0.2272 -0.1347  0.4407
14647W        W30908   9.659   1.976   0.864  0.0705  0.0597 -0.1715
14648W        W30909   9.299  18.154   5.384  0.1102  0.0406  0.1859
14649W        W30910   8.863  18.048  14.119 -0.0782  0.0910 -0.0540
14650W        W30911   4.731   8.490   1.939  0.4817  0.0828 -0.1928
14651W        W30912  10.466   4.406  13.323 -0.0287 -0.2508 -0.1094
14652W        W30913  13.768  13.646  13.536 -0.0892 -0.1216  0.3502
14653W        W30914   6.124   6.039  11.556  0.0759 -0.1959  0.2441
14654W        W30915   5.129  13.052   2.196  0.0958 -0.3253 -0.1207
14655W        W30916  15.412  12.471  15.957  0.2148 -0.2976 -0.2660
14656W        W30917   0.590   5.647   2.256  0.1832 -0.4122 -0.2303
14657W        W30918  14.282  14.178  12.414 -0.0029  0.2319 -0.1067
14658W        W30919  11.129   2.910  11.622 -0.0968 -0.0308 -0.0998
14659W        W30920  16.256  17.734   6.357  0.0099  0.0886 -0.1117
14660W        W30921  15.729  16.593  11.742 -0.0980 -0.1279  0.0589
14661W        W30922  14.516  10.015  15.234 -0.0631 -0.2952 -0.0345
14662W        W30923   9.140   6.913  14.792  0.0516 -0.1191 -0.0938
14663W        W30924   6.218   2.681   3.766  0.0780 -0.5010  0.0474
14664W        W30925  13.343  18.210   4.010 -0.2330  0.0169  0.1703
14665W        W30926   9.508  12.634   3.963 -0.1486 -0.0739  0.1078
14666W        W30927   5.746   6.424  11.137 -0.0187  0.0084  0.0964
14667W        W30928  12.815   7.372   5.012 -0.1070  0.1070 -0.1793
14668W        W30929   8.475  10.135  11.360  0.4032  0.0663 -0.1152
14669W        W30930   0.364  15.589   1.996 -0.2064 -0.3335 -0.1130
14670W        W30931  17.337  18.094  12.424 -0.1888  0.0503  0.1821
14671W        W30932   9.095   7.988   5.725 -0.0646 -0.0355 -0.1621
14672W        W30933   7.243   5.737   0.598  0.0073 -0.4937 -0.0081
14673W        W30934   0.056  16.143  16.172 -0.0458  0.2432  0.1061
14674W        W30935   1.591   3.178  13.962  0.1121  0.4729  0.0542
14675W        W30936  17.744  15.502   4.373 -0.2501 -0.0678  0.1350
14676W        W30937  16.421   9.691  10.361 -0.0166  0.1174  0.0206
14677W        W30938   1.678   8.252   2.746  0.1452  0.2141  0.3020
14678W        W30939   1.635   4.013   4.249 -0.1885 -0.1221 -0.0017
14679W        W30940   0.231   3.340   4.329 -0.0159 -0.0397  0.1014
14680W        W30941  13.024   7.116   2.476  0.2113  0.3127 -0.0814
14681W        W30942  10.226  17.235   4.997  0.1759  0.0090 -0.2036
14682W        W30943  12.083  14.571  13.092 -0.0579  0.1025 -0.2414
14683W        W30944   7.773  14.840  12.048  0.0040  0.0256  0.0198
14684W        W30945  13.289   0.868   0.518  0.0602 -0.3741  0.0278
14685W        W30946   5.688  15.250   3.316 -0.0970  0.0722 -0.1584
14686W        W30947   9.034  17.584  13.983  0.0392 -0.1214  0.0592
14687W        W30948  12.018  17.761  14.549 -0.1549  0.1382 -0.2500
14688W        W30949   0.010   1.287  15.517 -0.0140 -0.1120 -0.3802
14689W        W30950  17.297  15.727  11.982  0.2149  0.1738 -0.0362
14690W        W30951   6.589   3.334  11.713 -0.0108  0.1916 -0.0479
14691W        W30952  12.075  15.622   0.554 -0.3514 -0.3723 -0.1759
14692W        W30953  15.904  17.642   1.334 -0.0745 -0.1328 -0.0190
14693W        W30954   3.026   7.782   0.008 -0.0653  0.1176 -0.0170
14694W        W30955  17.099  10.927   0.101  0.0481 -0.2260  0.1789
14695W        W30956   2.172  14.661  15.523 -0.0929  0.0123 -0.2360
14696W        W30957   7.817  12.852   0.727 -0.1017  0.0767  0.2091
14697W        W30958   9.757   3.209   2.721  0.1266 -0.2880 -0.2727
14698W        W30959  12.612   0.461  13.217  0.0056 -0.0452 -0.0612
14699W        W30960  17.483  11.740   5.382 -0.1793  0.2068 -0.0787
14700W        W30961   0.350   7.597  11.585  0.3556  0.2706 -0.2165
14701W        W30962  13.583  12.889   0.866  0.0979 -0.1553 -0.0173
14702W        W30963   0.301   7.010   4.820 -0.3965 -0.2664 -0.2261
14703W        W30964  10.894  15.542   1.755 -0.1603  0.0347  0.2142
14704W        W30965   6.316  10.076  13.360  0.3549 -0.4296 -0.0774
14705W        W30966   2.955   0.797   4.970 -0.1707 -0.0077  0.0927
14706W        W30967  18.198   6.355  12.799  0.1163  0.1183 -0.0792
14707W        W30968   0.022   1.908  12.367 -0.1459  0.0130  0.2036
14708W        W30969  15.242  12.339  15.490 -0.1249 -0.1708  0.1886
14709W        W30970   3.952   5.146   0.525 -0.1943 -0.0269  0.3206
14710W        W30971  16.476  17.669  14.474  0.1293 -0.0313 -0.0902
14711W        W30972  17.712  10.774   5.311 -0.0280 -0.1353 -0.0034
14712W        W30973  15.787   2.496   0.406  0.0959 -0.0112 -0.3214
14713W        W30974   9.594  15.294  15.264  0.1157  0.0319 -0.1173
14714W        W30975  16.169   2.736   1.272  0.1335  0.2054 -0.0457
14715W        W30976  18.139   7.197  12.270 -0.1056  0.1839  0.1692
14716W        W30977  13.294  14.812  12.141  0.5100 -0.2259  0.0118
14717W        W30978  18.019   9.714  13.293  0.2104  0.0042  0.2160
14718W        W30979   4.461   4.613   0.022  0.1851  0.0893 -0.0045
14719W        W30980   9.760  16.115   3.753 -0.2484 -0.1598  0.1015
14720W        W30981   3.660   1.723   4.660 -0.0849  0.2903 -0.0797
14721W        W30982   2.300   3.649   2.022 -0.2348  0.1226  0.1276
14722W        W30983   8.868   2.816   4.829 -0.0927  0.0546  0.0576
14723W        W30984  12.878  11.557   2.118 -0.1245 -0.0771  0.0946
14724W        W30985   9.469  11.460   4.444  0.1724  0.2596  0.1484
14725W        W30986  10.252   0.355   0.955  0.1365  0.1130  0.3848
14726W        W30987  17.629  15.887  16.239  0.1750  0.4336  0.1678
14727W        W30988  11.300   0.246   2.097  0.0639 -0.3200  0.4290
14728W        W30989  14.281  14.586  14.443  0.0419  0.1432  0.1837
14729W        W30990   0.426   3.957  16.264 -0.2256 -0.1459  0.0634
14730W        W30991   6.316   3.687  11.340 -0.0148  0.1113  0.0659
14731W        W30992   0.640   1.568   2.429 -0.1280 -0.1564  0.0161
14732W        W30993   8.703  16.062  15.175 -0.2096  0.1391  0.2424
14733W        W30994   5.139  10.633  12.925 -0.2173 -0.0128  0.2730
14734W        W30995  14.675   4.799   2.462  0.2803  0.0738 -0.0180
14735W        W30996  15.378  10.575  11.155 -0.1420  0.1070 -0.1790
14736W        W30997   2.917   3.915   3.635 -0.0424  0.0958  0.5136
14737W        W30998  11.608   8.589  12.598  0.3066  0.2447 -0.1209
14738W        W30999  13.026   1.786   0.795 -0.1668 -0.2217  0.1731
14739W        W31000   5.962  15.683   5.041  0.2835 -0.3554 -0.2600
14740W        W31001  17.260  11.155   0.740  0.3772 -0.0939 -0.0347
14741W        W31002  11.355  12.928  15.579  0.0054 -0.1660  0.0903
14742W        W31003   6.172  14.524  13.889 -0.2222 -0.0709  0.0503
14743W        W31004   5.057   7.917   2.662 -0.3511 -0.0684  0.1153
14744W        W31005   8.957   3.860  12.837  0.1961 -0.0800  0.1304
14745W        W31006  12.321   3.441   2.850 -0.3320 -0.0051  0.2216
14746W        W31007   1.140  12.851   3.552 -0.3794  0.1585  0.1129
14747W        W31008  12.547   7.018   3.280 -0.0839 -0.0580  0.0204
14748W        W31009  16.103   1.825  14.846  0.1864  0.2485  0.0120
14749W        W31010   2.520  13.633  14.459  0.0120 -0.0898  0.0129
14750W        W31011   0.246   8.735  14.839 -0.0222 -0.0297 -0.1602
14751W        W31012   1.090  14.231   0.824  0.1381  0.0485  0.0573
14752W        W31013  16.592   5.561  14.931  0.0273  0.1978  0.1863
14753W        W31014   2.042  16.004   1.718  0.1798 -0.0741 -0.3926
14754W        W31015   9.458   7.183   3.458 -0.2335 -0.0530  0.0476
14755W        W31016  17.686   8.480  14.662 -0.2866 -0.0136 -0.2292
14756W        W31017   3.982   6.857  12.013  0.0117  0.1722  0.0767
14757W        W31018  14.501   9.486   2.343  0.4124  0.0062  0.1362
14758W        W31019   6.605   0.786   3.391  0.1030 -0.1570 -0.0014
14759W        W31020   5.856   3.186  15.344 -0.0335 -0.2916 -0.0160
14760W        W31021  13.157  15.548   1.215  0.0982  0.2261 -0.0786
14761W        W31022  11.698  12.325   2.031 -0.4983  0.2849 -0.0694
14762W        W31023  16.367   5.089   1.300  0.2881  0.0268  0.0023
14763W        W31024   2.223   0.021   5.469  0.1374  0.0207  0.1816
14764W        W31025  12.021  12.329  11.021 -0.0540  0.3934  0.1946
14765W        W31026   9.994  15.862   1.220  0.1034  0.4515 -0.0362
14766W        W31027   6.904   6.745   5.399 -0.0204  0.1162 -0.0239
14767W        W31028   4.750   5.233  14.373  0.0521  0.1844  0.1788
14768W        W31029   4.054   3.865   0.598 -0.0683 -0.0958  0.0036
14769W        W31030  12.646  11.330  11.885 -0.1308  0.2587 -0.0435
14770W        W31031   3.648   7.650  12.570 -0.3239 -0.1000  0.2052
14771W        W31032  14.921   5.226  12.906  0.0556  0.0130  0.1147
14772W        W31033  14.753  12.271   5.181 -0.0344  0.0427 -0.4213
14773W        W31034  15.718   8.385   2.782 -0.1338  0.2077  0.0245
14774W        W31035  14.211   5.179  14.995  0.2138  0.0426  0.1062
14775W        W31036  16.292   2.693   3.704 -0.0915 -0.0082  0.0703
14776W        W31037  18.092  15.399  13.724  0.1712 -0.0575  0.4211
14777W        W31038   9.108  14.500  12.554 -0.1824  0.0642  0.3039
14778W        W31039  16.484   4.469   5.055 -0.1008 -0.1466  0.4230
14779W        W31040   8.672  16.322  11.433 -0.0359 -0.0681 -0.1194
14780W        W31041  17.481  11.330  14.416 -0.0058 -0.1062  0.0405
14781W        W31042  16.713  17.562   6.259  0.0250  0.2902  0.1847
14782W        W31043   4.147   5.014   1.561 -0.0109 -0.1164  0.0352
14783W        W31044   6.368   0.482  10.946  0.1961 -0.0071 -0.0038
14784W        W31045  13.918  15.968  11.384  0.0932 -0.2503  0.1181
14785W        W31046   9.189  17.165  12.937 -0.1613 -0.1288  0.1644
14786W        W31047  15.316  16.699   0.886  0.0832  0.4705  0.4046
14787W        W31048  16.709   4.382  15.501  0.2118 -0.3113 -0.0076
14788W        W31049  15.996   1.062   4.368 -0.0015 -0.3379  0.0546
14789W        W31050   2.961  10.885  13.172  0.2892  0.0925  0.2809
14790W        W31051   0.193   5.846   1.125 -0.0122 -0.1625 -0.1582
14791W        W31052  14.101  14.492   6.101  0.1090 -0.1358  0.1251
14792W        W31053   9.290   8.908   2.367 -0.3431  0.2711 -0.2454
14793W        W31054   7.448  15.963   4.694  0.0249  0.3879  0.1681
14794W        W31055   4.883   9.003  14.228 -0.1021  0.0113 -0.1427
14795W        W31056  15.592   0.007   4.554 -0.3168 -0.1600  0.0820
14796W        W31057   3.505   4.196   5.120 -0.1410  0.0302  0.0439
14797W        W31058  10.852  11.540  13.302  0.0021 -0.1445  0.1839
14798W        W31059  18.075  15.048  12.653  0.1418  0.0247  0.3283
14799W        W31060  10.682   4.318   4.025  0.2969 -0.2722 -0.5368
14800W        W31061   5.845   7.634   4.024  0.1465  0.0876  0.4449
14801W        W31062   9.336   0.980   0.846  0.0834 -0.2597 -0.0572
14802W        W31063   1.016   2.626   4.248 -0.0163 -0.1368  0.1133
14803W        W31064  14.181   3.844  10.411 -0.1023 -0.1958  0.1612
14804W        W31065   2.629   1.232   1.606  0.0622  0.0619 -0.1681
14805W        W31066  15.710  10.221  10.975 -0.2582  0.0980  0.2469
14806W        W31067   3.356  12.624  13.690  0.0134  0.3154  0.0093
14807W        W31068   8.224   2.132   5.244 -0.0770  0.1529  0.1180
14808W        W31069  15.747  14.623   2.330  0.0903  0.2119 -0.0263
14809W        W31070   5.936  17.558  12.781  0.2665  0.3954  0.2219
14810W        W31071  10.673  18.363  10.530  0.1430 -0.1010  0.0654
14811W        W31072   3.171   6.414  11.628 -0.1654 -0.2429  0.0918
14812W        W31073  17.471   6.923   0.479  0.0410 -0.1378  0.1183
14813W        W31074  14.370   7.890  14.149 -0.2822  0.0448 -0.0715
14814W        W31075  16.334  10.124   0.669 -0.0362  0.1268 -0.0935
14815W        W31076  15.940  17.188   0.757 -0.0138  0.0356 -0.4360
14816W        W31077   4.855   3.563  11.150  0.0666  0.1843 -0.1093
14817W        W31078   6.049   0.428   3.925  0.1868 -0.0499 -0.1411
14818W        W31079   5.136  10.904  11.901 -0.1533  0.3183 -0.2096
14819W        W31080  15.179  10.399  15.663  0.1168  0.0094 -0.1387
14820W        W31081  12.183   4.657  13.797 -0.0438 -0.0227  0.1460
14821W        W31082   8.813  18.019   4.576  0.0487  0.0119  0.2734
14822W        W31083   2.774   0.775   1.776  0.1578 -0.0067 -0.2265
14823W        W31084   1.897  17.166   5.221  0.2662  0.1514 -0.1641
14824W        W31085   9.043   1.135   5.183  0.3751  0.0002 -0.1977
14825W        W31086   2.123  15.954   3.928 -0.1797 -0.3194  0.1352
14826W        W31087   5.188  17.994  12.996  0.1106  0.1142 -0.0574
14827W        W31088  10.282   6.533  12.012 -0.0688 -0.0699 -0.0657
14828W        W31089  15.989  12.161   4.495  0.1586  0.0685  0.1347
14829W        W31090   4.158  12.933   4.699 -0.0473 -0.3318 -0.2489
14830W        W31091   0.514   4.615  12.252  0.2158 -0.0589  0.1504
14831W        W31092   6.373   3.191  11.259  0.0650 -0.0496  0.3318
14832W        W31093  12.296  10.264  10.241  0.0398  0.0830  0.0186
14833W        W31094   4.252  16.567  12.974 -0.1469  0.0512  0.0938
14834W        W31095   1.903   2.762  14.156  0.1650  0.1610 -0.2070
14835W        W31096   8.935  14.481  11.761  0.0357  0.1705  0.2291
14836W        W31097   9.313   9.888  11.759 -0.0056 -0.2565  0.0661
14837W        W31098   5.799  16.184   0.097  0.1713  0.0271 -0.0350
14838W        W31099  12.118   9.560   4.733  0.0645  0.0915 -0.4066
14839W        W31100  12.779  15.756   4.036  0.0857  0.1407  0.0059
14840W        W31101  17.429  17.228  15.811  0.0977  0.0325  0.2316
14841W        W31102  10.504  15.084  16.257  0.0038  0.1866 -0.1624
14842W        W31103   9.611  14.186  14.442 -0.1684  0.1380 -0.0075
14843W        W31104  16.872   1.282   2.254 -0.0477  0.0809 -0.0362
14844W        W31105   2.448  12.500   4.715  0.0350 -0.0626 -0.1069
14845W        W31106  11.273  12.504  12.393 -0.1247 -0.1708 -0.0420
14846W        W31107   0.799   5.319   5.738 -0.2596 -0.0717  0.1614
14847W        W31108  15.097  14.345  12.151  0.2194  0.4197 -0.3605
14848W        W31109   1.119   4.742  13.093  0.1790  0.0863 -0.0379
14849W        W31110  11.456  16.967   0.753  0.0590 -0.3690  0.2976
14850W        W31111  10.155   1.274   1.443 -0.0439 -0.0189 -0.0225
14851W        W31112  16.534  10.331  12.893 -0.0799 -0.0801 -0.2180
14852W        W31113   2.929  12.801  12.221 -0.2315 -0.0317  0.1298
14853W        W31114   3.081  16.472  14.386 -0.0451 -0.0816 -0.2484
14854W        W31115   1.136   4.883   1.762 -0.0558  0.1763  0.2216
14855W        W31116   1.646  11.011   4.838  0.0505 -0.1974 -0.0686
14856W        W31117   6.978   9.424  11.284  0.0918 -0.0151  0.1712
14857W        W31118   9.192   7.901  16.145  0.0719 -0.2781 -0.0462
14858W        W31119   1.646  17.620   5.369  0.0560 -0.2846 -0.0130
14859W        W31120   2.379  14.019  16.079 -0.3257 -0.2239  0.3209
14860W        W31121   7.868   2.772   3.947 -0.1794 -0.4241  0.1845
14861W        W31122   9.964   0.165  11.749  0.0782  0.0458 -0.2133
14862W        W31123  14.402  11.929  14.782 -0.1980  0.1314 -0.3068
14863W        W31124  17.919  14.581   1.641 -0.1358  0.0324  0.0699
14864W        W31125   0.671  11.913  12.018  0.0718 -0.0507  0.2171
14865W        W31126  11.510  14.788   2.851 -0.2810  0.0848  0.0097
14866W        W31127   7.735  15.925   5.060  0.3611 -0.0607  0.1666
14867W        W31128  13.591  14.636   0.272  0.0900 -0.1473 -0.1691
14868W        W31129   6.951   0.902  13.569  0.2919 -0.1961 -0.1932
14869W        W31130   4.092  15.027   3.389 -0.0890 -0.0380 -0.2264
14870W        W31131   2.949  17.062  15.717  0.2163 -0.1463 -0.1616
14871W        W31132  17.955  11.173  14.658 -0.0376  0.1751 -0.1221
14872W        W31133  15.668  17.069  13.970  0.0345 -0.0066 -0.0027
14873W        W31134  16.998  14.343   4.505  0.1566  0.2822  0.0959
14874W        W31135   3.050  11.203  14.275  0.0385 -0.3774 -0.2043
14875W        W31136   2.997   7.461   3.706  0.1581  0.0094  0.1172
14876W        W31137   5.870  17.701  12.290 -0.0868 -0.1918 -0.2596
14877W        W31138   0.313   2.734   1.952 -0.3763  0.0016 -0.0974
14878W        W31139   0.854   9.277  15.026  0.0296 -0.0130  0.0583
14879W        W31140   9.913  10.366  12.302 -0.1523  0.0618  0.0182
14880W        W31141   2.080  12.216   1.465  0.0155  0.3019 -0.2175
14881W        W31142   5.900  12.463   0.463  0.0027  0.3314 -0.0133
14882W        W31143   9.289   8.816   3.313 -0.0492  0.1962 -0.0783
14883W        W31144   0.717   6.397   2.313 -0.0015 -0.0425  0.1542
14884W        W31145  14.912   6.362   3.619  0.1156  0.0650  0.1262
14885W        W31146  17.937   2.036  12.209  0.1306 -0.2890 -0.4433
14886W        W31147   4.810   7.081   3.886 -0.2110 -0.0310  0.0567
14887W        W31148   3.489  10.206   5.158  0.0848 -0.0371  0.4450
14888W        W31149  16.300   9.319   4.797 -0.0957  0.2218  0.0119
14889W        W31150   7.328  16.489   5.619 -0.1083 -0.2322  0.2272
14890W        W31151   7.036  14.454  14.768  0.1675 -0.0545  0.1807
14891W        W31152  10.097  15.393   5.263  0.1103  0.2405  0.0494
14892W        W31153  14.016  18.010   0.768 -0.0955  0.0508 -0.2116
14893W        W31154   3.477  12.527   0.721 -0.2449  0.1150 -0.2848
14894W        W31155  16.808   4.166  13.753 -0.2423 -0.0549  0.1611
14895W        W31156  13.977  17.613   4.411 -0.0427 -0.1819  0.2094
14896W        W31157   7.013   9.089   3.794 -0.2971  0.0239 -0.2686
14897W        W31158   8.953  17.247   3.341  0.0553  0.0677  0.0383
14898W        W31159  10.937   3.262  15.500 -0.1808  0.3654  0.4277
14899W        W31160   6.770  15.650   5.524 -0.0000 -0.1743  0.4205
14900W        W31161   3.126   3.215   4.805  0.0074  0.0514 -0.0081
14901W        W31162   0.131   4.280  11.929  0.0223  0.3600 -0.2133
14902W        W31163  17.158   7.005   2.814 -0.2579 -0.0157  0.2309
14903W        W31164   0.340   3.714  11.908  0.3642 -0.2270 -0.0724
14904W        W31165   6.781   7.084  14.361 -0.1713 -0.1867 -0.1333
14905W        W31166  16.872  12.343   6.011  0.0351 -0.0455 -0.1941
14906W        W31167  16.207  16.802   6.434  0.5226 -0.0286 -0.2127
14907W        W31168   6.185  14.100   3.970 -0.1528  0.2325  0.0390
14908W        W31169  11.755   3.638  11.832  0.0731  0.0024 -0.1268
14909W        W31170   9.283   7.831   2.544  0.2717  0.2726  0.1033
14910W        W31171  15.410  17.326  15.405 -0.4588 -0.0303  0.0000
14911W        W31172   9.255   9.640  15.540  0.2962 -0.1898  0.1774
14912W        W31173   2.325   7.898   4.055  0.2473 -0.1330 -0.2575
14913W        W31174   7.012   1.853   1.714 -0.0289  0.1563 -0.0998
14914W        W31175  14.331   7.698   3.829 -0.1386 -0.2464 -0.0399
14915W        W31176  18.127  13.229  11.475 -0.0216 -0.2165 -0.1010
14916W        W31177   3.398  14.613  15.427  0.2015  0.2320  0.1826
14917W        W31178   2.129   7.176   2.959  0.2389 -0.1743 -0.1336
14918W        W31179   1.169   5.613  12.763 -0.1269  0.0919 -0.0788
14919W        W31180   9.917  15.731  11.982  0.4423 -0.1609 -0.2316
14920W        W31181   8.054  12.306   3.785  0.1375  0.0031  0.1624
14921W        W31182  14.845   3.216   3.380 -0.2126 -0.1259 -0.0828
14922W        W31183   0.522   7.335   5.712 -0.0714 -0.1858  0.0996
14923W        W31184   0.411   1.196  14.544 -0.0281 -0.0923  0.0992
14924W        W31185   6.941  11.840   3.481  0.1156 -0.0100 -0.0002
14925W        W31186   7.502   2.000   2.086  0.0159  0.0824 -0.3907
14926W        W31187   8.969  15.168  15.007  0.0421 -0.0561 -0.2376
14927W        W31188   5.206  14.552   2.459  0.0781  0.0591 -0.2097
14928W        W31189   9.489  11.145   1.240  0.1592 -0.3731 -0.1777
14929W        W31190  14.150   0.503   1.407 -0.2398  0.1389  0.2417
14930W        W31191   0.337   4.838  11.812 -0.1919 -0.0873 -0.0060
14931W        W31192   0.517  15.680  12.286 -0.0616 -0.1350  0.1149
14932W        W31193   4.986   0.923  12.802  0.1944 -0.0373 -0.0644
14933W        W31194   0.997  10.758   3.061  0.0199  0.1051  0.3371
14934W        W31195  15.627   4.254   0.915  0.0808 -0.1901 -0.1713
14935W        W31196  10.789  15.352  13.450 -0.1498  0.2370 -0.3529
14936W        W31197  13.698   4.638  11.311 -0.0603  0.1294 -0.0899
14937W        W31198   9.884   0.365   3.246  0.1147  0.1268  0.0247
14938W        W31199   3.188  18.334  12.319  0.1009  0.0321 -0.3384
14939W        W31200   1.268  17.272   3.186 -0.2280 -0.7148 -0.0495
14940W        W31201   8.231  16.034  12.006 -0.3098  0.1990  0.1230
14941W        W31202  14.169  18.239   2.591  0.1479  0.1539 -0.2209
14942W        W31203   0.843   2.037  14.980  0.0155 -0.0306 -0.0724
14943W        W31204  14.597   9.640  12.518  0.1822 -0.0107 -0.2851
14944W        W31205   5.380   2.354   1.235  0.0660  0.0543  0.0800
14945W        W31206  16.914  11.701  12.908  0.1078  0.0155  0.3864
14946W        W31207  13.879   1.130   5.488  0.0866  0.2132 -0.1255
14947W        W31208   9.010  13.491   5.426 -0.1238  0.4810  0.0291
14948W        W31209   6.596   8.635   3.938 -0.0193 -0.1968 -0.4143
14949W        W31210  10.494  15.527  13.041 -0.1751  0.0116 -0.0981
14950W        W31211  12.753   9.963  15.361 -0.2832 -0.0473  0.0982
14951W        W31212  10.724  11.295  11.428  0.1163 -0.1241 -0.3078
14952W        W31213   8.286  17.620  13.384  0.1265 -0.1285 -0.0045
14953W        W31214   4.531  10.947   2.750  0.2268 -0.3449  0.1255
14954W        W31215   0.060   1.468   5.497 -0.1231 -0.0443 -0.0181
14955W        W31216   8.583   8.552  14.428 -0.2820  0.2145 -0.1918
14956W        W31217  17.372   0.524   4.340 -0.2685  0.1201 -0.4009
14957W        W31218   7.066   4.449   4.752  0.1198  0.0130 -0.3315
14958W        W31219   1.645  11.805  11.197  0.1570 -0.1053  0.1440
14959W        W31220  12.352  15.263   1.167  0.0401  0.0355 -0.2682
14960W        W31221   8.326  12.950   1.944 -0.3319  0.0340 -0.4812
14961W        W31222  10.663  10.150  14.955  0.1526 -0.1798 -0.0594
14962W        W31223   3.030   1.312   1.310 -0.0263  0.0945  0.0646
14963W        W31224   7.536  17.998   1.038 -0.2642  0.2416  0.1623
14964W        W31225  12.874  12.590  13.193  0.1008 -0.2670 -0.0125
14965W        W31226   2.039   8.165  11.343  0.0274  0.0313  0.0783
14966W        W31227   5.108   6.757   1.842  0.0387 -0.0908  0.0948
14967W        W31228   9.625  12.139   0.181 -0.0942 -0.1705  0.1002
14968W        W31229  10.457  14.623  11.285  0.1444 -0.0067 -0.1571
14969W        W31230  11.323   8.586  15.780  0.2967 -0.3074 -0.0797
14970W        W31231   9.439   8.763  14.855  0.0859 -0.1657 -0.3051
14971W        W31232  18.280   6.787  13.918 -0.0251 -0.0061 -0.0725
14972W        W31233   1.594  11.828  15.206 -0.1036 -0.0781 -0.0871
14973W        W31234   1.330  14.837  16.285  0.1758  0.4808  0.1593
14974W        W31235   0.032  16.046   2.731 -0.4997  0.2214 -0.0593
14975W        W31236  15.782  10.503   0.313  0.0520  0.3884 -0.1210
14976W        W31237   2.878   3.443   0.450 -0.1615  0.1210  0.1228
14977W        W31238   7.878   4.970   1.916 -0.1022  0.2971  0.0017
14978W        W31239  18.050   9.891   0.555  0.1662 -0.1440  0.1617
14979W        W31240  10.332  12.618  13.954 -0.1384  0.0844  0.0231
14980W        W31241   8.385   8.207   3.598 -0.2360 -0.3450 -0.2321
14981W        W31242   7.348   7.104   0.532 -0.0198  0.1565 -0.2470
14982W        W31243   9.447  12.077   2.095  0.0120  0.0095  0.5341
14983W        W31244  10.398   6.194   0.619  0.1185 -0.0051 -0.0429
14984W        W31245  11.621  13.716  15.258  0.1692 -0.0489 -0.2982
14985W        W31246   6.420  15.921   2.885 -0.4330 -0.0018  0.1078
14986W        W31247   1.113   0.510   3.433  0.0178  0.0533 -0.1156
14987W        W31248   7.776   8.822  10.985 -0.0135 -0.1882  0.1634
14988W        W31249   9.730  18.082   0.605  0.0516  0.0969  0.2091
14989W        W31250   1.305  10.420   5.553 -0.5338 -0.0382 -0.0614
14990W        W31251   8.640  14.645  13.528 -0.0861  0.3317 -0.1377
14991W        W31252  10.357  11.496   5.494 -0.0986  0.1696  0.0426
14992W        W31253   3.735   4.089   1.862 -0.1919 -0.0264  0.0346
14993W        W31254   4.721  17.856   1.640  0.0651 -0.1315 -0.0812
14994W        W31255   3.898   2.265  13.170  0.0996 -0.1634  0.0380
14995W        W31256  12.082  11.922  13.039 -0.0986  0.0221  0.4498
14996W        W31257  14.667  14.524   3.700 -0.0047 -0.1051 -0.1855
14997W        W31258  11.222  11.705   5.799  0.3941  0.1267 -0.2825
14998W        W31259  12.195  18.079  15.415  0.4203 -0.1960 -0.2286
14999W        W31260  11.433  10.330  11.172  0.2339 -0.1056 -0.0315
15000W        W31261  13.135  11.080   1.333 -0.2660  0.2728  0.0822
15001W        W31262  10.030  10.730   1.979  0.0285  0.2953  0.0089
15002W        W31263   1.028   5.357   3.926 -0.0277  0.0600 -0.2990
15003W        W31264  17.806  10.073  12.486  0.3886 -0.1459 -0.0425
15004W        W31265   5.839   2.076  15.732 -0.2498 -0.2188  0.1810
15005W        W31266  13.267   8.933  14.640 -0.3598  0.1291  0.5211
15006W        W31267   5.707   2.186  14.350  0.3289  0.1828 -0.0493
15007W        W31268   8.726  12.000   4.268  0.5768 -0.0492  0.1123
15008W        W31269   6.455   2.798  14.122 -0.5495  0.1663  0.0663
15009W        W31270   7.458  10.087   0.772  0.0443  0.1957  0.1379
15010W        W31271   7.417  11.872   4.407  0.2951 -0.0544  0.2712
15011W        W31272   8.742  12.814  11.598 -0.1301  0.1964 -0.2579
15012W        W31273   0.534   8.935   4.509  0.0226 -0.0777 -0.4005
15013W        W31274  18.004  10.294   2.810  0.1352  0.4708 -0.0877
15014W        W31275   4.257   6.655  13.618  0.1385  0.0518 -0.2698
15015W        W31276  17.743   1.079  13.012  0.0223  0.1936  0.1161
15016W        W31277  16.688  11.801   0.987 -0.0214  0.1714 -0.0182
15017W        W31278  10.553  13.275   4.777 -0.1047  0.0007  0.2217
15018W        W31279  14.299  16.765   1.475  0.0233  0.1232 -0.3628
15019W        W31280  17.902  10.215  15.970  0.1353 -0.1289 -0.0012
15020W        W31281   7.909   3.623   0.534  0.1825 -0.1376 -0.0673
15021W        W31282   1.639  12.460   5.102  0.0681 -0.2038 -0.0504
15022W        W31283   6.721   6.715  13.695  0.3116  0.3152  0.0297
15023W        W31284   4.826  18.327   5.012 -0.1676 -0.1305 -0.3326
15024W        W31285   8.012   5.967   5.070  0.0240 -0.0953 -0.0652
15025W        W31286  13.886   5.917   0.253 -0.0006 -0.1862  0.1287
15026W        W31287   2.623  11.544  15.980 -0.3572  0.2274  0.2895
15027W        W31288  15.537  15.308  14.348 -0.2997 -0.0767  0.0689
15028W        W31289  11.311  10.588  15.874 -0.3382  0.0753  0.2311
15029W        W31290   9.961   8.002  11.414 -0.0202 -0.1728 -0.0190
15030W        W31291  13.702   0.378  15.761 -0.2104 -0.1199 -0.0666
15031W        W31292  17.346   3.173  15.671  0.0154 -0.3282  0.1253
15032W        W31293   3.277  15.555   4.268 -0.0993 -0.3918 -0.1312
15033W        W31294  18.232  12.655   3.035  0.2398 -0.2128 -0.0026
15034W        W31295  17.357  14.277   3.086  0.1361  0.0174 -0.0661
15035W        W31296   6.279  18.203  11.817  0.1399 -0.0330  0.1447
15036W        W31297  16.877  17.741   1.247 -0.1778 -0.0348  0.2277
15037W        W31298   9.088  17.653  16.270  0.0563  0.2207 -0.0341
15038W        W31299  13.789   3.682   2.689  0.2561 -0.1635  0.3059
15039W        W31300   2.624   1.075   0.410 -0.2751  0.0939 -0.0210
15040W        W31301   2.539   8.801  13.686  0.0716  0.2029 -0.2623
15041W        W31302   2.992  16.668   0.082 -0.0393 -0.1343  0.2285
15042W        W31303  13.094   0.054  14.335  0.3341  0.0569 -0.1556
15043W        W31304   6.379   8.543   3.511  0.2005  0.2731  0.2407
15044W        W31305   0.722  11.448   3.690 -0.3095 -0.1805  0.0052
15045W        W31306   1.571   7.709   4.719  0.0056 -0.1748 -0.0305
15046W        W31307  14.070  15.384  11.815 -0.0221 -0.1505 -0.1222
15047W        W31308   1.851  14.007  12.903 -0.2349 -0.1494 -0.2427
15048W        W31309   2.598  12.297   0.800  0.0053  0.0164 -0.2028
15049W        W31310  16.940  17.807  14.069  0.0434  0.1214  0.4473
15050W        W31311  15.366   3.171   2.456  0.1982  0.0739 -0.0681
15051W        W31312  10.696  13.450  14.679  0.0296  0.2383  0.2288
15052W        W31313   4.115  17.536   5.637  0.1721  0.3105  0.0958
15053W        W31314  12.983  15.489  12.031  0.0355  0.1688  0.5194
15054W        W31315   2.036  13.785  13.539 -0.0896  0.3515 -0.0646
15055W        W31316  16.076   0.175   2.928  0.3934  0.1420  0.0008
15056W        W31317  10.505  12.965   1.963 -0.1186  0.1619  0.1954
15057W        W31318   9.525  18.332  11.773 -0.0232 -0.2585  0.3507
15058W        W31319  15.120  15.651   3.895  0.1376 -0.2256 -0.0112
15059W        W31320   7.329   6.619   0.553 -0.1286  0.0280  0.3259
15060W        W31321  16.471   6.920  13.872 -0.1776 -0.0370 -0.0664
15061W        W31322  11.055  17.859  14.399 -0.0688  0.0163  0.0568
15062W        W31323   2.494  15.426  11.346  0.0005  0.1534 -0.0020
15063W        W31324   3.296   7.755  11.955 -0.3881 -0.4736 -0.2932
15064W        W31325  11.222  13.998   2.943  0.3033 -0.0000  0.0211
15065W        W31326   4.050   6.997  13.900  0.0948 -0.0700  0.2269
15066W        W31327   6.020  12.749   4.800  0.2739  0.3470  0.0385
15067W        W31328  12.301  10.057   0.465 -0.1162 -0.0900 -0.1090
15068W        W31329  17.898  11.558   1.397  0.1312  0.0133 -0.2920
15069W        W31330  14.406   1.103   5.399 -0.0409 -0.0833 -0.2655
15070W        W31331  11.063  11.872  16.019  0.0625 -0.1615  0.0432
15071W        W31332   7.851   9.866  13.659 -0.0538 -0.2258 -0.0775
15072W        W31333   8.513   6.755   1.483 -0.0986 -0.1066  0.0309
15073W        W31334  17.460   6.779  11.787  0.0841 -0.1865  0.3685
15074W        W31335  18.276   2.371   5.173  0.0766 -0.0979 -0.0620
15075W        W31336  13.274   7.283   0.772  0.2155 -0.0160  0.1011
15076W        W31337  13.779  14.250   5.736  0.1734  0.1103 -0.4133
15077W        W31338   9.905   4.772  11.769 -0.1641  0.2223  0.2652
15078W        W31339   7.355  16.993   0.467 -0.1645  0.2213 -0.0337
15079W        W31340   0.807   6.950   4.755  0.0040 -0.0870 -0.3937
15080W        W31341   2.790   5.642  13.722  0.1402  0.1357 -0.2479
15081W        W31342   8.258  17.342  15.153  0.0566  0.1031  0.1549
15082W        W31343  16.480   2.024   3.807  0.1765  0.0126 -0.0303
15083W        W31344  15.649   7.782   4.412 -0.4815  0.1195 -0.2919
15084W        W31345  12.273  14.344   2.985 -0.0276  0.1585 -0.1748
15085W        W31346   9.700   6.537  10.889 -0.0193 -0.0779  0.0422
15086W        W31347   9.277  10.567  11.191 -0.1221 -0.0570  0.0034
15087W        W31348  11.478  18.189   4.284 -0.0410  0.1887 -0.1788
15088W        W31349  16.730   2.664   4.477 -0.0692 -0.0986 -0.0820
15089W        W31350   8.671   2.681  14.244  0.0737  0.3014  0.2213
15090W        W31351   8.251   1.325  12.430 -0.0967 -0.2875 -0.1529
15091W        W31352   2.476  17.648   5.857 -0.2738  0.0169  0.1875
15092W        W31353  12.335   5.467   1.512  0.4829  0.0335 -0.4158
15093W        W31354   1.250   8.837  13.334 -0.3431 -0.0315  0.0562
15094W        W31355  16.837  15.301   5.365 -0.1274  0.2400  0.0792
15095W        W31356  16.036  16.021  15.157  0.3310  0.1472 -0.3151
15096W        W31357  12.517  13.674   4.506  0.1509 -0.0330 -0.2787
15097W        W31358   5.412  10.996   2.552 -0.0396 -0.1382 -0.0327
15098W        W31359  12.202   3.479   4.510  0.3104  0.3499  0.0972
15099W        W31360  11.086  11.374   3.774  0.0762  0.1244 -0.1663
15100W        W31361   5.587   7.428  13.840 -0.0874 -0.2912  0.1909
15101W        W31362   7.222   9.221  15.492 -0.0454 -0.0440  0.0494
15102W        W31363   8.462   6.626  11.320 -0.3189 -0.3977  0.0001
15103W        W31364  10.822   7.983   0.897  0.0132 -0.3707  0.1279
15104W        W31365   9.901  17.143   4.572 -0.0974 -0.3047  0.1288
15105W        W31366  10.608  17.623  15.694 -0.0760  0.3503 -0.3741
15106W        W31367   1.252   4.399  16.067 -0.1884  0.1670 -0.3443
15107W        W31368  13.452  10.194  15.903  0.0448 -0.0090 -0.2205
15108W        W31369   8.694  10.799   3.695  0.0238  0.0104 -0.1642
15109W        W31370   8.925   9.097  16.180  0.1479  0.1095 -0.0104
15110W        W31371  11.365  10.533  14.807  0.2709  0.4627  0.4010
15111W        W31372  10.152  14.230   0.418  0.2895  0.0740 -0.0198
15112W        W31373   4.948   5.287   1.707 -0.2943  0.1010 -0.0369
15113W        W31374   8.835  13.149  14.186 -0.2403 -0.2392 -0.0461
15114W        W31375   3.282  10.823   4.241 -0.1784 -0.1617  0.0232
15115W        W31376  12.746  14.653  10.340 -0.0720 -0.0425 -0.3355
15116W        W31377  17.527  11.555   6.224 -0.1710 -0.0202 -0.0237
15117W        W31378  10.420   1.156   4.824 -0.3639  0.1771  0.2844
15118W        W31379   2.695  14.888  12.867  0.0562 -0.0748 -0.1913
15119W        W31380   8.265  16.362   2.480  0.0346  0.0602 -0.0096
15120W        W31381  15.581  17.519   4.117 -0.0603  0.0136 -0.1218
15121W        W31382  10.886   9.258   2.853 -0.0086  0.1378  0.3605
15122W        W31383  11.628  18.248   0.706 -0.2621  0.2721  0.1632
15123W        W31384  15.176  11.366   6.191  0.4877 -0.2954  0.4120
15124W        W31385  10.981   1.937   0.537 -0.2671  0.1010  0.0415
15125W        W31386  11.270   8.618  11.785 -0.0957 -0.2130 -0.0853
15126W        W31387   0.881   5.245  16.141 -0.2604 -0.1148  0.0656
15127W        W31388  18.301  16.680  14.433  0.2461  0.0303  0.2253
15128W        W31389  17.361   8.506   1.010  0.1410 -0.1265 -0.2571
15129W        W31390   9.429  17.942   0.228  0.0610  0.2525  0.0097
15130W        W31391  17.510   9.573   2.587 -0.2001 -0.3016  0.0386
15131W        W31392  15.151   5.808  15.995 -0.1471 -0.0352  0.0247
15132W        W31393   3.118  10.150   5.648 -0.2076  0.1707 -0.1179
15133W        W31394  16.812  15.246   4.365  0.1170  0.2912  0.0254
15134W        W31395   9.415   5.302   4.230 -0.2155  0.0959 -0.1487
15135W        W31396  15.267  16.381   2.672  0.2544  0.0914  0.0590
15136W        W31397   6.430  11.692  13.180 -0.0295  0.0564 -0.3738
15137W        W31398   0.835   0.057   4.738  0.2062  0.1120  0.0995
15138W        W31399   9.763   8.873  12.159  0.0475  0.2255  0.0078
15139W        W31400  15.329   4.170   5.531  0.3037 -0.0899  0.1005
15140W        W31401  12.430  18.239  15.934  0.0864  0.2632 -0.1581
15141W        W31402   7.429   8.126  13.192 -0.1637 -0.0139 -0.0694
15142W        W31403   7.271  12.075  15.442 -0.0536 -0.2492  0.0988
15143W        W31404  15.426  11.419  15.347  0.0300 -0.2198  0.2167
15144W        W31405   7.595   4.198  13.097 -0.0768  0.2314 -0.0403
15145W        W31406  10.087   9.324  14.653 -0.0760  0.2587  0.3045
15146W        W31407  11.643   3.423  12.979 -0.2219 -0.5414 -0.3106
15147W        W31408   1.477   7.954   0.553  0.1095  0.0665  0.4896
15148W        W31409   6.433  17.674   1.800  0.1120  0.0323 -0.3319
15149W        W31410   6.292   5.694   4.831  0.3122  0.3619 -0.3446
15150W        W31411   1.293  10.189   3.193 -0.2355 -0.1955  0.2014
15151W        W31412   0.239  16.959   1.475 -0.0726  0.1135  0.0498
15152W        W31413  13.456  11.091   5.083 -0.2026  0.3876 -0.1902
15153W        W31414   1.382   2.339  16.279  0.0084  0.0828 -0.1052
15154W        W31415  11.439  10.442   2.903  0.1274 -0.1647 -0.1109
15155W        W31416   1.529   0.982   1.745  0.0527 -0.0762 -0.0843
15156W        W31417  11.610  12.907   4.434  0.0420  0.1553  0.1345
15157W        W31418   8.398  11.863  12.779 -0.0703 -0.1430 -0.2096
15158W        W31419  16.856   4.237  13.239  0.0546 -0.1600 -0.1800
15159W        W31420  14.981   6.300   4.112 -0.1736  0.2359 -0.1990
15160W        W31421   6.505  16.043  15.298 -0.3611  0.1625 -0.0148
15161W        W31422   2.621  11.927  13.223 -0.1413 -0.3083  0.0671
15162W        W31423   9.971  16.991   3.160 -0.0970 -0.3640 -0.1774
15163W        W31424   9.357  11.144  14.620 -0.1410 -0.0015 -0.0374
15164W        W31425   6.640   3.963  11.582 -0.0416  0.2604 -0.2147
15165W        W31426  12.019  12.914  12.713 -0.1077  0.1835 -0.0682
15166W        W31427   8.479  13.196   4.684  0.0794 -0.1495 -0.1166
15167W        W31428   4.043   4.618  11.821  0.1458  0.2902  0.0705
15168W        W31429  10.790  12.745   0.163  0.1535 -0.0683  0.0087
15169W        W31430  16.602   9.137  12.612  0.0743 -0.1820  0.1199
15170W        W31431   0.008   9.569   0.711 -0.0843 -0.1077  0.2166
15171W        W31432  10.661  14.766  12.607 -0.1162 -0.2217  0.1098
15172W        W31433  17.694  15.888  12.915  0.4105 -0.1278 -0.0681
15173W        W31434  13.639   0.946  12.529  0.0045  0.0059 -0.0020
15174W        W31435   8.449  12.462  15.109 -0.1997 -0.0570  0.1198
15175W        W31436   8.043   7.737   4.800  0.0030  0.1101 -0.1911
15176W        W31437  15.374   1.231   2.716 -0.0137 -0.2586  0.4691
15177W        W31438  11.462   3.785   5.075  0.0244  0.2978  0.2642
15178W        W31439  16.096  15.828   5.639 -0.0371 -0.2783  0.1170
15179W        W31440   0.702   1.274   6.143  0.1908 -0.2665  0.2715
15180W        W31441   9.154   6.406  15.035 -0.1199 -0.1215  0.0806
15181W        W31442   6.238   2.675  13.655  0.3384  0.0835  0.0887
15182W        W31443   0.985  16.370   3.043 -0.0436 -0.2278  0.1206
15183W        W31444  13.647  15.788  13.063  0.1226  0.2942 -0.1546
15184W        W31445   1.405   2.266   4.847  0.0390 -0.3930 -0.1030
15185W        W31446  10.891  10.948   0.021  0.2584  0.1502 -0.3001
15186W        W31447  14.728   3.940  14.844  0.0252  0.0319 -0.0940
15187W        W31448   2.439   8.827   2.010  0.2268  0.2296 -0.1155
15188W        W31449  12.914   4.063   4.590  0.1866 -0.1035 -0.1968
15189W        W31450  17.056  13.099  15.855 -0.2097 -0.0483  0.2827
15190W        W31451   2.219  12.325   5.871  0.3127  0.1359 -0.5418
15191W        W31452   2.835  12.348   1.221 -0.2240 -0.0110 -0.1885
15192W        W31453  12.500   2.269   0.809 -0.2762  0.1188 -0.3065
15193W        W31454   0.556   3.261   1.207 -0.1212  0.0132  0.1271
15194W        W31455  16.259  10.220  11.017  0.1678 -0.0196  0.0003
15195W        W31456  15.283  12.204   5.169  0.1099 -0.1589 -0.0868
15196W        W31457  12.009  10.052  16.055 -0.2552  0.2885  0.0656
15197W        W31458   6.266  16.597   4.542 -0.3921 -0.2422 -0.0767
15198W        W31459  15.285  15.874  15.704 -0.0809 -0.3154  0.0711
15199W        W31460   8.921   8.886  14.276  0.2011  0.6691  0.0617
15200W        W31461  12.098  13.948  11.508  0.0294  0.1187  0.0487
15201W        W31462   6.391  13.239   4.059  0.2209 -0.4753 -0.0231
15202W        W31463   5.111  12.643  13.756  0.1146 -0.3463 -0.2087
15203W        W31464   2.762  11.823   0.996  0.1204 -0.1903  0.2780
15204W        W31465   2.644   7.954   2.673 -0.0632  0.2321 -0.1839
15205W        W31466  11.409  18.238   1.324  0.1931 -0.0118 -0.3751
15206W        W31467   8.532  14.598   4.824 -0.0477  0.4238  0.6028
15207W        W31468   4.080   8.077  14.237  0.2744 -0.0903 -0.1017
15208W        W31469  12.008   6.547   3.982  0.0471  0.0888  0.1272
15209W        W31470   7.774   6.546  14.598  0.1169  0.1717  0.0176
15210W        W31471  10.470   9.214  13.228 -0.2214 -0.0323 -0.3409
15211W        W31472   9.318  12.449  14.602  0.0968 -0.0673 -0.1091
15212W        W31473   6.388   4.340   3.211 -0.2658  0.1880  0.1659
15213W        W31474  12.017   1.334   4.027  0.2982 -0.2454  0.3036
15214W        W31475   7.914   5.006   0.701 -0.3194 -0.2060 -0.1379
15215W        W31476   1.818  13.576   2.625 -0.0841 -0.3295  0.0871
15216W        W31477  13.307  15.438   5.586  0.1656 -0.1674 -0.2330
15217W        W31478   8.288  11.860   2.920  0.2320 -0.0927  0.0092
15218W        W31479   0.147   2.964   2.448  0.2234  0.1373  0.2625
15219W        W31480   8.872   1.694  15.988  0.1195  0.3556 -0.3260
15220W        W31481   4.365   7.975  12.986 -0.2890 -0.0437 -0.0120
15221W        W31482   5.817   6.909  13.293 -0.0427 -0.0420 -0.1130
15222W        W31483  12.132   9.770   5.230  0.0421 -0.0157 -0.1563
15223W        W31484   4.792   7.711  10.460  0.5378  0.0852  0.0598
15224W        W31485  15.322   8.691  13.710  0.1028 -0.3565 -0.3624
15225W        W31486  11.666   0.247   2.414  0.1512 -0.0088  0.0509
15226W        W31487  11.127   1.927  13.810  0.0737 -0.2634  0.1576
15227W        W31488  15.768  12.624   0.624  0.0265 -0.0270  0.2564
15228W        W31489   9.505  14.103   2.700 -0.2903 -0.2983 -0.5163
15229W        W31490   5.642   3.117   5.845  0.3717 -0.1060 -0.0736
15230W        W31491  11.504  16.988  14.017  0.1677  0.2938 -0.2620
15231W        W31492   5.205  12.933  14.516  0.0380 -0.0907 -0.2553
15232W        W31493  13.828   8.654  13.324  0.0125 -0.2090 -0.1061
15233W        W31494   0.924   4.649   5.130 -0.0399  0.1115  0.1165
15234W        W31495  18.170  16.661   4.991 -0.1273  0.0670 -0.0092
15235W        W31496   2.828  13.951   2.234  0.1147 -0.0507 -0.1616
15236W        W31497  17.148   2.209   6.328  0.0845  0.2638  0.0832
15237W        W31498   2.631   0.412   5.191  0.3415 -0.1447 -0.2104
15238W        W31499   2.282  17.094  13.971  0.2184 -0.0641  0.1504
15239W        W31500  18.180   5.818  13.477  0.1541 -0.1243  0.2273
15240W        W31501  14.821   9.104  14.560  0.1850  0.0593  0.0124
15241W        W31502   7.841  12.555   1.117 -0.1297 -0.2414  0.3723
15242W        W31503   5.177  12.848   5.509  0.1108  0.0942  0.0170
15243W        W31504   2.051  15.498  14.091  0.0389 -0.0652 -0.1004
15244W        W31505   2.844  11.348  15.320  0.0670 -0.0037 -0.0759
15245W        W31506   3.505   9.556   5.006 -0.2511 -0.0381  0.0453
15246W        W31507   1.040   0.838   1.788  0.1176 -0.2379  0.0936
15247W        W31508   7.443  14.499   0.210  0.1449  0.0722 -0.1227
15248W        W31509   7.872   6.913  14.909  0.0424  0.0831  0.1657
15249W        W31510  16.024   3.653   1.328 -0.0402  0.1757  0.2670
15250W        W31511   9.791  17.616   3.720 -0.0237  0.1076  0.0127
15251W        W31512  12.818  12.515  12.310 -0.1986 -0.2455  0.2116
15252W        W31513  12.662   2.253   2.926  0.1053  0.0767  0.1629
15253W        W31514   2.232   0.312   5.952 -0.1430 -0.0122  0.1573
15254W        W31515   7.099  16.879  15.993 -0.1155  0.0882 -0.0145
15255W        W31516   3.076  17.112  11.907  0.0275 -0.2632  0.0257
15256W        W31517   8.401   2.471   1.347 -0.0512 -0.2958  0.1033
15257W        W31518  15.197  12.475   1.815  0.3531  0.3881 -0.0332
15258W        W31519   5.719  18.287   4.351 -0.0403  0.0330  0.1160
15259W        W31520   8.948   5.250   0.945  0.1659  0.0811 -0.0293
15260W        W31521  12.059   7.937  16.262 -0.2153 -0.1180  0.1406
15261W        W31522  12.482   6.255   2.236 -0.0978 -0.0063  0.0257
15262W        W31523   5.240  12.412  15.304  0.2902  0.0656 -0.0830
15263W        W31524  16.614  14.256   3.495 -0.0747  0.2839  0.2737
15264W        W31525  18.303  17.422  13.438  0.2438  0.2231  0.3847
15265W        W31526   8.777  15.376   0.998  0.0392 -0.1531 -0.0433
15266W        W31527   8.756   2.388  14.913  0.1328 -0.3746  0.1825
15267W        W31528   3.721  18.202   1.404  0.0634  0.1770 -0.0152
15268W        W31529  17.229   1.840  15.386  0.2656  0.0854  0.0382
15269W        W31530  11.531   7.881  14.084 -0.0658  0.0613 -0.0324
15270W        W31531   3.337  17.707   2.101  0.1645 -0.1523  0.0953
15271W        W31532  16.013  10.480  10.623 -0.3740 -0.2524 -0.0286
15272W        W31533  18.008  13.490  12.965  0.0872 -0.0779 -0.2199
15273W        W31534   2.623  16.400   6.528  0.0977 -0.3138  0.0249
15274W        W31535   5.666   1.827   1.309 -0.2409  0.0354 -0.0596
15275W        W31536   6.871  16.837   0.395 -0.0916  0.3244  0.1471
15276W        W31537   3.097  14.409  14.857  0.1184  0.2545 -0.1065
15277W        W31538  10.693   0.438  12.339 -0.1407 -0.2529  0.1080
15278W        W31539  16.848   4.357  12.704 -0.2901  0.4410  0.2834
15279W        W31540   4.405   5.626  13.076  0.2196 -0.0047  0.0522
15280W        W31541  11.509   9.829  13.361 -0.2086 -0.2492 -0.1775
15281W        W31542   9.487  14.810   1.286 -0.1703 -0.1030  0.3468
15282W        W31543  10.436   8.768   5.114  0.6030 -0.2248  0.3446
15283W        W31544   8.489   2.983  11.997 -0.1316 -0.2644 -0.1255
15284W        W31545   6.742  15.771   1.219 -0.1972 -0.1246 -0.3293
15285W        W31546  14.470   8.509   2.580  0.3741  0.1224 -0.1881
15286W        W31547   9.573  13.448   1.555 -0.1113 -0.1828 -0.3854
15287W        W31548   9.057  18.340  15.674 -0.1536 -0.1622 -0.0465
15288W        W31549   5.130  13.494   0.810  0.2032  0.1517 -0.1542
15289W        W31550   4.931   3.197  11.649 -0.0316 -0.1181 -0.1825
15290W        W31551  14.126   1.826  12.037  0.1611 -0.1176  0.0108
15291W        W31552  10.830   6.347  14.147 -0.1564 -0.0895 -0.0293
15292W        W31553  11.331   6.626   5.376  0.0542  0.0833 -0.0865
15293W        W31554  16.400   8.013  15.611 -0.0664 -0.0692 -0.0707
15294W        W31555   6.620  14.898   4.657 -0.0161  0.2654  0.1940
15295W        W31556  11.402  13.788   5.661  0.1625  0.0409  0.1282
15296W        W31557   8.699   6.974   2.857  0.0349  0.3899 -0.0518
15297W        W31558   2.032   8.590  14.361  0.1593  0.2133 -0.0355
15298W        W31559  14.022   0.508   6.003  0.0451  0.1856  0.1057
15299W        W31560  12.454  10.047  13.132 -0.0973 -0.0092 -0.0559
15300W        W31561  18.216  13.135  16.137 -0.2622  0.0293  0.1110
15301W        W31562   7.101  15.091  15.437 -0.0998 -0.0021 -0.0053
15302W        W31563   5.413   6.344   4.179 -0.3912  0.0308  0.0119
15303W        W31564   1.115  14.120   5.604  0.0839 -0.1061 -0.2487
15304W        W31565  12.825  15.757  14.120 -0.2888 -0.0647  0.2213
15305W        W31566  15.418   5.761  12.287  0.1541  0.1087 -0.0105
15306W        W31567  15.578  14.576   1.861 -0.2165  0.1998  0.3046
15307W        W31568  11.105   6.663   2.157  0.1289  0.1523 -0.0328
15308W        W31569  14.096   4.127  14.223 -0.2366 -0.0947  0.2928
15309W        W31570   4.206   3.887   1.705  0.0910  0.3131 -0.1306
15310W        W31571  15.887  14.189  15.990  0.1205 -0.0917 -0.2339
15311W        W31572   7.971   7.080   4.225  0.0315 -0.1304 -0.0367
15312W        W31573   3.885  15.869   3.821  0.2339  0.2150 -0.0984
15313W        W31574  16.374  16.475  16.153  0.2260 -0.0439 -0.2696
15314W        W31575   5.785  15.473   0.699 -0.3278 -0.3374  0.3106
15315W        W31576  15.753  14.605  13.747 -0.2753 -0.2260  0.1887
15316W        W31577   4.386   2.944   2.626 -0.1404  0.3843 -0.0154
15317W        W31578   8.331  11.053  11.605 -0.0824  0.3198  0.1452
15318W        W31579   7.561   9.911   4.022 -0.0155 -0.0430  0.0359
15319W        W31580   9.439   6.610   4.115  0.3113  0.1484  0.0428
15320W        W31581  15.532   3.588   0.514  0.1750 -0.4578 -0.1192
15321W        W31582  17.725  10.836   4.377  0.2950 -0.0398 -0.1855
15322W        W31583   0.563   4.344   1.984 -0.3134 -0.0744  0.2507
15323W        W31584  15.800   0.053   4.981 -0.0346  0.0084 -0.2372
15324W        W31585   8.305  16.667   2.887 -0.0189 -0.1460  0.3579
15325W        W31586  12.513  11.378  14.915  0.1315 -0.0307 -0.1279
15326W        W31587  10.943  12.272   0.019  0.1333  0.2875  0.1076
15327W        W31588  17.686   8.614   0.568 -0.1851 -0.2943  0.0405
15328W        W31589  11.345  15.360  13.281 -0.0669 -0.2407  0.2556
15329W        W31590   4.279  15.527  11.516  0.0608 -0.2159 -0.0726
15330W        W31591  13.705  11.050  13.200 -0.0484  0.1180 -0.0825
15331W        W31592  10.299   4.941  12.764  0.2504 -0.0554 -0.0855
15332W        W31593   5.760  14.249  13.386  0.1455 -0.2152 -0.0555
15333W        W31594   3.611   6.021  12.306 -0.0544  0.0010  0.1948
15334W        W31595  11.442   5.621  11.111 -0.1681  0.3322  0.3767
15335W        W31596   7.335   4.601   5.686 -0.0116 -0.0954  0.1321
15336W        W31597  11.326   0.507  12.533 -0.1863  0.0533  0.0101
15337W        W31598   9.259  10.642  13.883  0.3286  0.1799  0.0519
15338W        W31599  12.129  17.216   1.219  0.0066 -0.3854 -0.0414
15339W        W31600  10.205   0.996   2.834 -0.0232  0.1589 -0.3019
15340W        W31601  12.498   6.274   1.399  0.1220  0.0182 -0.2922
15341W        W31602   6.507  13.469   0.987  0.4768 -0.3524  0.0697
15342W        W31603   7.737  16.907   2.058 -0.1013  0.1916  0.0648
15343W        W31604  13.878   6.018   5.012 -0.0979  0.1006 -0.0596
15344W        W31605   4.959   0.389  11.679  0.2730 -0.0519  0.1348
15345W        W31606   1.377   1.316  12.432  0.0462  0.0485 -0.0443
15346W        W31607  11.952  12.511   3.669  0.0704 -0.1858 -0.1338
15347W        W31608  17.091   8.981  16.264 -0.4288  0.1752  0.0186
15348W        W31609  13.408   3.726   2.360 -0.0816 -0.6406 -0.0545
15349W        W31610   7.789  17.519   2.974  0.2259  0.0139 -0.0874
15350W        W31611  11.729   2.036  15.923 -0.0112 -0.3958 -0.2816
15351W        W31612  16.411   2.334   4.981 -0.0576  0.2386 -0.2939
15352W        W31613  17.431   6.136   1.085 -0.0197  0.0908  0.0574
15353W        W31614   1.696  11.254  13.834 -0.1874 -0.2009 -0.0043
15354W        W31615   4.572   4.368  13.854 -0.0105  0.2540 -0.1282
15355W        W31616   8.378  12.393  11.598 -0.0238  0.1716  0.3898
15356W        W31617  11.664   5.395   0.197 -0.2390  0.0945  0.0802
15357W        W31618   5.541   4.061   5.472 -0.0934 -0.1128 -0.3594
15358W        W31619   6.661  16.705  16.241  0.1744 -0.4418 -0.2780
15359W        W31620  17.489   5.689   0.731  0.1076 -0.0436 -0.1123
15360W        W31621   3.020  10.341  14.221  0.2690 -0.1127 -0.0290
15361W        W31622  16.541  12.777  11.829  0.3005 -0.0053  0.1002
15362W        W31623   5.631   3.665  15.364  0.4147  0.3219 -0.1423
15363W        W31624  13.520   3.349   3.028 -0.0048 -0.3434  0.1940
15364W        W31625  14.954   4.449   1.579  0.1575  0.0321  0.3181
15365W        W31626   7.626   2.350   2.502  0.0046 -0.1812  0.0810
15366W        W31627   2.847  15.931   0.368  0.1995 -0.0337  0.1240
15367W        W31628   8.631  15.872   5.196 -0.0286 -0.3334 -0.1506
15368W        W31629  14.774  11.872  12.404 -0.0076  0.3890  0.4970
15369W        W31630   5.005  11.124  13.114 -0.2881 -0.0224  0.4222
15370W        W31631   3.315  17.244  14.883 -0.3000  0.0610 -0.1995
15371W        W31632  15.043  11.290  14.894 -0.0028 -0.0710 -0.1968
15372W        W31633   0.127   3.638   2.404  0.0894 -0.0399  0.0981
15373W        W31634   2.504   7.000  15.714 -0.6365 -0.3361  0.3838
15374W        W31635  14.037   0.471   0.894  0.0819 -0.0678 -0.1398
15375W        W31636  13.617  14.080  15.292  0.0328  0.1901 -0.2443
15376W        W31637  16.115  14.395   2.069  0.1221  0.2861  0.0975
15377W        W31638  16.074   8.746   5.230  0.0647  0.0520 -0.2231
15378W        W31639   8.424  17.739   3.856  0.1645  0.0878  0.1316
15379W        W31640   5.218   3.648  13.536  0.0829  0.0720  0.0543
15380W        W31641  16.375   0.287  12.471  0.1075 -0.2951 -0.3876
15381W        W31642   0.293   0.880   6.041 -0.2101 -0.0965 -0.0550
15382W        W31643  16.799  11.563  11.810 -0.3650  0.2012  0.3687
15383W        W31644  18.272  10.340  15.621 -0.2657  0.3093 -0.0432
15384W        W31645   0.300   9.810   4.871  0.3091  0.1159  0.1038
15385W        W31646   0.993  15.890   2.794  0.1540  0.0256 -0.0403
15386W        W31647   2.929   3.003   6.269  0.1401 -0.1913  0.2386
15387W        W31648   4.258  14.427  15.708 -0.4677  0.0672 -0.0649
15388W        W31649  15.557   5.890  12.869 -0.1604 -0.2959 -0.0427
15389W        W31650  13.221  13.120   0.144  0.1512 -0.1988 -0.1043
15390W        W31651  17.877   5.168   1.826  0.1691 -0.4116  0.0891
15391W        W31652  14.122   8.328   4.843 -0.0722  0.2462  0.1863
15392W        W31653  12.860  10.947  15.355 -0.0813  0.2293 -0.0777
15393W        W31654   2.269   7.089  11.757 -0.1103  0.1394 -0.5738
15394W        W31655  11.885  15.325   9.790 -0.0878  0.0656  0.0115
15395W        W31656   7.907  17.646   3.873 -0.1245 -0.2044 -0.0746
15396W        W31657   1.591  13.812  13.883  0.1650  0.0172  0.0394
15397W        W31658   9.914   0.221  13.488  0.2595 -0.2773  0.0521
15398W        W31659   7.104   8.994  12.340  0.2694  0.0101  0.3521
15399W        W31660   9.353  13.180   2.885  0.1200 -0.0105  0.2383
15400W        W31661   9.464   8.394   5.123 -0.0818  0.5648  0.0509
15401W        W31662   3.113   3.474   0.932 -0.1260  0.0362 -0.2950
15402W        W31663   0.999  11.290  11.418  0.0661 -0.2555 -0.1478
15403W        W31664   4.555   2.846  14.492 -0.1490  0.3870  0.1685
15404W        W31665   1.663   6.331   0.000 -0.2056  0.1405  0.2026
15405W        W31666   1.748  16.652   0.398 -0.0039  0.0192  0.1143
15406W        W31667  17.992   6.890   2.609 -0.0385 -0.0602 -0.1262
15407W        W31668   0.429   2.907  15.842 -0.0853 -0.1528 -0.0090
15408W        W31669   6.904   2.372   3.044  0.3367 -0.1076  0.0246
15409W        W31670  12.860   2.146   1.103  0.0193 -0.0507  0.2046
15410W        W31671  11.398   1.956  14.736  0.2353 -0.0591  0.1694
15411W        W31672  13.401   9.304   2.568 -0.0045 -0.0873 -0.0681
15412W        W31673  18.130  14.433  12.789  0.1688  0.1082  0.1527
15413W        W31674   4.066  15.112  11.400  0.3114 -0.1259  0.4807
15414W        W31675   8.535  16.926  14.044 -0.3058  0.0560 -0.1707
15415W        W31676   0.319   1.935  11.998 -0.0002 -0.1942  0.1751
15416W        W31677   2.132   3.375   1.585  0.1936 -0.1965  0.1899
15417W        W31678  13.013   6.474   0.728  0.1850 -0.1610 -0.0503
15418W        W31679   9.609   6.550  15.317 -0.3239  0.1691  0.0737
15419W        W31680   2.571   9.802  11.356  0.1432  0.3077  0.0126
15420W        W31681   2.981  16.818   5.597  0.1362  0.0355 -0.1914
15421W        W31682   7.723   4.515   9.835  0.0992 -0.3363 -0.2280
15422W        W31683   2.982  12.378   1.731  0.1706 -0.0451 -0.2080
15423W        W31684  13.491  16.657   0.432 -0.0554 -0.1431  0.2249
15424W        W31685   5.575  17.498   0.555  0.0292  0.2725  0.0676
15425W        W31686   4.132   8.665  12.007  0.2593  0.1524 -0.0007
15426W        W31687   9.825  16.271   1.380  0.0388  0.0448  0.0128
15427W        W31688  14.046   4.847   2.046 -0.0507  0.0578  0.0154
15428W        W31689  10.439  17.104  15.523  0.1982 -0.0076  0.2801
15429W        W31690  16.760   4.576  14.766 -0.3598 -0.0128  0.1830
15430W        W31691  12.898   9.400   1.713 -0.0359 -0.0176 -0.2300
15431W        W31692  12.836   4.261   1.440 -0.0467 -0.1199  0.3545
15432W        W31693  15.925   8.162  15.725 -0.1282  0.2208  0.0785
15433W        W31694  16.948   9.485   2.032  0.3040 -0.1507  0.1155
15434W        W31695   5.680  10.103  12.847 -0.1632  0.2754  0.0082
15435W        W31696  15.242   2.654   2.189  0.0183  0.0025 -0.3949
15436W        W31697   4.268   2.075  14.751  0.0016 -0.1395  0.2917
15437W        W31698   7.756   0.143   0.777  0.0606  0.1161 -0.1785
15438W        W31699   2.765   7.382   4.130 -0.2195  0.2045  0.1848
15439W        W31700   6.538   4.261   2.677  0.1233 -0.1799 -0.0889
15440W        W31701  10.419   6.127  13.923 -0.1642 -0.1307 -0.0254
15441W        W31702  11.849  17.290   4.046  0.1240 -0.0893  0.1501
15442W        W31703  14.014   8.243  10.311  0.0083 -0.1432 -0.0805
15443W        W31704   9.779  17.688  13.549 -0.1483 -0.4671  0.2521
15444W        W31705  12.709   8.676   5.784  0.0507  0.1231 -0.3450
15445W        W31706   0.119   3.147   5.573 -0.2592  0.0575 -0.1379
15446W        W31707   6.852  16.539  13.459  0.0331  0.0535 -0.1387
15447W        W31708   6.126  17.730  13.226  0.0689  0.0035  0.0157
15448W        W31709   1.168  14.165  16.296  0.0756 -0.0771 -0.0491
15449W        W31710   9.595  10.944  15.051  0.2313  0.1276  0.1579
15450W        W31711  13.904   1.860   2.739  0.1596  0.0657  0.3289
15451W        W31712   4.744  13.468   2.227 -0.0167 -0.1302 -0.0884
15452W        W31713  15.463   0.085   0.755  0.1739  0.0813 -0.0603
15453W        W31714  12.605   2.977  15.822 -0.2015  0.2035 -0.0842
15454W        W31715  12.852   8.601  12.940 -0.2072 -0.0798  0.3292
15455W        W31716  12.794  11.137   4.380 -0.2032 -0.0832 -0.1638
15456W        W31717   7.931  16.389  15.081  0.1774 -0.1822  0.0008
15457W        W31718   0.599  13.008  14.666  0.4278  0.1457 -0.1123
15458W        W31719  13.014   0.403  13.488 -0.1777  0.1526 -0.2421
15459W        W31720   3.763  16.639  13.062 -0.1561  0.0644  0.2886
15460W        W31721  10.944   8.569   5.160 -0.2242  0.0637  0.1116
15461W        W31722   6.102  13.605  12.796  0.1879  0.1367  0.1509
15462W        W31723   6.896   3.928   5.391  0.2055 -0.1876  0.4577
15463W        W31724  11.027   2.856  14.742 -0.0044 -0.3268 -0.2767
15464W        W31725   4.379  10.640   4.932 -0.1578  0.3051 -0.0044
15465W        W31726  11.258   6.008   3.612  0.0369 -0.0126 -0.0402
15466W        W31727  13.514   3.957   3.983  0.0080 -0.2575  0.0667
15467W        W31728   6.427  15.389  15.798  0.2022  0.2782 -0.0180
15468W        W31729  17.586  12.939  14.392  0.0746  0.2186 -0.1237
15469W        W31730  10.557   9.886  15.887  0.2400 -0.0467 -0.0545
15470W        W31731  17.719   4.202  11.736 -0.2430 -0.0321  0.2690
15471W        W31732  13.312   1.540   2.199 -0.0386  0.0893  0.2382
15472W        W31733   1.399   5.430  16.100 -0.3582 -0.0850  0.0812
15473W        W31734   6.883  14.665   4.126 -0.0101 -0.1781 -0.0761
15474W        W31735  16.808  16.186   3.520  0.1574 -0.3242 -0.2715
15475W        W31736  11.860   2.916   3.985 -0.2187 -0.0746  0.1791
15476W        W31737  15.428  15.435   2.000 -0.1434 -0.1205 -0.0333
15477W        W31738  12.327  14.290   0.148 -0.0760 -0.1368 -0.1189
15478W        W31739  13.171   1.531   3.416 -0.0305  0.0236  0.0915
15479W        W31740  15.127  12.794  12.201 -0.4163  0.0513 -0.0215
15480W        W31741  10.315   4.253  11.345  0.0248 -0.0050  0.1296
15481W        W31742  15.955   8.403   1.175  0.0981  0.2307 -0.0176
15482W        W31743   5.372  12.308  15.940 -0.0905 -0.1727  0.1842
15483W        W31744  10.652  15.390  14.838 -0.2693  0.0576  0.1567
15484W        W31745   4.734   8.970  15.135 -0.1587  0.1471  0.0786
15485W        W31746  14.391   7.664   0.879 -0.3209  0.0290  0.0718
15486W        W31747  10.643   2.702  13.019  0.0502 -0.0908  0.0058
15487W        W31748  16.184   2.187  12.319 -0.3123  0.1165 -0.0246
15488W        W31749   8.308   1.651   1.846 -0.0566  0.0468 -0.2277
15489W        W31750   5.980   8.442   0.593  0.1815  0.0362  0.0443
15490W        W31751   9.960  14.811  15.229  0.1964 -0.1191  0.0264
15491W        W31752  12.788  16.662  12.676  0.0375 -0.0236 -0.0864
15492W        W31753   3.042   9.242  15.240  0.0141  0.0258  0.0947
15493W        W31754  17.846   4.321   1.140 -0.3593 -0.0695 -0.1673
15494W        W31755   4.487   8.918  15.881 -0.0032 -0.1019 -0.0649
15495W        W31756   0.529  16.321   3.859  0.2407 -0.1337 -0.1593
15496W        W31757  13.162   8.049   3.395 -0.0356  0.3959 -0.2290
15497W        W31758  18.036   0.651  13.344 -0.1160  0.1943 -0.1984
15498W        W31759  12.096  14.270  11.941  0.3052  0.0453  0.1724
15499W        W31760   8.734   1.790   0.904 -0.2711 -0.1674  0.1937
15500W        W31761   9.332   0.532   4.562 -0.0770  0.1087  0.2468
15501W        W31762  15.153   9.058   3.701 -0.0071  0.3298 -0.1725
15502W        W31763   0.022  15.230   3.381 -0.1046 -0.3288 -0.0708
15503W        W31764   4.093   0.675   2.737 -0.1606  0.0972 -0.2876
15504W        W31765   0.114  13.649  13.201 -0.1923 -0.5389  0.0367
15505W        W31766   4.054  18.211  13.546  0.1109 -0.1392  0.1899
15506W        W31767   1.433   8.608   6.635  0.0110  0.0687 -0.1028
15507W        W31768   5.422   2.368   0.363  0.2429 -0.1337 -0.1342
15508W        W31769  16.811   8.785   1.100 -0.0126 -0.0857  0.1509
15509W        W31770   3.411  16.630  13.440  0.1194  0.1889  0.2227
15510W        W31771   2.193   9.204   0.114 -0.1804 -0.0159  0.0494
15511W        W31772  13.128  11.148   1.913  0.2265  0.4487  0.0649
15512W        W31773  12.748   2.791   4.992  0.0592  0.0488 -0.1502
15513W        W31774  16.925   9.012   2.833 -0.0474  0.0378 -0.4392
15514W        W31775   9.595  12.853   2.637 -0.0891  0.0605 -0.0341
15515W        W31776  17.116   0.242  12.519  0.0090 -0.0646  0.0722
15516W        W31777  11.414   6.370  16.084 -0.2154 -0.3764  0.1556
15517W        W31778   2.615   0.804   0.002 -0.0106 -0.0917 -0.2770
15518W        W31779  17.011   1.464   4.208 -0.2831  0.3380  0.2501
15519W        W31780   2.206   7.702   5.910 -0.3911 -0.0850  0.2624
15520W        W31781   5.484  14.010  14.429 -0.0366  0.0884 -0.1979
15521W        W31782   7.136  14.443  12.246 -0.0920  0.0573  0.0361
15522W        W31783  10.038   7.241  11.479  0.0061 -0.0571 -0.2469
15523W        W31784  11.305   1.637   0.815 -0.1818 -0.0523 -0.0660
15524W        W31785   2.253   4.030  13.004  0.1329  0.1353  0.1399
15525W        W31786  16.325  11.729  11.905 -0.4500 -0.0575  0.2029
15526W        W31787  14.497  13.920  14.310  0.2238  0.1536 -0.0628
15527W        W31788  14.457  16.246  12.009 -0.0332 -0.0228 -0.2038
15528W        W31789   5.753   5.923  14.927 -0.1648 -0.0700  0.2924
15529W        W31790   0.318  11.984  14.471  0.0187  0.0114  0.1407
15530W        W31791  18.307   6.255  14.803  0.0055  0.3030  0.1959
15531W        W31792   5.041   0.350   0.053  0.3320 -0.1629 -0.1434
15532W        W31793   5.839   3.427   2.866 -0.2146 -0.1720  0.2095
15533W        W31794  16.766  16.177  12.609  0.1250  0.1745 -0.0388
15534W        W31795  16.443  15.224   3.431  0.4547  0.2871 -0.1318
15535W        W31796   2.878  10.045  13.837  0.1214 -0.1715 -0.0001
15536W        W31797  16.767  11.224  11.445 -0.4101  0.0629 -0.2457
15537W        W31798   0.335   8.843  12.261 -0.1643  0.0778  0.2901
15538W        W31799  16.336  10.612  14.660  0.4730  0.4700 -0.0790
15539W        W31800   3.352  11.422  14.626  0.0628  0.1734 -0.2599
15540W        W31801   8.940  10.593   0.241 -0.1296  0.2567 -0.1313
15541W        W31802   6.682   4.630  13.246 -0.2277  0.1606 -0.0953
15542W        W31803  15.949  10.006   2.253 -0.0093 -0.0367 -0.0714
15543W        W31804  10.118   1.700   0.460  0.1202 -0.1934 -0.0726
15544W        W31805   0.899  11.858   5.557  0.1044  0.1637 -0.2102
15545W        W31806  10.224   4.809   2.039  0.1965  0.0523  0.1861
15546W        W31807   8.364   7.385   0.833  0.0291  0.1201  0.1144
15547W        W31808  14.740   5.107  14.327  0.1638 -0.1665 -0.1170
15548W        W31809   8.568  13.595  11.546 -0.0438  0.0946  0.3671
15549W        W31810   2.078  17.124   0.393 -0.1632 -0.0111 -0.1542
15550W        W31811   2.021   4.052  15.391 -0.4224 -0.0670 -0.1414
15551W        W31812   9.521  12.719  15.604 -0.4137 -0.0363 -0.3189
15552W        W31813   8.639  14.331  14.821 -0.1291 -0.0844 -0.0476
15553W        W31814  13.334  10.411   2.140 -0.2810  0.0478 -0.1170
15554W        W31815  15.676   1.163   4.021  0.3146  0.3199  0.1542
15555W        W31816  18.303   5.246  16.018  0.0332 -0.1439 -0.0609
15556W        W31817   7.847   7.358   1.313 -0.1583  0.3038 -0.2572
15557W        W31818   2.479   8.436  11.357  0.1704  0.0018  0.1857
15558W        W31819  16.241  16.180   2.747 -0.3190  0.1909 -0.1075
15559W        W31820  18.023   3.063   2.402 -0.2896  0.1878  0.1153
15560W        W31821  15.426   6.117  15.177  0.2366  0.2312 -0.0352
15561W        W31822  11.468   5.808   2.541 -0.0286  0.1298  0.0700
15562W        W31823   1.057  12.847  13.957  0.0365  0.3833  0.0779
15563W        W31824  16.798   7.252  16.146 -0.2399  0.1037  0.1091
15564W        W31825   7.669  15.091  15.408  0.1968 -0.1231  0.0969
15565W        W31826  11.033   6.001   1.838  0.0604 -0.0807  0.0611
15566W        W31827   5.032  13.772  15.528  0.2411  0.3368  0.0900
15567W        W31828   1.863   5.253   4.567 -0.2120 -0.1583 -0.0015
15568W        W31829  17.192  17.935   0.621 -0.0812  0.0675  0.1834
15569W        W31830  13.048  16.532   5.318  0.1523  0.0588 -0.0643
15570W        W31831  12.619  16.941  11.663 -0.0724  0.1479  0.0514
15571W        W31832   8.293  16.029   2.166 -0.0424 -0.0630 -0.3940
15572W        W31833  13.607  15.409  12.189  0.1252  0.0064 -0.1298
15573W        W31834   1.599  16.450   6.209 -0.0748 -0.2297  0.0847
15574W        W31835   5.645  11.653   1.188 -0.1762  0.0198  0.1191
15575W        W31836   9.512  16.241  11.630 -0.0944 -0.0222 -0.0237
15576W        W31837   6.105  10.299   3.427 -0.0188 -0.0004  0.0846
15577W        W31838   6.815   0.699  12.937 -0.1120  0.0522 -0.2537
15578W        W31839   1.998  12.516   3.548 -0.0672 -0.2310 -0.2440
15579W        W31840  15.553  17.900   2.672 -0.2392 -0.1201 -0.1640
15580W        W31841   9.168  11.772   4.060  0.0904 -0.0023 -0.1165
15581W        W31842  11.323  16.460  14.098  0.2542  0.4334 -0.1893
15582W        W31843   2.813  17.544   3.391 -0.2517 -0.0997  0.1187
15583W        W31844  13.883   4.458   1.565 -0.0602  0.1431 -0.0362
15584W        W31845   5.098   6.082   3.841 -0.2256 -0.0997  0.0943
15585W        W31846   4.331  13.334  14.002  0.1253 -0.2482 -0.0781
15586W        W31847   8.250   5.353  12.823  0.2048  0.2498 -0.0368
15587W        W31848  11.127   2.350   0.349 -0.1098  0.1715 -0.1108
15588W        W31849   9.026   8.039  12.088 -0.0512  0.0572  0.0847
15589W        W31850   2.027  15.533   4.828 -0.2023 -0.0273  0.2488
15590W        W31851  12.688   0.101  12.535 -0.0084  0.3324  0.2770
15591W        W31852  10.321  18.274  13.737  0.2077 -0.4349 -0.1781
15592W        W31853   8.596  12.247   1.554  0.1543  0.0832  0.0840
15593W        W31854  10.004   1.782  11.499  0.0468  0.1516  0.0995
15594W        W31855   3.818  12.081  12.320  0.0590 -0.1381  0.1607
15595W        W31856   9.008   0.509  12.577 -0.0549 -0.0097  0.1429
15596W        W31857  10.414   6.100  15.505  0.5455 -0.6120  0.1805
15597W        W31858   4.391  16.812  12.405  0.3149  0.0117 -0.2041
15598W        W31859  10.372  15.500   2.178 -0.2721  0.0148 -0.0222
15599W        W31860   9.740   9.330   4.553  0.0527  0.0639 -0.0200
15600W        W31861   9.056  11.552  14.576 -0.0352 -0.0288  0.0062
15601W        W31862   7.577   9.080   0.625  0.2574  0.1179 -0.2054
15602W        W31863  11.602   9.474   2.901  0.0894  0.0048 -0.1845
15603W        W31864   8.051  10.634  11.557  0.4890  0.0505  0.0137
15604W        W31865   4.970   3.635  14.317 -0.0189  0.1871  0.1418
15605W        W31866  18.158  14.355   0.450  0.2120 -0.1388  0.1810
15606W        W31867   0.427   8.888   2.951  0.0005  0.1715 -0.2789
15607W        W31868  14.150  14.394  13.845 -0.0260 -0.2402 -0.3244
15608W        W31869   9.169   3.761   4.976 -0.0397  0.3852 -0.2632
15609W        W31870   8.385   1.206  13.069 -0.1204 -0.4420  0.0684
15610W        W31871   1.888   4.959   3.100  0.0637 -0.1258  0.2027
15611W        W31872  12.653   9.642   0.443  0.3970 -0.0074  0.1493
15612W        W31873   9.826  10.011   2.295 -0.3816 -0.1505 -0.0467
15613W        W31874  16.183   9.975  11.500 -0.1581  0.1548 -0.1119
15614W        W31875  14.476  10.039  13.743 -0.0502 -0.2419  0.1360
15615W        W31876   9.144  10.067   2.193 -0.1034 -0.1083  0.0126
15616W        W31877  10.022  13.150  12.060 -0.0012  0.1867 -0.0375
15617W        W31878   2.319   7.975  12.063 -0.3007 -0.2470  0.1552
15618W        W31879   2.765   1.368  11.878 -0.2848 -0.0826 -0.0393
15619W        W31880   4.615  10.637   0.424  0.1650  0.2638 -0.1459
15620W        W31881  12.007  16.655  11.918  0.0753 -0.0611 -0.1340
15621W        W31882   9.703  17.883  12.194  0.1744 -0.0351 -0.0755
15622W        W31883   1.304  16.556  15.794 -0.0658 -0.2237  0.3714
15623W        W31884   7.061  15.946  11.681  0.1726 -0.2966  0.0776
15624W        W31885   8.549  17.128  15.569 -0.0330 -0.1938  0.0779
15625W        W31886   6.370   1.739  11.286 -0.1031 -0.0705  0.2091
15626W        W31887   4.654   6.252   3.928  0.0426 -0.1571 -0.1425
15627W        W31888  14.896   8.441   4.251  0.3659 -0.1644 -0.0892
15628W        W31889   9.834   7.583   0.490 -0.2942  0.2093 -0.2692
15629W        W31890   3.614   2.675  14.770  0.0553 -0.1489 -0.0071
15630W        W31891  14.046  11.848  15.675 -0.0530  0.0303 -0.0352
15631W        W31892  17.873   6.148  13.436  0.2946 -0.0625  0.1133
15632W        W31893   1.868   7.293  15.751 -0.0159 -0.0189  0.1363
15633W        W31894  17.231   9.133   4.819 -0.0667 -0.3353 -0.1423
15634W        W31895   8.111   3.474  12.669  0.1146  0.0834 -0.0625
15635W        W31896   1.689   1.846   4.732 -0.1721  0.2998 -0.0012
15636W        W31897   8.441   0.741  16.082  0.2073  0.2133 -0.0143
15637W        W31898  12.748   3.221   2.861 -0.1395  0.0010  0.0902
15638W        W31899  15.770   8.244   4.240 -0.3349 -0.2464 -0.1478
15639W        W31900   7.194  11.501  12.293  0.1418  0.0575 -0.1797
15640W        W31901   6.828  18.358   4.411 -0.0388  0.0887  0.1266
15641W        W31902  12.644   5.073   3.226 -0.1610  0.1723 -0.3137
15642W        W31903  18.054  13.185   3.074  0.0962  0.3495  0.0559
15643W        W31904  10.996   9.253  15.254 -0.1035  0.2292  0.1673
15644W        W31905  12.213   5.279  12.690  0.2376 -0.1349  0.0687
15645W        W31906   9.935  16.990  11.263  0.2411 -0.1621 -0.3736
15646W        W31907  11.757   7.296  15.651  0.0343 -0.1126 -0.2399
15647W        W31908   5.852   6.736   2.857  0.0213  0.3264 -0.0017
15648W        W31909   4.404   3.174  14.817  0.0671  0.3625  0.1246
15649W        W31910   8.827  13.637  15.693  0.1128  0.0329 -0.0695
15650W        W31911  15.355  15.877   4.623  0.2335  0.2128  0.0993
15651W        W31912  18.063  11.767   5.165  0.1386  0.2318  0.0420
15652W        W31913   9.421   8.426   1.054 -0.0469  0.1888  0.0612
15653W        W31914   8.940   3.770   5.444  0.0323 -0.0491  0.0298
15654W        W31915  11.291   0.761  13.299 -0.0049  0.0519  0.0363
15655W        W31916   5.246  17.202   4.161  0.0386  0.0518 -0.1656
15656W        W31917  16.561   3.247   4.476 -0.1800  0.1026  0.2008
15657W        W31918  10.859  16.014   5.220  0.0747  0.0535 -0.0272
15658W        W31919  12.728   1.770   4.291 -0.0865 -0.0633  0.0817
15659W        W31920  12.220  11.105   2.452 -0.0996  0.1796 -0.1915
15660W        W31921   3.329  14.341   1.924 -0.0900 -0.1306  0.2358
15661W        W31922   2.528  17.431   0.468 -0.1389  0.1857  0.1605
15662W        W31923   1.902  11.805   1.740 -0.3098 -0.1173 -0.3327
15663W        W31924   2.529  10.786  11.380 -0.0039  0.0733 -0.0526
15664W        W31925  16.307   7.957  11.342  0.2647  0.0169 -0.2218
15665W        W31926   7.204  16.663  11.328  0.1207  0.0037 -0.1067
15666W        W31927   4.613   6.878   1.966  0.0064 -0.0390 -0.1135
15667W        W31928  17.525   3.477   1.592  0.0545 -0.0180 -0.0062
15668W        W31929   2.642  18.207   1.714  0.0875  0.2186 -0.1135
15669W        W31930   4.259   8.422   1.041 -0.1678 -0.0787  0.0771
15670W        W31931   6.097   1.054   0.094  0.1765  0.2299  0.2171
15671W        W31932  14.497  11.295  11.696 -0.1953 -0.0161  0.0377
15672W        W31933   0.746   9.669  12.091 -0.1590 -0.0259  0.0417
15673W        W31934  13.414  10.879   3.019 -0.2139 -0.1878  0.0681
15674W        W31935   3.846   0.654  13.931  0.2194 -0.0420  0.1095
15675W        W31936   5.826  16.844  15.542 -0.1157  0.3117  0.1323
15676W        W31937  14.760   2.219  15.103  0.1803  0.1531 -0.1937
15677W        W31938  16.289   2.804   4.583  0.0786 -0.1708  0.3524
15678W        W31939  14.709   6.319  11.372 -0.1616 -0.1972  0.0243
15679W        W31940  10.172   7.386   1.854  0.0599  0.0719  0.0727
15680W        W31941  13.261   3.349   4.279 -0.3744 -0.1677 -0.1069
15681W        W31942   3.284  11.670   1.131 -0.0880  0.1969  0.4448
15682W        W31943  10.988  12.280   3.186 -0.0766  0.0060 -0.0378
15683W        W31944  10.197  17.855   3.344 -0.0057 -0.2338 -0.1629
15684W        W31945  18.190   4.614  13.851 -0.0633  0.0839 -0.1074
15685W        W31946   0.656  16.703   2.856  0.2407 -0.0149  0.2059
15686W        W31947   1.378   2.169   1.557 -0.3861  0.0703 -0.3496
15687W        W31948  16.760   2.486  13.321 -0.0568 -0.0622 -0.4413
15688W        W31949   3.651   3.469  13.680 -0.0292 -0.4715  0.1287
15689W        W31950   3.718  12.399   2.658  0.3193 -0.1238  0.0699
15690W        W31951  12.148  12.506   2.291  0.0050 -0.0505  0.1619
15691W        W31952  12.315   2.057   4.367 -0.0473  0.1354 -0.0482
15692W        W31953   5.671   3.009   3.101  0.0020 -0.0800 -0.1544
15693W        W31954   2.154   7.920  15.679 -0.0199 -0.1111  0.1642
15694W        W31955   0.620   0.297  13.985  0.1056  0.3268  0.1934
15695W        W31956  13.398  11.021  11.431 -0.0093 -0.3235 -0.2801
15696W        W31957  15.208   5.339  15.753  0.1626  0.1053 -0.0096
15697W        W31958  12.637  16.714   4.524  0.0139 -0.1668 -0.2787
15698W        W31959   2.566  12.372   0.279  0.0134  0.0105 -0.1523
15699W        W31960  10.792  13.771   2.888 -0.1822  0.0750  0.0041
15700W        W31961   7.629  16.707  12.318  0.0846 -0.1285 -0.1997
15701W        W31962  15.615   1.123  16.026  0.3202 -0.0485 -0.0538
15702W        W31963   9.872   8.271  13.248 -0.2184  0.1821 -0.1327
15703W        W31964  15.073  12.662   0.939  0.0568 -0.0319  0.2765
15704W        W31965   8.666   3.979   0.108 -0.0208  0.0505 -0.0411
15705W        W31966   3.072   3.403   3.357 -0.0632  0.0500 -0.3181
15706W        W31967   8.875  16.507  12.481 -0.0356  0.2665 -0.0741
15707W        W31968  15.757   9.612  13.724 -0.1457  0.0510 -0.1921
15708W        W31969  12.661   3.050  13.765  0.0420 -0.1237 -0.1056
15709W        W31970  18.155   5.312  12.664  0.0095  0.1879 -0.1751
15710W        W31971  11.799  10.152   2.555 -0.0701 -0.2751  0.2636
15711W        W31972  12.459  15.146   0.108 -0.1510 -0.3046  0.0905
15712W        W31973  16.322  11.098   2.993 -0.2168  0.1523  0.1107
15713W        W31974   6.296  17.714  15.618  0.1776 -0.1055 -0.1628
15714W        W31975   1.375  11.734  13.210  0.4657 -0.2175 -0.2992
15715W        W31976   6.408  13.195   0.542  0.1132  0.4321 -0.1297
15716W        W31977  15.932   2.667  13.634 -0.0430 -0.0144  0.3903
15717W        W31978  13.148   6.214  13.442 -0.3246  0.4241  0.4293
15718W        W31979  12.213   6.453   2.664  0.0604  0.0708 -0.0019
15719W        W31980  16.016   5.020  13.023 -0.1726  0.1098 -0.1127
15720W        W31981  16.288   5.924  15.632  0.1652 -0.1090 -0.1572
15721W        W31982  14.149  16.189  15.815 -0.4948  0.3229 -0.2514
15722W        W31983   3.017   5.237   1.265  0.1602 -0.4029 -0.2316
15723W        W31984   0.830   8.296   4.014  0.3371  0.0473 -0.0955
15724W        W31985  16.135   7.061   2.754 -0.4025  0.1411  0.1181
15725W        W31986  11.910   8.435  11.094 -0.0647  0.1399  0.1119
15726W        W31987   2.143   9.455  13.430 -0.1780 -0.3650  0.1408
15727W        W31988  15.287  12.187  13.538 -0.0979  0.1399  0.0248
15728W        W31989  17.765   4.149   6.260  0.1605 -0.2009 -0.5150
15729W        W31990   9.360  12.581  11.495  0.1212  0.0368  0.2190
15730W        W31991  14.925   3.990  13.833 -0.2132 -0.2057  0.1255
15731W        W31992  17.529  11.864   1.577  0.3245 -0.1669  0.1717
15732W        W31993   8.006   9.272  13.896  0.0249  0.1265  0.1529
15733W        W31994  11.759  11.564  13.309 -0.0215  0.0020  0.0151
15734W        W31995  10.685  12.099  13.195  0.0521  0.1442  0.1579
15735W        W31996   6.061   8.428  11.530  0.0653  0.0938  0.0696
15736W        W31997   0.918   0.991   0.803  0.0996 -0.2767  0.0844
15737W        W31998  13.912  17.580  14.158  0.2048  0.1758  0.0245
15738W        W31999   2.001  13.205  11.468  0.2917  0.1852 -0.0807
15739W        W32000  10.384  11.276   3.662  0.3568  0.0541  0.0207
15740W        W32001  10.956  16.837   4.055  0.0301  0.1247  0.0280
15741W        W32002   2.018   4.170   1.982 -0.0210 -0.1663  0.2238
15742W        W32003  15.468  17.230  13.144 -0.1999  0.1381 -0.2126
15743W        W32004   2.631  13.064  13.037  0.1635 -0.0209 -0.0919
15744W        W32005  14.148  13.870   5.296 -0.0967 -0.0273  0.0748
15745W        W32006  14.395  10.527  12.344  0.0565  0.1644 -0.3151
15746W        W32007   7.101  10.642   0.291 -0.0321 -0.1081 -0.2918
15747W        W32008  16.414  11.689  12.697 -0.2044  0.0276  0.1203
15748W        W32009  13.319   2.067   4.990 -0.3553 -0.3672  0.0120
15749W        W32010   1.383  11.111   3.189  0.2181  0.0122 -0.1548
15750W        W32011   2.564  18.286   1.010  0.1808 -0.2316 -0.2024
15751W        W32012  17.062   6.166   3.176  0.1560 -0.0872 -0.1463
15752W        W32013   1.861   8.962   4.051 -0.2377  0.0666 -0.0963
15753W        W32014   9.395   3.867   4.484  0.0606 -0.1453  0.0407
15754W        W32015   6.351   7.545  11.235 -0.2958  0.3121 -0.2132
15755W        W32016   0.920  10.168  12.093  0.2132  0.2034 -0.1444
15756W        W32017   3.584   9.171   5.272 -0.0074 -0.0473  0.1398
15757W        W32018  17.611  14.796   5.552 -0.0146  0.1309 -0.2384
15758W        W32019  17.623   3.531  13.952 -0.2804  0.2233 -0.2310
15759W        W32020   8.590  16.163   4.631  0.1786  0.0126  0.0925
15760W        W32021   6.730  15.586  11.951  0.0586  0.2277  0.2433
15761W        W32022  10.710   2.139  12.993  0.3518 -0.1625  0.0061
15762W        W32023  17.389  15.365   0.155 -0.3481 -0.3589  0.1347
15763W        W32024  16.990   4.830  16.132 -0.2354 -0.3432  0.0028
15764W        W32025   0.252  14.116  15.977  0.4673  0.1657 -0.1249
15765W        W32026   6.947   9.517  12.534 -0.0630 -0.0500  0.0191
15766W        W32027  14.065  13.705   0.060  0.1573  0.1320  0.2401
15767W        W32028   6.530   1.190   0.581  0.0629  0.0994 -0.0817
15768W        W32029  15.628   4.030  15.040  0.0861  0.1084 -0.1315
15769W        W32030  10.450   2.589  12.025  0.0030 -0.2229 -0.1693
15770W        W32031   9.496   8.887   0.337 -0.0631  0.0056  0.0779
15771W        W32032  10.927   1.871   2.938  0.1891 -0.1055 -0.1474
15772W        W32033   8.094  17.848   3.455 -0.2250  0.1341 -0.0304
15773W        W32034   0.262  13.466   5.738  0.0552 -0.3268  0.0125
15774W        W32035   6.075   5.492  10.708 -0.3419 -0.1558  0.0304
15775W        W32036   4.073  11.136  13.867  0.2199  0.2151 -0.1312
15776W        W32037   0.857   2.356   0.166 -0.0504  0.1268 -0.1657
15777W        W32038   5.979   9.749  15.328 -0.1055  0.3214  0.0542
15778W        W32039  15.078  16.986  15.417 -0.1562 -0.0270  0.0151
15779W        W32040   6.597  13.236   5.323 -0.2436 -0.3883  0.2027
15780W        W32041  14.849  13.692  11.591 -0.1326 -0.0536  0.1879
15781W        W32042  16.012   8.618   2.453 -0.1576  0.0488 -0.0568
15782W        W32043  10.250   6.389   2.943 -0.0600  0.4507 -0.0719
15783W        W32044  11.721  14.454  13.433  0.1327 -0.1232 -0.1637
15784W        W32045  10.157  11.424  12.046 -0.2112  0.0907  0.0903
15785W        W32046  18.086  11.386   3.558  0.0663 -0.3732 -0.3239
15786W        W32047   3.583   4.050  15.378 -0.2344 -0.1490  0.0674
15787W        W32048   0.839   3.269   0.345  0.0657  0.0172  0.1216
15788W        W32049   9.551  14.030  12.431 -0.0251  0.2812 -0.0924
15789W        W32050   3.681   9.771   2.173  0.2407  0.0761  0.2747
15790W        W32051   3.773  13.550   5.216  0.1106  0.1831  0.0063
15791W        W32052  13.245   8.625   4.577 -0.1574  0.1650 -0.2291
15792W        W32053   2.437  17.830  15.591 -0.0283  0.2042  0.0951
15793W        W32054  13.165   2.526   2.736  0.3550  0.0570 -0.0348
15794W        W32055  17.593   7.502   4.325 -0.0552 -0.2547  0.0225
15795W        W32056  11.526  12.477   3.344  0.0587 -0.1134 -0.0847
15796W        W32057  11.658  11.274  12.668 -0.0189 -0.5085  0.2710
15797W        W32058   8.566  10.623  11.689 -0.0845  0.1425  0.0412
15798W        W32059   2.541   3.624  12.651  0.0593 -0.0167 -0.0261
15799W        W32060   6.641   4.093   3.937  0.1526 -0.0498 -0.1850
15800W        W32061  14.942   3.089   5.619 -0.1806  0.1035 -0.2362
15801W        W32062  17.525  11.739   2.179  0.2356 -0.4040  0.0454
15802W        W32063   5.465   1.711   2.464 -0.1239  0.1109 -0.1527
15803W        W32064   5.734  14.341  14.054  0.1503  0.0905  0.0341
15804W        W32065   6.913  14.523   0.807 -0.1246  0.1705  0.0352
15805W        W32066  16.047  12.852  11.934 -0.0696  0.2459  0.1990
15806W        W32067  17.360  12.321  12.228  0.0758  0.2276 -0.1930
15807W        W32068  15.252  13.234  12.467  0.1247 -0.0215 -0.0341
15808W        W32069  15.800   0.243   0.398  0.0759  0.1405  0.0812
15809W        W32070  17.787  15.162  14.538 -0.0582 -0.2307  0.0790
15810W        W32071  16.741   3.795   3.643  0.4180 -0.1876  0.1338
15811W        W32072  13.713  10.363   1.731  0.0090 -0.0055  0.0543
15812W        W32073  16.766   2.570   3.717 -0.2371  0.0988 -0.1184
15813W        W32074  16.352  13.727   2.826  0.1794 -0.0079 -0.0886
15814W        W32075  16.319   3.679  15.571 -0.3128 -0.2791 -0.0843
15815W        W32076   4.552   1.196   5.457 -0.0555 -0.3441 -0.0490
15816W        W32077  15.092   1.485   0.861 -0.0090  0.1704  0.0147
15817W        W32078  18.069   1.492   4.997 -0.1106  0.0319  0.1201
15818W        W32079   1.899  10.022  13.597  0.0241  0.1046  0.2314
15819W        W32080   8.566   0.914  13.699  0.0848 -0.2550  0.2763
15820W        W32081   6.974   2.192  15.024 -0.1298  0.3813  0.0797
15821W        W32082   2.645  11.313   3.714 -0.5443 -0.0561 -0.2544
15822W        W32083  10.372   1.176   3.289  0.0808 -0.0122  0.1998
15823W        W32084   5.725   3.622  14.838 -0.2072 -0.1370 -0.2263
15824W        W32085   0.379  15.380   1.117  0.0266 -0.2602  0.0601
15825W        W32086   2.245  15.024  13.934 -0.2654  0.0060 -0.0637
15826W        W32087  12.179  14.162   2.486 -0.1515 -0.1018 -0.2953
15827W        W32088  11.716   3.098   2.287 -0.1007 -0.0048  0.0129
15828W        W32089  17.009  16.740  12.517  0.1584  0.2448  0.0178
15829W        W32090   8.045   7.428   0.420  0.3132 -0.1070 -0.1468
15830W        W32091   7.301   2.092   0.663 -0.1277 -0.2273  0.1749
15831W        W32092  13.095   2.526   4.765  0.0003 -0.1369  0.1849
15832W        W32093  16.862   6.062   4.799 -0.0525 -0.1642 -0.0419
15833W        W32094  14.083   1.222  12.531  0.0328  0.2330  0.1472
15834W        W32095   1.573   3.121  12.701 -0.0478 -0.1235 -0.0612
15835W        W32096   2.863   1.081  15.723  0.0427 -0.1857 -0.4133
15836W        W32097  16.949   3.739   4.472  0.0361  0.1610 -0.0309
15837W        W32098  14.307  11.842   2.702  0.0018 -0.0741 -0.1475
15838W        W32099  11.347  17.191  12.579 -0.0431  0.0136 -0.1422
15839W        W32100  15.566  11.873   5.480 -0.1341  0.4633  0.0511
15840W        W32101   9.982  18.321  12.270  0.1521  0.1355  0.1148
15841W        W32102  10.451  14.422   4.137 -0.0841  0.1203  0.3776
15842W        W32103  12.656  12.433  12.772  0.0648  0.1521 -0.2155
15843W        W32104  14.687  11.906  16.190 -0.1738  0.2495  0.3173
15844W        W32105   0.122  17.114   5.083  0.2913 -0.0154 -0.1544
15845W        W32106  17.540  18.132   1.577 -0.1763 -0.0909  0.0969
15846W        W32107   2.357   1.729  14.292  0.0384  0.0688  0.2635
15847W        W32108   1.849  18.283   5.786  0.1837  0.0923  0.1678
15848W        W32109   0.871   2.557   5.449  0.3951 -0.1294 -0.1014
15849W        W32110   1.011   8.699   6.355 -0.2529  0.1446 -0.0779
15850W        W32111   2.536  11.974   2.962 -0.1987 -0.2603 -0.1713
15851W        W32112   4.746   7.842  11.695 -0.3398 -0.4578 -0.0169
15852W        W32113  16.614  12.461  13.204 -0.0159  0.1479  0.3296
15853W        W32114   7.357  12.724   2.830 -0.3748 -0.0368  0.0432
15854W        W32115  10.977   4.021  13.199 -0.1611  0.0326  0.1045
15855W        W32116   1.715   9.566   2.851 -0.1680  0.0313  0.1652
15856W        W32117   1.577  16.501   3.042 -0.2103 -0.0495 -0.0795
15857W        W32118   2.259   9.476  11.899 -0.0038  0.0537 -0.0136
15858W        W32119  15.806   0.133   4.111 -0.1093  0.1395  0.3981
15859W        W32120  14.359   7.040   1.593 -0.2881 -0.1509  0.0588
15860W        W32121   9.921   8.867   3.237  0.0171  0.2465 -0.0492
15861W        W32122   6.226  15.425  11.791  0.0303 -0.1779  0.3226
15862W        W32123  13.515   5.656   0.053 -0.1780  0.1222 -0.2563
15863W        W32124   5.201   3.779   5.229 -0.0797  0.0078  0.0497
15864W        W32125   8.319  12.829  15.874  0.0338  0.4123 -0.0584
15865W        W32126   3.923  17.826   3.998 -0.2722 -0.2609 -0.3614
15866W        W32127  13.074   9.284   3.388  0.3341 -0.0020  0.1077
15867W        W32128  10.092  17.803  15.685  0.0868 -0.0067  0.0276
15868W        W32129   9.220  15.300   1.256  0.2127 -0.0385 -0.1063
15869W        W32130  10.976   9.596  13.339 -0.0525 -0.2530 -0.0142
15870W        W32131  11.135   2.828   2.896 -0.1401  0.0815  0.0092
15871W        W32132   8.260   2.064   3.324 -0.1348  0.1154  0.2597
15872W        W32133   7.381   5.614  13.752  0.1471  0.1056 -0.3371
15873W        W32134  17.301   9.858  16.283  0.0833 -0.1714  0.2542
15874W        W32135   3.627   6.638  12.432  0.0721  0.0108 -0.1179
15875W        W32136   5.724   1.050  14.080 -0.3073  0.0444  0.0869
15876W        W32137  13.127  11.711  10.743  0.1659  0.0059 -0.1208
15877W        W32138   4.903   1.541  11.939  0.2223 -0.1130  0.1588
15878W        W32139  13.598   2.247   2.871  0.0008 -0.3188 -0.1181
15879W        W32140  11.754   5.401   3.304  0.0798  0.1705  0.3029
15880W        W32141  16.586   2.044  13.572  0.1288 -0.2166  0.0265
15881W        W32142   7.643   6.892  15.616  0.1207 -0.0964 -0.0680
15882W        W32143  11.980  15.878   3.780  0.0033  0.0116  0.1024
15883W        W32144   7.003  13.940   3.270  0.0455  0.2831 -0.4343
15884W        W32145  11.545   7.204  12.023  0.0143 -0.4747 -0.2041
15885W        W32146  16.911  15.269  11.900  0.1112  0.0009 -0.2129
15886W        W32147   9.243   0.986  10.904  0.1780  0.0243  0.2605
15887W        W32148   8.264  11.938   0.451  0.0010 -0.0686  0.4258
15888W        W32149  11.356  10.338  13.145  0.0527  0.0362  0.0187
15889W        W32150   6.656   1.876  15.144 -0.2976  0.0343 -0.2887
15890W        W32151   2.600  13.655   2.867  0.3546  0.1625 -0.2472
15891W        W32152   1.897  14.732   2.988 -0.1946  0.2172  0.0120
15892W        W32153   7.973  15.207  11.642  0.0477  0.0032 -0.3860
15893W        W32154   0.597   1.850   0.737  0.0595  0.1045  0.2152
15894W        W32155  13.234  12.457  14.135  0.1586 -0.1239 -0.1332
15895W        W32156   6.637  14.227   1.509  0.0229 -0.0083  0.1163
15896W        W32157   2.372   1.871  13.748  0.0830 -0.0989 -0.1392
15897W        W32158   9.353  12.701  13.077  0.4156 -0.0111 -0.1090
15898W        W32159  16.605   8.601  12.636 -0.0256  0.0758  0.2830
15899W        W32160  17.218   7.907  15.039  0.1473  0.0448  0.0189
15900W        W32161   7.896   6.235   2.297 -0.1209  0.2201 -0.0590
15901W        W32162   7.880   0.541   3.639 -0.0471  0.4615  0.2592
15902W        W32163  11.281  14.935  15.231 -0.0738  0.1417  0.4140
15903W        W32164   5.996  10.622   5.147 -0.3728  0.1549  0.4059
15904W        W32165  16.353  13.690  13.959  0.0863  0.0624 -0.0943
15905W        W32166   7.974  14.146  11.498 -0.0108  0.2079  0.0731
15906W        W32167  11.015  15.967   4.082 -0.0414  0.1377 -0.1144
15907W        W32168   0.015  17.594   3.934 -0.1416 -0.0704 -0.1310
15908W        W32169  15.748  17.779  15.395 -0.1842 -0.1262 -0.2870
15909W        W32170   7.073   6.458  16.096 -0.0907 -0.0644  0.1070
15910W        W32171   7.606   8.966   3.909  0.3564  0.1662 -0.0540
15911W        W32172  17.638  16.810   4.946 -0.1526 -0.1059  0.0577
15912W        W32173  16.900  16.469  15.284 -0.1730 -0.1041 -0.1797
15913W        W32174  12.354   1.657   1.910  0.0575 -0.0503  0.0360
15914W        W32175   1.542   4.650  12.787  0.1136 -0.3258 -0.0463
15915W        W32176  11.386   4.391  14.872  0.0236 -0.0211 -0.2589
15916W        W32177  11.501  12.819  11.856 -0.0782 -0.3175 -0.0681
15917W        W32178   7.731   4.633   4.751  0.2509 -0.0861  0.3751
15918W        W32179   9.307   4.792  12.217  0.0648 -0.0360  0.0593
15919W        W32180  16.528  12.287   1.271  0.2041 -0.0770 -0.1883
15920W        W32181   6.017  13.196   4.406  0.2415  0.1063  0.2209
15921W        W32182  14.732  13.637  15.305 -0.2158 -0.0074 -0.2460
15922W        W32183   8.679  18.362  16.069 -0.1599 -0.1241 -0.0188
15923W        W32184   3.662  10.182  12.711 -0.0264 -0.1883  0.1470
15924W        W32185  14.481  17.274   4.585  0.0639  0.2846  0.2857
15925W        W32186   4.685  10.453  12.674  0.0690 -0.0878  0.1799
15926W        W32187   5.982   5.942  14.364 -0.1071  0.2576  0.0749
15927W        W32188   4.768   9.259   3.921  0.2889 -0.1125  0.0951
15928W        W32189  10.345   0.609   3.290  0.0372 -0.2220 -0.0568
15929W        W32190  15.627  12.067   4.114  0.2231 -0.1871 -0.1365
15930W        W32191   3.176  17.879  13.178  0.0514  0.2915 -0.0802
15931W        W32192  17.742   2.937  12.465 -0.1624  0.2456 -0.0747
15932W        W32193   2.924  11.309   5.848  0.0820  0.0768  0.1526
15933W        W32194  15.703   8.280  13.894  0.1038  0.0240 -0.0512
15934W        W32195   9.465   8.740  12.770 -0.0513 -0.0058  0.2922
15935W        W32196   6.119  14.735  12.949  0.0689  0.1925  0.1718
15936W        W32197   2.509  15.370   5.725 -0.0721  0.1950  0.0429
15937W        W32198   3.216  13.852   0.885 -0.0105  0.4850 -0.0369
15938W        W32199   8.992   9.027   4.058  0.0007  0.1505 -0.0074
15939W        W32200  15.305   5.397   2.224 -0.4245  0.0312  0.2551
15940W        W32201   9.475   4.334   0.454  0.1356 -0.4417 -0.2856
15941W        W32202   8.999  15.604   2.792  0.0722  0.0865 -0.0039
15942W        W32203   0.138  16.513   1.362  0.1678  0.0279  0.2261
15943W        W32204   2.963   6.766   4.774 -0.0411  0.0467  0.0052
15944W        W32205  17.524  12.102   2.717  0.0500  0.1950  0.0174
15945W        W32206  11.139  13.730  14.703 -0.1606  0.2545  0.0499
15946W        W32207  16.554  14.349   2.629 -0.2692 -0.1131  0.2156
15947W        W32208   7.366   6.765   2.807 -0.0977 -0.1589  0.0048
15948W        W32209   5.894   1.493  16.257 -0.1975 -0.1568  0.0764
15949W        W32210   2.982  10.081  11.421  0.0320  0.0353  0.2591
15950W        W32211   4.757   9.341   1.246 -0.2487  0.3359 -0.2510
15951W        W32212  13.132   1.212   0.092  0.1453 -0.0288 -0.1414
15952W        W32213   0.552  17.419   6.330  0.0910 -0.1177  0.2912
15953W        W32214   1.650   0.681   5.262  0.1447  0.0390 -0.1997
15954W        W32215   0.931  11.148  14.576 -0.2936 -0.0659  0.1336
15955W        W32216   7.238  12.800  12.017  0.0923  0.2968 -0.1167
15956W        W32217   4.984  15.210  12.700 -0.0359 -0.1378 -0.2368
15957W        W32218   3.487   9.662  13.901  0.3755  0.1635  0.0054
15958W        W32219   4.743  16.392   2.070 -0.0963  0.3934  0.1880
15959W        W32220   7.288  18.050   1.934 -0.1600  0.0829  0.0833
15960W        W32221   3.312   7.032  14.266 -0.2042  0.1843 -0.0924
15961W        W32222   9.034   9.082   0.348  0.1497  0.4260  0.1193
15962W        W32223   6.753  18.148  12.154 -0.0108  0.1239  0.0038
15963W        W32224  15.086  14.717  12.543 -0.0576  0.2325  0.3937
15964W        W32225   6.709   4.458  10.695  0.0655 -0.3016 -0.1782
15965W        W32226   1.429   5.200   4.934 -0.2488  0.0637 -0.0463
15966W        W32227   0.008   3.026   6.455 -0.1279  0.1075 -0.0017
15967W        W32228  10.082   7.369   2.863  0.0855  0.0468  0.0821
15968W        W32229   7.469   1.050   0.877  0.0365  0.1518 -0.1503
15969W        W32230   9.212  10.028  12.643 -0.0645 -0.0835 -0.0003
15970W        W32231  13.570   4.972  12.866  0.1674  0.0731 -0.0842
15971W        W32232   8.065   9.849   0.804  0.2242  0.3526  0.1815
15972W        W32233   9.799  13.353   3.762  0.1677 -0.3844  0.2177
15973W        W32234   4.180  14.409  11.243 -0.2863  0.0533 -0.1179
15974W        W32235   0.383  18.120  14.149  0.0123  0.2234  0.0819
15975W        W32236  17.750   9.312  15.762  0.2707 -0.2651  0.0944
15976W        W32237   5.174  10.781  13.421  0.2074  0.0682  0.0597
15977W        W32238  12.583  10.076   0.044  0.0505 -0.0701  0.1537
15978W        W32239   4.370  17.502   1.619  0.1580  0.0153  0.3966
15979W        W32240  13.230   2.005   2.035 -0.0091  0.3686  0.1600
15980W        W32241  12.860  12.730  10.799  0.3477 -0.3897  0.0717
15981W        W32242   4.231  17.363   3.255 -0.0703 -0.1383 -0.1634
15982W        W32243  17.608   8.741  16.139  0.1362 -0.2177 -0.2090
15983W        W32244  17.266  17.475  14.333  0.0468  0.0332  0.0012
15984W        W32245   7.657   8.428  11.280  0.0168 -0.0111 -0.2848
15985W        W32246  17.070   8.910   5.231  0.3831  0.1969  0.0758
15986W        W32247  15.758   2.204  13.590 -0.1967 -0.1656 -0.2722
15987W        W32248  11.491  10.700   2.497 -0.0457 -0.1290 -0.2372
15988W        W32249  12.966  16.238  14.568 -0.0776  0.2699 -0.1697
15989W        W32250  12.265   0.140   5.643  0.0460 -0.1558  0.1704
15990W        W32251  13.073  14.401   4.532 -0.1791  0.0136 -0.3023
15991W        W32252   3.126  13.781   2.662 -0.0047 -0.1641 -0.1782
15992W        W32253   9.827   2.617   4.254 -0.0673  0.1013 -0.0495
15993W        W32254   9.939  12.887  13.093 -0.0678 -0.0429  0.1093
15994W        W32255   9.225  17.548  11.460 -0.2212  0.2133  0.2655
15995W        W32256   2.753  17.240  13.741 -0.0421  0.3748  0.3158
15996W        W32257   0.393  11.412   2.541 -0.4376  0.2392  0.0393
15997W        W32258   3.837  16.799  16.142 -0.1229 -0.2745  0.1119
15998W        W32259   9.083  15.910   3.230  0.1092  0.1954  0.1314
15999W        W32260   4.617  15.794  15.040 -0.0105  0.1146  0.0974
16000W        W32261   9.344   0.894  11.561  0.1599 -0.0260 -0.0953
16001W        W32262   6.346   6.538   2.832  0.2972 -0.0350 -0.1966
16002W        W32263  14.704  17.654   1.532  0.1610  0.1666 -0.0049
16003W        W32264   7.613  17.050  13.643  0.1787  0.1453 -0.0717
16004W        W32265  11.920  12.220  15.984  0.0554  0.0062 -0.2906
16005W        W32266  12.516   8.071   4.226  0.0650  0.0693 -0.1977
16006W        W32267  17.593  16.351   0.479 -0.3859 -0.1694  0.1362
16007W        W32268  10.733  15.960  15.173  0.1051  0.0404 -0.3059
16008W        W32269  17.588   6.932  13.321  0.0267  0.0457 -0.2913
16009W        W32270  17.296   8.997  15.730 -0.0734  0.1623 -0.1736
16010W        W32271   7.646  18.388  11.823 -0.0748 -0.0074  0.5484
16011W        W32272  10.883   2.777   3.357  0.1839 -0.3539 -0.3265
16012W        W32273  12.652  12.969   4.713  0.2099  0.0808  0.0088
16013W        W32274  15.844   0.394   2.241  0.3717  0.1986  0.2324
16014W        W32275  15.715   8.312   1.626 -0.0987  0.0118 -0.0426
16015W        W32276   3.836  14.985  14.318 -0.1707 -0.2938  0.0135
16016W        W32277  10.769   0.355  11.654  0.1205 -0.0345 -0.0928
16017W        W32278  16.021  11.026   1.029 -0.1823 -0.0724 -0.0905
16018W        W32279  12.588   2.463  13.396  0.2136  0.0879 -0.1997
16019W        W32280   8.110   1.030  11.189  0.0171  0.0863  0.0425
16020W        W32281   7.497   0.776   2.352  0.6341 -0.0573  0.0283
16021W        W32282  11.674  15.654   5.661  0.0250  0.0994  0.1963
16022W        W32283   7.008  14.395   3.155  0.1526  0.0161 -0.1353
16023W        W32284   1.104  11.059   2.011  0.3391  0.0487  0.0061
16024W        W32285   1.534   4.809   0.849  0.1316 -0.0435  0.1324
16025W        W32286  16.254   6.689  12.848 -0.0776 -0.1884  0.2293
16026W        W32287   1.320  18.302   0.325 -0.0988  0.0787 -0.2469
16027W        W32288   7.400  14.855   2.732 -0.0978  0.1372 -0.3771
16028W        W32289  10.304   6.882   2.836 -0.2006 -0.0980 -0.0236
16029W        W32290   1.719  13.132   2.349  0.3160  0.0855 -0.0124
16030W        W32291  15.424  15.115  11.537  0.0563  0.0799  0.1847
16031W        W32292   5.014   1.025  13.450  0.2138 -0.0774  0.1370
16032W        W32293  10.030  11.018  13.328 -0.0707 -0.0402  0.2640
16033W        W32294  12.480   7.687  14.282 -0.1319  0.0567 -0.0083
16034W        W32295   8.074  14.463  12.599  0.1498  0.2435 -0.0230
16035W        W32296   8.100   2.822   0.561  0.0727 -0.0747  0.1072
16036W        W32297  10.635   8.419   0.645  0.2326 -0.1005  0.1437
16037W        W32298   5.467   6.220   0.330 -0.0140  0.0180 -0.0097
16038W        W32299  12.796   1.291  12.133 -0.0884 -0.0445  0.5653
16039W        W32300   7.706  17.492  11.289 -0.2205 -0.2750  0.0549
16040W        W32301  11.576   0.353   5.963  0.0791 -0.1576 -0.0641
16041W        W32302   2.594  15.648   4.972 -0.0144  0.0313  0.1020
16042W        W32303  13.951   0.032  14.826 -0.3158 -0.0799 -0.1704
16043W        W32304  13.585   4.964  13.709 -0.1111 -0.1154 -0.2371
16044W        W32305   9.637  17.026  12.706  0.1363  0.1887 -0.2837
16045W        W32306   2.645  14.459   1.471  0.1158  0.1236 -0.1141
16046W        W32307   0.205   3.861  13.642  0.1940 -0.1061  0.0492
16047W        W32308  14.261   3.400   1.418 -0.1390 -0.2462 -0.1292
16048W        W32309  15.207   8.733   0.296  0.2395 -0.3386 -0.2276
16049W        W32310  14.480   1.203  14.256  0.2590  0.2024 -0.0820
16050W        W32311  15.355   3.107   4.831  0.1359 -0.0733  0.1857
16051W        W32312  15.274  10.209   0.189 -0.2010  0.1702 -0.0873
16052W        W32313   2.690   0.246  13.075  0.2661 -0.1630 -0.0188
16053W        W32314  10.284  15.983  16.215 -0.2855 -0.1512 -0.0525
16054W        W32315   2.622  17.887  16.132  0.1109 -0.0336 -0.1529
16055W        W32316  10.894   4.923   5.075  0.2486 -0.1810  0.0852
16056W        W32317  17.289   3.636   1.124  0.1020 -0.0208  0.1961
16057W        W32318   9.380   1.154  14.478  0.1300  0.1374 -0.0382
16058W        W32319   5.994   8.594  13.096  0.1852  0.0683 -0.1552
16059W        W32320  12.030   7.193   0.253  0.1005 -0.0601  0.3453
16060W        W32321  14.959  12.923  12.927 -0.2003 -0.2227  0.0336
16061W        W32322  15.133  14.328   3.536 -0.4204  0.2299  0.3087
16062W        W32323  11.704  10.712  12.390  0.1496  0.0975 -0.2869
16063W        W32324  14.029  13.369   1.352  0.0515 -0.0189 -0.1880
16064W        W32325  11.690   8.207  14.541 -0.0536 -0.1568 -0.2858
16065W        W32326   1.452  12.909   4.060  0.0309  0.2194  0.2952
16066W        W32327   8.229  11.623   4.444  0.2156 -0.1831  0.0080
16067W        W32328   5.510  13.258   2.669  0.3752  0.0214  0.2062
16068W        W32329  14.322   3.248  13.568 -0.2568  0.0463 -0.3195
16069W        W32330   6.452   9.745  14.661 -0.4547  0.1367 -0.0151
16070W        W32331  13.964  12.942  12.965  0.0444 -0.0900  0.1361
16071W        W32332  14.708  11.906   2.368 -0.2422 -0.2480 -0.1439
16072W        W32333   4.091  15.811  11.901 -0.2207 -0.1846  0.2457
16073W        W32334  12.730   4.515  15.596  0.3794 -0.0901  0.0459
16074W        W32335  10.129  12.518  11.707 -0.2012 -0.1034 -0.1596
16075W        W32336  10.282   8.224   0.336  0.3392  0.1326  0.0787
16076W        W32337  14.956   4.381  15.700  0.1819  0.2413  0.0386
16077W        W32338   4.946   8.856   1.104 -0.3504  0.0819  0.0301
16078W        W32339   6.239  13.199  13.103  0.3016 -0.0198 -0.0970
16079W        W32340   3.769   1.813   3.543 -0.0201 -0.1853 -0.1432
16080W        W32341  11.895   6.875  11.876  0.3469 -0.0291 -0.1973
16081W        W32342   9.440  12.644  10.912 -0.0082  0.1433 -0.1547
16082W        W32343  10.095   3.540   4.911  0.1302  0.1439 -0.0792
16083W        W32344   9.668   2.809   1.518 -0.0576 -0.0244 -0.1274
16084W        W32345  17.813   7.364   0.895  0.1390 -0.1387 -0.2846
16085W        W32346  17.746  11.125   0.842 -0.4885 -0.2719 -0.0933
16086W        W32347   2.099   2.312   2.382 -0.0548 -0.2495 -0.1611
16087W        W32348  17.461   0.298  12.200  0.0666  0.1040 -0.0971
16088W        W32349  15.721  15.535   0.258 -0.3524  0.3106 -0.2887
16089W        W32350   8.521   0.535   4.708 -0.0239  0.0559 -0.1567
16090W        W32351   2.990  13.641   3.373  0.0949  0.3436 -0.0275
16091W        W32352   2.611   4.863   6.146  0.0908 -0.0606  0.2024
16092W        W32353  18.175   0.548   5.231  0.0672 -0.3859  0.2294
16093W        W32354  13.630  10.047   2.158 -0.0086  0.4421 -0.0959
16094W        W32355  11.605  13.490   5.221 -0.0141 -0.3145 -0.1696
16095W        W32356  14.313  15.953   4.675 -0.2561 -0.1303 -0.1795
16096W        W32357   9.731   0.982   0.584  0.0611  0.2473 -0.0058
16097W        W32358   1.745  14.640   3.463 -0.0195  0.0459 -0.0526
16098W        W32359   9.420   0.277  14.705  0.0271  0.1665 -0.2584
16099W        W32360  12.390  14.214  13.410  0.1573  0.0975  0.3958
16100W        W32361  17.705  13.460   2.025  0.1167 -0.4742  0.2821
16101W        W32362   6.266   5.791  16.208  0.1330 -0.0028 -0.0306
16102W        W32363   6.342  16.077  13.132 -0.0627  0.1648 -0.1255
16103W        W32364  10.227  11.162   4.555 -0.1969 -0.4016 -0.1395
16104W        W32365  16.289  16.986   2.550 -0.2116 -0.2333  0.0859
16105W        W32366   7.175  12.192  10.769  0.3269  0.1140 -0.3530
16106W        W32367  17.733   0.612   2.477 -0.0845  0.1723  0.0908
16107W        W32368  10.017  15.265  10.704 -0.0197 -0.0377  0.1807
16108W        W32369   3.440   5.668  14.827 -0.1082 -0.0603 -0.2175
16109W        W32370  12.261   8.482   0.796  0.0904  0.1401 -0.2962
16110W        W32371   7.699   2.626  12.297 -0.1174  0.1623  0.1166
16111W        W32372  15.218   3.851   0.828  0.2167  0.0034 -0.1616
16112W        W32373  14.974  10.187  16.099  0.1648 -0.1205 -0.2518
16113W        W32374   4.436   0.293  15.661 -0.3212 -0.0731  0.1834
16114W        W32375   6.472  10.291  11.289 -0.2794 -0.0190  0.0239
16115W        W32376  17.172  12.133   5.303 -0.0018  0.0866 -0.1656
16116W        W32377  12.032   4.651   3.603  0.1482 -0.0688  0.1065
16117W        W32378   5.701  14.070   3.895  0.0011  0.0597  0.1607
16118W        W32379  16.694   7.313   3.686  0.1944 -0.0677 -0.0009
16119W        W32380   2.854  11.758   6.149  0.1339  0.2536 -0.0348
16120W        W32381   0.409  14.690  14.250 -0.0263  0.1635  0.3146
16121W        W32382   4.115   3.326   4.150 -0.2879 -0.0757 -0.1002
16122W        W32383   9.322   1.279   0.346  0.0244 -0.1598 -0.1989
16123W        W32384   7.544  14.139   1.097 -0.1170  0.1093 -0.2679
16124W        W32385   7.533  14.665  15.567  0.0335  0.0092  0.0345
16125W        W32386  16.185  11.230  13.294 -0.0435  0.0944  0.1729
16126W        W32387  10.023   1.789   1.621  0.2785 -0.3020  0.0444
16127W        W32388   0.427  16.426   4.374 -0.1230 -0.0724 -0.0075
16128W        W32389   4.208   6.035  14.517  0.0976  0.1023  0.0043
16129W        W32390  14.618  12.473   3.566  0.1623  0.1247  0.2378
16130W        W32391   2.976  12.692   0.848 -0.3814  0.4131  0.1055
16131W        W32392   6.047  14.400   4.775  0.2579  0.3499  0.0752
16132W        W32393   8.785   3.871  11.612 -0.1158 -0.1918 -0.0564
16133W        W32394   0.378  12.208  15.842  0.2665 -0.0197  0.0821
16134W        W32395  17.856   9.560   1.596  0.1032 -0.1902 -0.2998
16135W        W32396  12.387   4.346  12.390 -0.1562 -0.1327  0.1372
16136W        W32397  13.652  11.786  15.244  0.2312  0.2450 -0.0930
16137W        W32398  12.575  16.778   0.264  0.4641  0.1299 -0.2489
16138W        W32399  11.683   8.666  12.050  0.0552  0.2929 -0.1479
16139W        W32400   1.799  12.514   4.171 -0.1788  0.2181  0.1099
16140W        W32401  16.054   7.850   2.022 -0.0680 -0.0840  0.1678
16141W        W32402   5.238   8.476  12.245 -0.0404  0.0611  0.0150
16142W        W32403   0.130  12.828  14.506 -0.1345 -0.0548 -0.2821
16143W        W32404   4.998   2.698  12.711  0.0893 -0.0173  0.0055
16144W        W32405  17.714   9.839   5.051  0.1497 -0.2987 -0.1290
16145W        W32406  14.033  14.241   1.836 -0.1129  0.1632  0.0366
16146W        W32407  13.521   7.758  14.431 -0.3392 -0.3034 -0.2983
16147W        W32408   1.586  10.882   0.999 -0.0257  0.2828  0.1983
16148W        W32409  12.419  12.534  10.806 -0.0444 -0.0652 -0.1848
16149W        W32410   1.922   6.144   4.015 -0.0716 -0.0465  0.1129
16150W        W32411  13.722  16.145   4.955 -0.0949  0.0666  0.3772
16151W        W32412  11.884   0.993   5.287 -0.3053  0.2724  0.0713
16152W        W32413   0.746  17.532   1.127  0.1116  0.3021 -0.0153
16153W        W32414  16.027   3.507   3.862  0.5788 -0.1249  0.0132
16154W        W32415   2.542  17.545   2.230 -0.2233 -0.1238  0.0895
16155W        W32416   9.204   3.934   1.673  0.0156  0.3636  0.0414
16156W        W32417   5.922  15.081  13.866 -0.1914  0.2903  0.0807
16157W        W32418  12.025   4.764  10.331  0.0345 -0.3095 -0.0220
16158W        W32419  17.637  18.260   2.035 -0.0962  0.2599 -0.0565
16159W        W32420   7.602  14.185  15.603  0.0641 -0.1567  0.0951
16160W        W32421   7.957  13.905   1.577 -0.0380 -0.1846 -0.0228
16161W        W32422  15.125   4.356   2.066  0.1504 -0.2906 -0.1943
16162W        W32423   6.336   6.816   1.143  0.0053 -0.0038  0.4275
16163W        W32424  14.947  11.031  15.693  0.1574 -0.1736  0.0221
16164W        W32425   2.955   5.768  13.218 -0.3218  0.0509  0.2627
16165W        W32426   0.395   6.040  15.984  0.0441  0.0833  0.0271
16166W        W32427  12.468   3.496  10.651 -0.1427 -0.0106  0.2572
16167W        W32428   1.526   9.886   1.877  0.2595 -0.2226 -0.2192
16168W        W32429   4.285   7.198   1.584 -0.4515  0.1192 -0.1201
16169W        W32430  15.938  13.265  15.945  0.0136  0.1507 -0.0159
16170W        W32431  16.098   0.102  15.779 -0.4287 -0.2078  0.3306
16171W        W32432   4.302  11.335   3.544  0.3495 -0.1474  0.0371
16172W        W32433   6.989   6.717   2.409  0.0825 -0.0039 -0.0224
16173W        W32434   0.376  15.111  16.064  0.1772  0.2718  0.0253
16174W        W32435  10.007  11.007  16.050 -0.0386  0.1836 -0.1193
16175W        W32436   4.634  11.094  12.197  0.2188 -0.0733  0.5049
16176W        W32437   7.225   0.936  10.980  0.0735 -0.2020 -0.1746
16177W        W32438   4.416   6.717   2.576 -0.0257  0.0879  0.1012
16178W        W32439   9.289   5.100  12.689  0.1072  0.1011 -0.2980
16179W        W32440  10.505  16.105  10.933  0.0116  0.3594  0.3214
16180W        W32441   6.324   6.030   1.786  0.0453 -0.0864  0.0479
16181W        W32442  12.618  13.162   1.194 -0.1057  0.3901 -0.1555
16182W        W32443   9.733   1.473   0.648  0.0373 -0.1599 -0.4248
16183W        W32444   5.158   8.710   2.327  0.1976 -0.1518  0.0838
16184W        W32445  18.148   7.625  13.286  0.3150 -0.2192  0.2711
16185W        W32446  14.910  16.347  13.555 -0.2433 -0.3971 -0.0673
16186W        W32447  15.610  13.695  15.259  0.1488  0.7036 -0.0886
16187W        W32448  14.964   9.175  15.516 -0.1226  0.2364 -0.2837
16188W        W32449   8.537  13.102   0.683  0.0637  0.0311 -0.2101
16189W        W32450   0.552  12.973   4.247  0.1405  0.1231 -0.2502
16190W        W32451  10.495   2.351  10.931  0.0589  0.0456 -0.2801
16191W        W32452   0.035  14.686  12.439  0.0047 -0.0787 -0.0823
16192W        W32453  14.687   4.006  12.146  0.4495  0.1752 -0.1315
16193W        W32454  12.862  11.472   1.625  0.0126 -0.0147  0.4239
16194W        W32455   6.488   5.488   0.947 -0.0189 -0.0247 -0.2965
16195W        W32456   8.581   0.520   0.739 -0.1532  0.2010  0.0403
16196W        W32457  10.087   9.075   4.894 -0.0838  0.2459 -0.2238
16197W        W32458  18.187   3.622  14.940  0.2596  0.0124 -0.1301
16198W        W32459   5.590   5.067   0.809  0.4099  0.2027  0.0848
16199W        W32460  16.723  12.593  11.395  0.1781  0.1316  0.2100
16200W        W32461  10.722  17.671  12.164 -0.0684 -0.4001 -0.0457
16201W        W32462  11.627   3.090  12.083 -0.1670  0.1807  0.0335
16202W        W32463  12.729  17.554  16.022 -0.2456 -0.1308  0.0171
16203W        W32464  10.307   2.263  13.276  0.1408  0.0560  0.0585
16204W        W32465   1.569  15.340  16.166 -0.1471  0.1519 -0.1296
16205W        W32466  17.847   2.681  16.123 -0.2454  0.1711 -0.0703
16206W        W32467   2.527  13.879  14.941 -0.0864 -0.0803  0.1289
16207W        W32468  17.297  16.743   6.125  0.0783 -0.0413  0.0370
16208W        W32469   6.809   5.148   0.716 -0.0490 -0.4747  0.2152
16209W        W32470  13.703   4.529  15.556  0.1581  0.2788 -0.0750
16210W        W32471   0.539  16.992   5.319  0.0925 -0.2007 -0.0028
16211W        W32472   2.577  16.875  13.376 -0.2255  0.1032 -0.1122
16212W        W32473   3.466   7.415   3.562  0.0209  0.1875  0.1076
16213W        W32474   7.433  13.455  15.505 -0.1538  0.0618 -0.0223
16214W        W32475  13.726   3.983  13.888  0.1332 -0.2220  0.1186
16215W        W32476  11.537  14.246  15.692 -0.0292 -0.2384  0.1583
16216W        W32477   3.490   9.851   1.690 -0.1138 -0.0905 -0.1925
16217W        W32478  10.949  10.285   2.891 -0.2364 -0.3012  0.0612
16218W        W32479  11.168  14.348  13.357 -0.5038 -0.2449  0.0021
16219W        W32480  16.760  10.277  12.423 -0.3317  0.2892 -0.0916
16220W        W32481  12.064  10.454  11.036  0.0886  0.1124 -0.0612
16221W        W32482  15.842  17.011   2.275  0.0646 -0.0422 -0.1773
16222W        W32483  14.102   4.030   1.628  0.2343  0.4105  0.1849
16223W        W32484  17.027  14.151  15.958  0.2721  0.0151 -0.1693
16224W        W32485   2.437   1.321   4.252 -0.1190  0.2311  0.1878
16225W        W32486  14.669  17.426   0.215  0.1663  0.1596  0.2841
16226W        W32487  18.140  10.049  14.587  0.0448  0.0889  0.2764
16227W        W32488  15.658   5.930   0.759  0.1453 -0.0314 -0.1269
16228W        W32489  11.272  11.669  11.024  0.1451 -0.2939  0.1649
16229W        W32490  12.360  10.891   3.633  0.1347  0.2939  0.2455
16230W        W32491   3.498   7.274  14.662 -0.2248 -0.1245 -0.0736
16231W        W32492   3.191   0.151  13.145 -0.0488 -0.3184 -0.4009
16232W        W32493   4.314  12.823  14.230  0.2451  0.0975  0.2912
16233W        W32494  18.179   1.632  11.936 -0.1503 -0.0602 -0.1059
16234W        W32495   5.671  17.682  11.438 -0.0898  0.1407 -0.1663
16235W        W32496   6.624  17.512  14.533 -0.1279  0.2226 -0.0112
16236W        W32497   8.400   4.987   1.776 -0.1655 -0.1887  0.0734
16237W        W32498   0.399   3.861   4.463  0.1929  0.4157  0.1876
16238W        W32499   8.809   2.062  11.341 -0.1060 -0.1283  0.0914
16239W        W32500   0.549  10.092   5.156 -0.1408  0.1567  0.1424
16240W        W32501   4.983  10.862  14.387 -0.1026  0.2086 -0.0770
16241W        W32502  13.416  14.766  11.581  0.0039 -0.2319 -0.1606
16242W        W32503  12.127  10.673   3.261 -0.0558  0.0643  0.4005
16243W        W32504  10.187   9.630  11.751  0.0417 -0.0882 -0.1873
16244W        W32505   4.790  16.947  12.221 -0.2267  0.2114 -0.1753
16245W        W32506  10.047   9.978  16.177 -0.3471  0.0594 -0.0983
16246W        W32507  15.026   7.551   0.075  0.2853 -0.0384 -0.2256
16247W        W32508   1.495  10.227  12.286 -0.0230 -0.0532  0.0808
16248W        W32509  12.700   5.673   4.419 -0.0742  0.2170  0.3077
16249W        W32510  13.500   5.115   3.652 -0.4316  0.2196  0.2912
16250W        W32511   4.070   2.712   1.931  0.0759 -0.1599  0.2066
16251W        W32512  15.888   7.111   1.398 -0.0809 -0.0461 -0.1309
16252W        W32513   9.189   2.187  13.630  0.3916 -0.0276 -0.0653
16253W        W32514  13.000  13.695  10.437 -0.2682 -0.0069 -0.2249
16254W        W32515   4.685   3.989   1.956  0.2121  0.1749  0.4997
16255W        W32516  14.466   5.214  15.411 -0.0582  0.1726  0.2253
16256W        W32517  11.183  17.041  16.062 -0.2033  0.0213  0.1645
16257W        W32518   9.556   0.356   3.694 -0.1217 -0.1251  0.0742
16258W        W32519   4.481  10.732   4.081 -0.1159  0.1570 -0.0711
16259W        W32520  16.174   1.868   4.637  0.0853 -0.0047  0.3945
16260W        W32521  17.250  16.814   3.336  0.1041 -0.0943 -0.0316
16261W        W32522   3.553  11.101   4.762 -0.1524 -0.2305 -0.0244
16262W        W32523  10.786   0.440   2.287  0.3573  0.0015  0.1003
16263W        W32524   3.768   2.454  16.026 -0.2920  0.4511  0.1190
16264W        W32525  11.434   5.400  15.903  0.0318 -0.1569 -0.0828
16265W        W32526   7.120   1.664  15.325 -0.3182  0.3142 -0.1442
16266W        W32527   9.557   3.192  11.045  0.1472 -0.1572 -0.1078
16267W        W32528   7.255  12.027  12.372 -0.1442  0.0501  0.4487
16268W        W32529   4.781   8.019   3.725 -0.2488  0.3323  0.0096
16269W        W32530   7.370  13.371  13.828  0.0359 -0.1313 -0.0775
16270W        W32531  11.597  18.380   2.925 -0.4077  0.3244  0.2295
16271W        W32532  12.095  16.498   0.800 -0.1071  0.0490 -0.0960
16272W        W32533  16.891   5.311  16.279 -0.1415  0.1240 -0.0185
16273W        W32534   6.488  11.908   1.305 -0.1302  0.1522  0.3549
16274W        W32535  13.638   3.808   1.494 -0.3579  0.1745  0.4121
16275W        W32536   2.232   9.244  13.835 -0.1019  0.1639 -0.4481
16276W        W32537  10.051   7.764  13.100  0.1820  0.2771 -0.1705
16277W        W32538  11.638   0.493   5.036 -0.1409  0.0203  0.2304
16278W        W32539   8.858   2.378   3.074  0.0306 -0.1117 -0.1005
16279W        W32540  15.767   2.603   2.008  0.2066  0.0785  0.0640
16280W        W32541   3.120  16.521  11.559  0.3418 -0.0499  0.1308
16281W        W32542   9.130   4.729  14.986 -0.0736  0.0644 -0.2290
16282W        W32543   4.928  10.444   0.130  0.4407  0.2042  0.0477
16283W        W32544   6.545  15.838  11.566  0.1223  0.0135 -0.0302
16284W        W32545  11.669   0.703  13.575 -0.1296 -0.0211 -0.3496
16285W        W32546  17.548   0.163   0.111 -0.1218  0.0246 -0.0440
16286W        W32547   5.920   3.129   3.633 -0.1671  0.1390  0.4139
16287W        W32548   6.047   4.248   2.550 -0.0351 -0.0831 -0.0358
16288W        W32549  15.260   4.366  13.997  0.0172  0.2833 -0.0279
16289W        W32550   4.004  13.818   2.857 -0.0796 -0.0419  0.0181
16290W        W32551  17.365   7.864   0.274  0.0871  0.1249 -0.0148
16291W        W32552   9.811   7.556  15.456 -0.0543 -0.0756  0.2067
16292W        W32553   0.090  17.602   2.318 -0.0807 -0.0623 -0.1254
16293W        W32554   4.479  11.688  13.301 -0.5372  0.0737 -0.3968
16294W        W32555   0.862   4.000   1.629  0.2446  0.1281  0.3385
16295W        W32556  13.904  12.053   2.424 -0.0246 -0.0281  0.0630
16296W        W32557  13.456   4.349   5.311 -0.2085 -0.0641 -0.0913
16297W        W32558   5.600   2.833   2.308 -0.1766 -0.0520  0.5376
16298W        W32559  17.174  13.662  13.552  0.2636  0.2179 -0.1799
16299W        W32560  11.069   7.130   0.297 -0.0156  0.0439 -0.1070
16300W        W32561  13.533   2.271  14.468 -0.1099 -0.2014  0.0186
16301W        W32562  12.982  10.315  13.060  0.1176  0.1659  0.2378
16302W        W32563  15.817   6.185   0.288  0.0500  0.0493 -0.2227
16303W        W32564   9.048  12.490   1.272  0.0246 -0.0051 -0.0048
16304W        W32565   6.555  17.982  11.315 -0.0601  0.1843  0.0709
16305W        W32566   8.260  13.249  13.570  0.2296 -0.0365  0.2240
16306W        W32567  15.759  15.450   1.598  0.3425  0.1463 -0.0817
16307W        W32568  15.269   3.357  13.122  0.2070  0.0782  0.0590
16308W        W32569   4.254   5.250  12.637  0.0556 -0.1005 -0.3414
16309W        W32570   9.922  16.060  14.855  0.0639  0.5489 -0.0794
16310W        W32571  14.922   8.564   3.789  0.2286 -0.2137  0.0642
16311W        W32572   1.695   3.906   0.217  0.0061 -0.1418  0.0467
16312W        W32573   9.178  16.752   3.446 -0.0719  0.0568  0.2628
16313W        W32574  18.363  10.903   3.353 -0.0212  0.3934 -0.3804
16314W        W32575  14.393   2.150   2.796  0.1152 -0.0755 -0.3173
16315W        W32576  12.034   0.928  11.986  0.3684 -0.1640 -0.3236
16316W        W32577   2.071  14.643  10.096 -0.1686  0.0675  0.0924
16317W        W32578  17.158  17.134   2.393  0.0392 -0.0284  0.1140
16318W        W32579  14.416   0.422  12.512  0.2569  0.1770 -0.1505
16319W        W32580   1.875   9.478   1.915  0.2695  0.0185  0.0168
16320W        W32581   1.976   0.347   4.959 -0.0355  0.2650  0.1594
16321W        W32582  18.192  16.645  13.936 -0.1653  0.1605  0.0432
16322W        W32583   5.395   7.857  13.950 -0.2310 -0.1448  0.1837
16323W        W32584   9.444   4.348   1.847 -0.1322  0.1732  0.2187
16324W        W32585  14.827   7.555   4.612  0.1338 -0.0104  0.2089
16325W        W32586   5.064  11.509   5.511  0.1348  0.2193 -0.0025
16326W        W32587   1.581  17.276  12.855 -0.0159 -0.1131  0.3480
16327W        W32588   5.411   3.151  15.596  0.1303 -0.0373  0.0877
16328W        W32589   5.416   1.751  13.895  0.0864  0.1170  0.3206
16329W        W32590  11.790  18.334   5.649  0.0173  0.0924  0.5046
16330W        W32591   0.268   9.297   0.417  0.0821 -0.1714 -0.0733
16331W        W32592   5.909  13.229   3.366  0.0857  0.0902 -0.1024
16332W        W32593  18.039   3.774   3.715  0.0863 -0.1134  0.2709
16333W        W32594   4.143  11.014   1.804  0.3160  0.1639  0.2000
16334W        W32595  14.078   1.657   0.937 -0.0854 -0.5629  0.2047
16335W        W32596  11.672  18.064  12.493  0.0735  0.0333 -0.1465
16336W        W32597  14.354  12.563   4.043 -0.1962 -0.0504 -0.1545
16337W        W32598   6.909   3.194   3.868 -0.0913  0.1517  0.0441
16338W        W32599  18.254   5.641   0.880  0.0306 -0.1614 -0.1893
16339W        W32600   4.877   8.103   4.224  0.0373  0.2757 -0.0428
16340W        W32601  14.464   5.424   3.689 -0.0033 -0.1017 -0.0816
16341W        W32602  14.305   3.391  16.266 -0.0165  0.0724  0.0614
16342W        W32603   2.740   8.485   3.443  0.3825 -0.1691  0.0879
16343W        W32604   7.097  12.534   1.791  0.1682  0.0267  0.1258
16344W        W32605  17.954  12.648  11.482  0.1319  0.3133 -0.4275
16345W        W32606  15.430   7.762   0.728 -0.0840 -0.1199 -0.1566
16346W        W32607  17.609  15.859  12.381  0.1603  0.1586  0.1510
16347W        W32608  13.880   9.449  15.762  0.0234 -0.0370  0.2186
16348W        W32609  17.263   8.103  13.280 -0.1074  0.0304 -0.0707
16349W        W32610   4.393  16.319  12.477 -0.0278  0.3544  0.0821
16350W        W32611   0.051   2.233   5.806  0.0536 -0.2411  0.1472
16351W        W32612   1.164   0.197  12.269 -0.1099 -0.1376 -0.0967
16352W        W32613   0.666   3.419   1.679  0.1211  0.2116 -0.1414
16353W        W32614   6.662   3.435  15.077  0.0777  0.0799 -0.5081
16354W        W32615   3.909   0.184   6.280 -0.2790  0.0271  0.0565
16355W        W32616  12.754  13.757   0.090 -0.0504 -0.1173 -0.2151
16356W        W32617  10.658   2.373   0.073 -0.0549 -0.1525  0.2033
16357W        W32618   0.228  10.908   2.579 -0.1189 -0.1841  0.1804
16358W        W32619   8.483   6.527  12.278 -0.0741 -0.1339  0.0479
16359W        W32620   5.903   5.489   5.031 -0.0644 -0.0948  0.1243
16360W        W32621  16.022   9.478   2.016  0.1018  0.0895  0.0731
16361W        W32622   8.761  17.230   4.253  0.1745  0.0999  0.0028
16362W        W32623   3.389  12.102  13.645  0.3483 -0.4192 -0.3965
16363W        W32624  14.535  11.507   3.204 -0.2182  0.3454 -0.1847
16364W        W32625   1.665  10.088   2.901 -0.0461 -0.2901  0.0993
16365W        W32626   3.248   3.679  14.154 -0.1918 -0.2486 -0.1667
16366W        W32627   6.971   7.909   4.706  0.2441 -0.3583 -0.1576
16367W        W32628   2.392   2.749   3.650  0.1852  0.1212 -0.1119
16368W        W32629  11.201   9.239   2.261 -0.1350  0.1527  0.3280
16369W        W32630   8.197   8.504   1.874 -0.3712  0.2365 -0.1926
16370W        W32631   1.727   3.613  14.635 -0.0663 -0.0600 -0.0100
16371W        W32632   0.654   0.279  12.298 -0.1064  0.0509 -0.1139
16372W        W32633  15.071  15.138  15.251  0.1349  0.0325 -0.0043
16373W        W32634   4.362   4.967   5.364 -0.0717 -0.1171 -0.1858
16374W        W32635  18.260  15.256  14.635  0.1683 -0.2079 -0.2178
16375W        W32636  13.581   7.282  12.096 -0.0065  0.0767 -0.2045
16376W        W32637  10.611   1.084  16.004 -0.0594  0.1883  0.0252
16377W        W32638   3.852   2.154  12.692  0.3578 -0.0776 -0.0380
16378W        W32639   8.927   0.017  13.593 -0.5355 -0.0489  0.1361
16379W        W32640  13.346   4.881   0.753 -0.4138  0.2045  0.1334
16380W        W32641  10.927   5.460   5.143  0.0270 -0.2646  0.2904
16381W        W32642   9.881   9.545   0.967 -0.1844  0.0466  0.0722
16382W        W32643  13.738   1.302  14.756 -0.2513  0.0005  0.0282
16383W        W32644  17.010  16.881   5.552 -0.1774 -0.2798  0.1373
16384W        W32645   1.582   1.526   2.423 -0.1445 -0.0686  0.2331
16385W        W32646  13.862   4.126   0.738  0.0538  0.1086 -0.1473
16386W        W32647   3.467   4.573   0.143  0.0196  0.0244  0.0855
16387W        W32648   8.060   9.539   3.318 -0.0404 -0.2326 -0.2436
16388W        W32649  12.024  17.178  14.770  0.0881  0.3135  0.0531
16389W        W32650   0.156  14.041   1.821  0.2103  0.4245 -0.3960
16390W        W32651   4.016   2.430  13.642 -0.0995 -0.1383  0.0148
16391W        W32652   0.959  16.198  13.371 -0.0547 -0.2581  0.1918
16392W        W32653  10.823  11.699  14.536  0.2203 -0.4490 -0.1590
16393W        W32654   6.258   2.326  12.584 -0.3828  0.2498 -0.1853
16394W        W32655   2.447   3.588   3.675  0.3433 -0.0262  0.3814
16395W        W32656   5.172   6.571   0.151 -0.0219 -0.0386 -0.1175
16396W        W32657  14.720   3.422   5.154 -0.0638  0.0510 -0.2218
16397W        W32658   5.714   3.339  12.685 -0.2233  0.2337  0.1563
16398W        W32659   1.812   3.136  11.960 -0.0143 -0.1456 -0.0708
16399W        W32660  16.730  14.039   3.043  0.3363 -0.1628 -0.0550
16400W        W32661  11.134   7.981   2.924  0.2173 -0.1076 -0.0060
16401W        W32662  13.092  14.655   0.067  0.1775  0.0886  0.3236
16402W        W32663   4.254  14.130  11.667  0.0877  0.3009  0.2529
16403W        W32664   7.066   4.891   2.377 -0.2681  0.2134 -0.1969
16404W        W32665   8.503   4.110  14.451  0.2688  0.1811  0.0741
16405W        W32666   5.689  13.970   6.025  0.0593 -0.1435 -0.1816
16406W        W32667  18.354  14.170   4.031 -0.0538 -0.2798 -0.0215
16407W        W32668   9.284  17.223  14.196  0.2196  0.2566 -0.0589
16408W        W32669  10.825  12.732   3.969 -0.0801 -0.2408 -0.1459
16409W        W32670   1.179   3.375  12.691  0.2554 -0.0664  0.0012
16410W        W32671   0.917  14.831  13.439  0.2039  0.0875 -0.1658
16411W        W32672   9.680   2.227   5.848 -0.1884 -0.1308 -0.0724
16412W        W32673  16.389  12.510  12.480  0.1451 -0.0757  0.2245
16413W        W32674  14.063   2.610   1.216  0.1432  0.0870 -0.0170
16414W        W32675   2.924   1.984  14.582 -0.3725 -0.2295 -0.0894
16415W        W32676   6.698   3.719   2.670 -0.0825 -0.3395 -0.2650
16416W        W32677  10.841   6.736  11.663 -0.2217  0.0035  0.3640
16417W        W32678  11.453  11.166   1.090 -0.4675  0.1500 -0.0638
16418W        W32679  13.370  13.857  13.761  0.2601 -0.3930 -0.3199
16419W        W32680  13.530  10.593   3.446  0.1111  0.0792  0.3785
16420W        W32681   4.164   2.629   3.078  0.3233 -0.1862  0.3464
16421W        W32682  14.265  18.046   1.288 -0.1726  0.0958  0.1360
16422W        W32683   5.744  15.284   4.752 -0.0802 -0.0386  0.0051
16423W        W32684   5.555   3.102   1.302 -0.0530 -0.3994  0.1052
16424W        W32685   0.828   8.434   4.488 -0.0237  0.3130  0.0954
16425W        W32686   6.284  15.923   5.341  0.0381 -0.0996  0.1999
16426W        W32687   1.759   3.538   2.985  0.0924  0.1312 -0.3561
16427W        W32688   3.596  12.453   3.685  0.1334 -0.1259  0.1771
16428W        W32689  13.718  10.197   3.604 -0.0230  0.1756  0.3467
16429W        W32690   3.758   9.362  14.341  0.1060  0.1180  0.0801
16430W        W32691   7.684   0.877  12.290  0.0593  0.0204 -0.1841
16431W        W32692   2.511   2.020   1.954  0.2289  0.0515  0.0414
16432W        W32693  16.065  14.554   6.219  0.0153 -0.0225 -0.1308
16433W        W32694   8.009   8.637  13.842  0.1261  0.1854  0.0492
16434W        W32695  16.779   8.792  11.357  0.1224 -0.1126 -0.1427
16435W        W32696   2.519  11.688  15.501 -0.3219 -0.1078  0.2267
16436W        W32697   0.795   6.230   1.285  0.2960  0.0727 -0.5348
16437W        W32698   5.235   3.584  15.821  0.0399  0.0880  0.0750
16438W        W32699   8.277  11.910   5.274  0.3107 -0.0331 -0.2453
16439W        W32700   5.175  12.674   1.319 -0.0507 -0.2573 -0.1397
16440W        W32701  16.353   8.481  11.339  0.1371 -0.1917  0.0076
16441W        W32702  15.932  17.774   1.841  0.1271 -0.0946  0.1255
16442W        W32703  11.614  14.344   3.848  0.2609  0.0362  0.0381
16443W        W32704   1.002   5.335  13.644 -0.2972 -0.1864  0.4207
16444W        W32705   4.229   0.611  13.067  0.0674  0.3613 -0.2529
16445W        W32706   8.776   4.886   0.222 -0.0113  0.2432  0.0184
16446W        W32707  14.407   4.812  13.968 -0.0031  0.3176  0.0105
16447W        W32708   0.806  15.224  12.364 -0.1827 -0.0068  0.2886
16448W        W32709   4.679  14.427  11.400  0.0919  0.1184  0.3046
16449W        W32710  10.764   3.866   1.319 -0.3503 -0.2020  0.1968
16450W        W32711   4.100   7.724  11.792  0.0076 -0.0924 -0.5030
16451W        W32712  14.186   8.727  12.675  0.0157  0.0425  0.1739
16452W        W32713  12.385  14.750  14.072  0.0057  0.1827  0.2477
16453W        W32714  11.417  16.188   0.855  0.1208  0.2045 -0.1345
16454W        W32715  10.168  10.795  12.418  0.1548 -0.0462  0.1028
16455W        W32716  15.037   5.394   0.107 -0.0353  0.4578  0.1236
16456W        W32717   1.224   8.169  12.242 -0.0234  0.0099 -0.3804
16457W        W32718   2.992   8.152   0.825  0.2233 -0.5312 -0.1131
16458W        W32719   8.243  13.219  10.998  0.1186  0.0163 -0.2824
16459W        W32720   3.808  14.772   4.126  0.0442 -0.0738  0.1330
16460W        W32721   8.627   3.709  12.527  0.0092 -0.0592 -0.0196
16461W        W32722  12.790   8.782  14.801 -0.1540 -0.0210  0.0300
16462W        W32723   2.924   1.526   4.142 -0.2204  0.0531 -0.2372
16463W        W32724   6.023   3.377   5.218 -0.1362  0.1913 -0.4856
16464W        W32725  10.427   8.254   5.066 -0.0720 -0.5351  0.0948
16465W        W32726   1.264   5.550  13.272  0.2537 -0.2271  0.0887
16466W        W32727  11.797  13.743   0.022  0.0011  0.2699 -0.1958
16467W        W32728   9.816   8.480   2.892  0.2344  0.0509 -0.2292
16468W        W32729   3.148   4.704  12.606  0.2284 -0.1707 -0.1215
16469W        W32730   6.973  12.286   3.682  0.1753 -0.1116  0.3392
16470W        W32731   5.414  18.121  11.427 -0.0139  0.1313 -0.1439
16471W        W32732   8.730  12.895  10.809 -0.1554  0.0443  0.1131
16472W        W32733  15.514   7.009  11.860  0.3390 -0.0902  0.1215
16473W        W32734   8.680   9.330   2.731  0.2313 -0.2687 -0.1590
16474W        W32735   8.020  15.161   4.480 -0.2273 -0.0910  0.4767
16475W        W32736  10.997   9.413  14.776  0.0542  0.4159 -0.1008
16476W        W32737   1.820   0.594  16.277 -0.2012 -0.1472 -0.0498
16477W        W32738  14.770  12.669   1.456  0.6179  0.1005  0.0921
16478W        W32739   6.274   2.732  15.796  0.2037 -0.1923  0.0028
16479W        W32740  14.662  16.809  14.224  0.2814  0.1017  0.2145
16480W        W32741  16.539   2.532  14.979 -0.1368 -0.1555  0.0897
16481W        W32742   3.660   4.486   3.648  0.0969 -0.2801  0.1683
16482W        W32743   2.602  10.543  12.185  0.1891  0.1838  0.1332
16483W        W32744  12.648   8.157  12.990 -0.0187  0.1579  0.1315
16484W        W32745  10.652  15.684   0.588 -0.2207 -0.2225  0.0060
16485W        W32746  16.299   6.666   4.164 -0.0349 -0.1525 -0.1229
16486W        W32747   9.671  11.620   5.035  0.0076  0.0015 -0.6110
16487W        W32748  12.670   4.170   3.225 -0.0074  0.0865 -0.0558
16488W        W32749  14.236   1.477   4.208 -0.1202 -0.2314  0.0147
16489W        W32750   0.724   8.042  16.079 -0.4397 -0.0976  0.0899
16490W        W32751   1.029  11.201   4.411  0.1844 -0.0277 -0.0183
16491W        W32752   0.702  11.104   4.830 -0.1402 -0.0893  0.2770
16492W        W32753  17.949   4.197  12.529 -0.0324 -0.0527  0.0948
16493W        W32754   7.838   8.755   1.040  0.1637  0.2008 -0.0679
16494W        W32755   8.094   5.408  10.449  0.1536  0.1994 -0.2015
16495W        W32756  10.121   2.264  14.216 -0.2119 -0.1531 -0.2222
16496W        W32757  15.868  17.687  13.219  0.2766  0.1685  0.1471
16497W        W32758   4.670   7.105   2.986 -0.2295  0.0139 -0.1472
16498W        W32759  14.119  15.103   0.395  0.1771 -0.0189  0.1170
16499W        W32760   6.794   8.469   0.841  0.0039  0.0810  0.0900
16500W        W32761  15.547   3.067  15.742 -0.3725  0.3944 -0.1074
16501W        W32762  11.999  12.165   4.563 -0.1752  0.1229  0.2803
16502W        W32763   8.145  15.724   1.797 -0.1632  0.2187 -0.3187
16503W        W32764   5.856   7.020  14.532  0.0911 -0.0409 -0.0204
16504W        W32765   5.981  10.006  12.378  0.1559  0.1355  0.0379
16505W        W32766   6.608   8.033  13.323 -0.4084 -0.0617 -0.0188
16506W        W32767  10.614   3.181   3.112  0.0630 -0.3024  0.2105
16507W        W32768  18.206   2.421   1.238 -0.1490  0.2387  0.1648
16508W        W32769   3.987   9.190  12.796 -0.0220  0.1700 -0.1041
16509W        W32770   8.177  10.140  15.827 -0.2338 -0.1306  0.2628
16510W        W32771   5.148   5.278   2.364 -0.2124 -0.1200 -0.3190
16511W        W32772   7.279  16.236  14.147  0.4663  0.1179 -0.0083
16512W        W32773  13.018  13.825   4.627 -0.3632  0.0468 -0.1764
16513W        W32774   6.607   4.962  11.475 -0.5247 -0.0792  0.3303
16514W        W32775  13.184  13.635   1.006 -0.3095  0.3280 -0.2537
16515W        W32776  14.168  10.235  16.234 -0.1817 -0.1888 -0.0329
16516W        W32777  17.392  17.773   3.923  0.0980 -0.1948  0.1486
16517W        W32778   2.508  16.782  14.375  0.0240  0.3237 -0.2511
16518W        W32779  11.549   7.222   2.354 -0.0535 -0.3369  0.0702
16519W        W32780   5.463  13.814   5.598 -0.1248  0.0367 -0.0602
16520W        W32781   2.593   5.688   1.618 -0.2130  0.0419  0.3825
16521W        W32782  14.728   4.522  14.700 -0.0038 -0.0596 -0.2188
16522W        W32783  10.610   1.619   0.649 -0.2161 -0.1764 -0.2178
16523W        W32784   8.961   0.842   1.995  0.2230  0.0885  0.2378
16524W        W32785   4.029   3.233  14.129 -0.2826 -0.0097 -0.4082
16525W        W32786  11.838   5.211  12.042  0.0218  0.2217  0.5148
16526W        W32787   8.175   7.009   1.193  0.1002 -0.3336  0.0138
16527W        W32788  11.120  12.762   3.137 -0.0969 -0.0226  0.1091
16528W        W32789   6.657  11.369  12.822  0.2061 -0.0838  0.1285
16529W        W32790   4.009  15.576  13.878  0.1448  0.0017  0.1548
16530W        W32791   3.293  15.130   2.707  0.1492 -0.1001  0.2764
16531W        W32792   5.435  16.407   2.805  0.0145 -0.3166 -0.0178
16532W        W32793   7.876   9.414  12.851 -0.1580  0.1227  0.2378
16533W        W32794   9.146   4.930  11.253 -0.0953  0.1865 -0.0707
16534W        W32795   7.898  15.845  16.236 -0.2718 -0.0427 -0.0701
16535W        W32796   8.580  13.064   6.107  0.1174 -0.1161  0.0393
16536W        W32797  14.920  12.370  11.015  0.0771  0.3359  0.2167
16537W        W32798   5.678   7.463   2.357  0.3422  0.0150  0.2439
16538W        W32799  17.093   2.247   5.274 -0.1633  0.0434 -0.2162
16539W        W32800   7.205   0.825   4.034  0.0168 -0.0088  0.1751
16540W        W32801  12.963   5.717  12.786 -0.0364  0.2518  0.1255
16541W        W32802  11.805  18.294   1.633 -0.0883 -0.2031 -0.0896
16542W        W32803   2.411   6.592  15.383 -0.2493 -0.1901  0.1694
16543W        W32804  11.066  13.926  11.526  0.0932 -0.1458 -0.0229
16544W        W32805   6.783   8.829   1.494 -0.1094  0.2643  0.2971
16545W        W32806   0.929  15.119  15.487 -0.0556 -0.0173 -0.1111
16546W        W32807  12.424   5.602   5.197 -0.0724  0.1101 -0.1138
16547W        W32808   5.395  11.142  14.223  0.1310 -0.1835  0.1542
16548W        W32809   7.114   7.980   3.935 -0.3266  0.0851 -0.1085
16549W        W32810  13.655   4.646   2.385 -0.0983  0.0644  0.2024
16550W        W32811   1.243   7.142  13.686  0.1084 -0.1283  0.0636
16551W        W32812   4.776  10.986  15.044 -0.0069  0.0264 -0.2159
16552W        W32813   8.560   1.775  14.244  0.3296 -0.1708 -0.0015
16553W        W32814  14.459  16.626  15.979 -0.0813 -0.1084  0.0515
16554W        W32815  10.388  15.376  11.801  0.2904 -0.0097  0.1054
16555W        W32816   2.428   9.728   4.725 -0.1503 -0.1419 -0.0942
16556W        W32817  14.498  15.525   5.163  0.1825 -0.1107 -0.0554
16557W        W32818  10.922  11.001  15.794  0.0544  0.1149 -0.0728
16558W        W32819  16.998  15.696  16.296  0.1623  0.0876 -0.0640
16559W        W32820  12.479   0.996  12.993  0.2020 -0.1600 -0.1504
16560W        W32821  12.875  13.708   1.393  0.0258 -0.1289  0.2264
16561W        W32822  10.714  10.197   5.399  0.1649 -0.0563 -0.1696
16562W        W32823   1.744  14.975  11.368 -0.3757 -0.3080  0.0911
16563W        W32824   6.691  17.498   1.441 -0.4087  0.1057  0.0660
16564W        W32825  11.494   3.376  15.636  0.1029  0.0338  0.2320
16565W        W32826  10.339   9.221   2.186  0.3945  0.1381 -0.1046
16566W        W32827   1.177  12.466   2.562  0.1746 -0.1543  0.2473
16567W        W32828   8.647  14.617   0.757  0.1049  0.0541 -0.2854
16568W        W32829   1.532   5.617  14.927  0.0743  0.3123 -0.2253
16569W        W32830  10.232  10.843  12.880 -0.0448  0.0375 -0.4969
16570W        W32831   9.531  15.365   4.176 -0.1850  0.1949  0.0489
16571W        W32832   8.390  14.815  15.726  0.0965  0.2974  0.2933
16572W        W32833   1.339   2.537   3.258  0.1510 -0.1226  0.2649
16573W        W32834   8.595  11.736  10.397  0.0596  0.1977  0.0001
16574W        W32835   3.610   3.434  14.584 -0.2597 -0.2085 -0.0123
16575W        W32836   4.066  14.275   0.546 -0.4070 -0.0665 -0.1622
16576W        W32837   7.966   9.805   4.337  0.3415  0.2037  0.0167
16577W        W32838   6.417   9.112   1.297  0.0611  0.2698 -0.2163
16578W        W32839   2.041  17.565   0.669  0.0641  0.0221  0.2298
16579W        W32840   4.790   2.258  12.840 -0.0438 -0.1781  0.0290
16580W        W32841   7.651   3.016  11.578  0.2557  0.0429 -0.1327
16581W        W32842  10.215  10.280   5.251  0.1080 -0.2819 -0.2227
16582W        W32843  15.469   9.026   2.028  0.0959 -0.1693 -0.3548
16583W        W32844   0.880  15.663  15.607  0.0311  0.1019 -0.2561
16584W        W32845   7.942  17.719  15.975 -0.0368 -0.1882  0.0950
16585W        W32846  18.080  10.491  11.577 -0.2869 -0.1910 -0.2792
16586W        W32847   0.476   4.128   3.972  0.1210 -0.4819 -0.4421
16587W        W32848   3.331   6.811  11.947 -0.4884  0.0227 -0.0523
16588W        W32849  18.241  18.043  11.885  0.1563  0.1472  0.2108
16589W        W32850  11.809  18.363   3.696 -0.3821 -0.0881 -0.0365
16590W        W32851   0.342   1.555  14.151 -0.0439  0.1013  0.2886
16591W        W32852   9.902   4.256  14.610 -0.3017  0.0464 -0.0776
16592W        W32853  17.727   8.904  13.530  0.1184  0.1930  0.1454
16593W        W32854   2.394  13.983  13.052  0.1934  0.0170  0.0734
16594W        W32855   9.317  14.938   4.335  0.1127  0.3250  0.1160
16595W        W32856   1.157   5.808  13.667 -0.1078 -0.0333  0.0705
16596W        W32857   6.596  14.331  12.510 -0.0781 -0.3937 -0.0689
16597W        W32858   7.322  14.850   5.412  0.0639  0.0221  0.1675
16598W        W32859   9.505  16.034  15.857 -0.2200 -0.0247  0.0442
16599W        W32860  14.752   7.355  14.955  0.0282  0.0459  0.1068
16600W        W32861   7.371  12.880  11.112  0.1851 -0.0418  0.0719
16601W        W32862   2.112   3.455  13.526  0.0138 -0.0490  0.0223
16602W        W32863   9.069   7.540   3.675 -0.0630 -0.0528 -0.0377
16603W        W32864  12.767   7.372   0.922  0.0834  0.3525  0.0129
16604W        W32865  15.799   3.307   2.652  0.0487  0.3753 -0.0408
16605W        W32866   4.736  10.530  15.329  0.0020  0.1170  0.0056
16606W        W32867  12.582   9.880  12.684 -0.1244 -0.1317  0.4594
16607W        W32868   7.472  14.681   4.663  0.2684 -0.1698  0.3110
16608W        W32869   8.909   7.327  11.811  0.1459  0.0715 -0.2749
16609W        W32870   7.865   6.330   1.120  0.3702  0.3642  0.0509
16610W        W32871  11.193   6.542   3.607 -0.1799  0.2935 -0.0495
16611W        W32872   3.079  13.834  14.138 -0.2410 -0.0042  0.0162
16612W        W32873  10.333   8.923   3.631  0.2300 -0.1236  0.0428
16613W        W32874  12.450  14.604   1.093 -0.1492  0.2352  0.2150
16614W        W32875  16.359  18.040   5.057  0.0571  0.0388 -0.0402
16615W        W32876   9.135  13.989  12.713 -0.0684 -0.1401 -0.0845
16616W        W32877   9.807  15.604  13.453 -0.1140  0.0442 -0.0697
16617W        W32878  12.865  11.761   0.898  0.0502  0.1034 -0.2042
16618W        W32879   0.990   2.430   3.720 -0.0519  0.2497  0.1733
16619W        W32880  17.642   0.486   5.231  0.1120 -0.1864  0.2107
16620W        W32881  15.508   4.230   1.750  0.2532  0.1081 -0.2125
16621W        W32882   1.704  10.728  14.591 -0.0055  0.0783 -0.1575
16622W        W32883   1.629  10.203  16.248  0.1336  0.2804 -0.3751
16623W        W32884   9.216  10.383  13.412  0.0475  0.2313 -0.0211
16624W        W32885  17.761  10.161   1.042  0.0091 -0.0133  0.0431
16625W        W32886   5.284  13.580   0.018 -0.1043  0.3206 -0.2557
16626W        W32887  11.683  15.315  11.778  0.0281 -0.0837 -0.1009
16627W        W32888  13.199   1.214   2.961 -0.0768 -0.2463  0.0093
16628W        W32889  11.926   5.859   2.864 -0.1016 -0.3162  0.0070
16629W        W32890   7.514   0.104   2.747  0.1847  0.0813 -0.0591
16630W        W32891  15.529  11.204   4.021  0.0457 -0.2490  0.1675
16631W        W32892  11.633  12.709  15.934  0.0242  0.0428  0.2636
16632W        W32893  11.349  11.949   4.786 -0.4447 -0.3364  0.0270
16633W        W32894   0.334   2.438  14.792  0.4813  0.1470 -0.0770
16634W        W32895   8.625   9.284  14.240 -0.1914  0.0225 -0.2737
16635W        W32896   7.945   3.408   2.001  0.1765  0.1049 -0.1627
16636W        W32897   8.306   8.772   2.276 -0.0380  0.1345  0.4213
16637W        W32898   3.900   2.941   5.196 -0.0387  0.2843 -0.0266
16638W        W32899   5.700   9.438  14.581  0.0287 -0.3986  0.0417
16639W        W32900  12.428  11.078  14.125 -0.3631 -0.0393 -0.1758
16640W        W32901  18.216  15.533  12.016 -0.0578 -0.2465  0.0360
16641W        W32902  15.661   3.656   1.014  0.0761  0.0074  0.1396
16642W        W32903  12.750   1.994   5.880 -0.0958 -0.0709 -0.1719
16643W        W32904   5.253   9.721  11.190 -0.1920 -0.1363  0.0524
16644W        W32905   0.654   1.082   0.429 -0.3202  0.0150  0.0022
16645W        W32906   4.994   5.335   4.169  0.0222 -0.0906 -0.0541
16646W        W32907  13.945   5.730  14.266 -0.1385  0.2747  0.2023
16647W        W32908  13.274   7.763  13.951 -0.3098  0.2122 -0.0420
16648W        W32909  11.781  15.955  15.731 -0.2077 -0.0220 -0.2601
16649W        W32910   6.891   8.707  11.952 -0.1150  0.0472 -0.0293
16650W        W32911  15.628  12.138  12.660  0.0805 -0.0872  0.0387
16651W        W32912   1.444  12.715   1.647  0.1154 -0.0603 -0.2876
16652W        W32913   0.607  12.026   2.586  0.2817  0.2302 -0.0300
16653W        W32914  13.887  14.739  14.738  0.3460  0.1552 -0.1484
16654W        W32915  11.494   1.722   1.735 -0.0847 -0.4093  0.1683
16655W        W32916   2.589   6.705   0.271  0.0415  0.5146  0.2049
16656W        W32917  12.703   4.649  13.775  0.0731 -0.1832  0.0188
16657W        W32918  10.464  17.445   0.314  0.1963  0.0342  0.1173
16658W        W32919  17.027  10.820   2.474  0.0934  0.1015  0.0275
16659W        W32920  10.923   8.107   3.849  0.3389  0.2308  0.2660
16660W        W32921  17.442  12.358   1.555  0.1287  0.1794  0.3696
16661W        W32922  13.830   0.210   2.694 -0.1552 -0.1408 -0.1196
16662W        W32923  15.338   6.516   1.103  0.1210  0.0152  0.2000
16663W        W32924   5.332  12.714  12.033 -0.4221 -0.4604 -0.1133
16664W        W32925  13.932   4.577  13.945  0.1156  0.0834  0.1995
16665W        W32926  12.775   6.390  12.733  0.0460 -0.1039 -0.1007
16666W        W32927  11.192   9.348   1.689 -0.3612 -0.0567 -0.1335
16667W        W32928   2.229   1.875   5.969  0.0802  0.0836  0.4801
16668W        W32929   1.034  17.938   4.644  0.2027  0.2025  0.1419
16669W        W32930   7.059   1.357   5.104  0.0970  0.0749 -0.0987
16670W        W32931  13.686  10.283   0.006 -0.1133  0.2476 -0.0375
16671W        W32932   7.146   8.624  14.692  0.3251  0.1137 -0.0345
16672W        W32933   6.859   8.909   5.151  0.3117 -0.0973 -0.2026
16673W        W32934  11.934  16.990   0.818 -0.0438 -0.1362 -0.0945
16674W        W32935   1.406   9.005  15.958  0.0447  0.0905 -0.0243
16675W        W32936  18.230  12.539  15.126 -0.0849  0.2430  0.1580
16676W        W32937   4.068   2.173   3.453  0.1231 -0.0209 -0.1877
16677W        W32938   8.533   4.151   3.983  0.1001  0.4438 -0.2221
16678W        W32939   8.948   8.864  11.308 -0.0918  0.2943 -0.2487
16679W        W32940   5.404   4.800   3.447  0.0257 -0.0520 -0.1212
16680W        W32941   4.696  14.292   3.903  0.0294  0.0643 -0.2489
16681W        W32942  15.280  16.819  11.966  0.3051  0.0598  0.1994
16682W        W32943   5.052  15.149   2.856 -0.1300 -0.1662 -0.0765
16683W        W32944   9.225   9.209  12.106 -0.0943 -0.0286 -0.0243
16684W        W32945  16.582  12.073   3.601  0.2016 -0.2036 -0.0697
16685W        W32946  18.346  17.584   1.292  0.2056  0.2878 -0.2302
16686W        W32947  10.807  13.761   4.662  0.1317  0.2302  0.0419
16687W        W32948  12.129   3.532  12.807 -0.0506 -0.0427 -0.0014
16688W        W32949   0.089  11.518  13.911  0.0421  0.1922 -0.0506
16689W        W32950  14.203   0.711  13.277 -0.2652  0.1842 -0.1651
16690W        W32951  14.051  13.004   3.389  0.0083 -0.2331  0.4273
16691W        W32952   3.403  10.306  11.615 -0.1608  0.0004  0.1065
16692W        W32953  18.299   7.267  11.569 -0.1322  0.1062 -0.1294
16693W        W32954   3.758  17.902   3.387  0.4180  0.2256  0.0919
16694W        W32955   7.884   3.339  11.295 -0.1040 -0.0608 -0.1585
16695W        W32956  10.302  14.943   5.063 -0.1791  0.1103 -0.1652
16696W        W32957  10.595   4.732   4.256  0.0846 -0.1165 -0.1906
16697W        W32958   6.496  12.758   3.252 -0.0318  0.0927 -0.0627
16698W        W32959   9.708  16.580  13.648 -0.3556 -0.1057  0.0977
16699W        W32960   3.519   2.687   3.171  0.0805 -0.1578 -0.2007
16700W        W32961   4.358  16.781   5.171  0.3464  0.1138 -0.2393
16701W        W32962  16.988  11.557  14.580 -0.1328 -0.0101 -0.0268
16702W        W32963  16.623   2.995   1.865 -0.0721 -0.1493  0.0259
16703W        W32964  12.136   8.933   2.840 -0.0174  0.1517 -0.1041
16704W        W32965   1.083   8.392  13.075  0.0114  0.0594  0.0349
16705W        W32966   8.439   5.154  15.831  0.1717 -0.3046 -0.0071
16706W        W32967   4.553  10.919   0.822 -0.0260  0.2060  0.1710
16707W        W32968   8.986  18.163  15.181 -0.2256 -0.1970  0.1911
16708W        W32969  11.169   7.717  15.401 -0.0257 -0.0060 -0.0323
16709W        W32970   7.226   3.412   2.198 -0.1437  0.0265  0.1430
16710W        W32971  14.086   4.381   3.730  0.0981  0.0874 -0.0674
16711W        W32972  10.970  17.729   1.768 -0.4914  0.1709  0.1921
16712W        W32973   6.264  11.166   2.935  0.0042  0.0053  0.0909
16713W        W32974   6.390   3.748   3.684  0.1619  0.0272 -0.0363
16714W        W32975   7.585   2.647   6.081 -0.0244 -0.1589 -0.2231
16715W        W32976  11.248  12.210   5.642  0.0598 -0.0114  0.0944
16716W        W32977   0.202  14.994   5.255  0.1379 -0.2118  0.2022
16717W        W32978   0.993  11.999   2.282  0.3424 -0.2770  0.1769
16718W        W32979   9.180   3.106  13.742 -0.0575 -0.5796 -0.0627
16719W        W32980   0.805  11.903   1.190 -0.2591 -0.1017  0.1126
16720W        W32981   3.657  11.050  14.468 -0.1757  0.0543  0.2066
16721W        W32982   6.783   2.168   0.753  0.0307 -0.1333  0.1780
16722W        W32983   6.518  10.356  12.915 -0.0060 -0.0835 -0.1040
16723W        W32984   3.161  12.471  14.577  0.1728  0.1815 -0.1036
16724W        W32985   2.760   3.943   2.133 -0.0285 -0.1688  0.0286
16725W        W32986  13.595   8.096  13.654 -0.0240  0.2378 -0.0086
16726W        W32987   4.783   3.397  13.898  0.0336 -0.4414 -0.2510
16727W        W32988  12.187  17.136  15.368 -0.0438 -0.2537 -0.0603
16728W        W32989   2.158  14.924  12.895  0.1598  0.0275  0.1538
16729W        W32990  12.934   0.289   1.566 -0.1698  0.0138 -0.0364
16730W        W32991   3.952   7.900   1.198  0.0210 -0.0431 -0.0831
16731W        W32992  16.310   0.735   0.942  0.2506  0.3225 -0.0747
16732W        W32993   3.688   4.158   3.136 -0.1168  0.1038  0.2857
16733W        W32994   6.266  17.608   4.575  0.1758 -0.1188 -0.1472
16734W        W32995   5.011  14.136   4.318  0.1310  0.0599 -0.1957
16735W        W32996   9.075   4.421  12.048 -0.1844  0.0802  0.1989
16736W        W32997   3.664  14.385   1.112 -0.2397 -0.2213 -0.2906
16737W        W32998   0.077   8.715  15.672 -0.2705  0.0690  0.0611
16738W        W32999   3.442  15.688  13.659  0.2724 -0.2369  0.1416
16739W        W33000  11.389  11.185   5.364 -0.0335  0.1250 -0.0790
16740W        W33001  18.096  14.809  15.407 -0.0502  0.1596 -0.1403
16741W        W33002   6.388  15.556   4.061  0.0666  0.2242 -0.1630
16742W        W33003  11.486   6.625  12.173 -0.2095  0.1460  0.0567
16743W        W33004   9.813   9.340  14.215 -0.0705  0.0330 -0.1883
16744W        W33005  12.907  12.723  11.351 -0.2447  0.0570 -0.2765
16745W        W33006  12.164   8.437  10.626  0.0932  0.3793 -0.2134
16746W        W33007   6.578   9.580   0.029 -0.3010 -0.2855  0.1121
16747W        W33008   1.920   1.785   0.714  0.3382  0.1538 -0.0984
16748W        W33009   4.687   4.988   2.341  0.1268 -0.0005  0.0741
16749W        W33010  13.135  12.583   0.167 -0.2973 -0.3320  0.2412
16750W        W33011   0.955   7.248   0.850  0.1603 -0.2071 -0.1355
16751W        W33012   0.757   8.754   0.575 -0.3776  0.1284  0.0350
16752W        W33013  15.266  12.865   1.414 -0.1175  0.0433  0.0633
16753W        W33014  10.818  17.039  14.028 -0.0385  0.0184  0.0925
16754W        W33015  10.346  13.451   1.990  0.1968 -0.1299 -0.1974
16755W        W33016   0.520   5.259  13.762  0.2331 -0.1400 -0.0627
16756W        W33017  13.716   8.239   5.334 -0.3975  0.0027  0.2726
16757W        W33018   3.547  16.455  15.504 -0.3714 -0.2194 -0.1246
16758W        W33019   7.186  17.219   0.079 -0.2266 -0.1366 -0.1228
16759W        W33020  17.760  16.973  15.422 -0.1448  0.3392  0.0170
16760W        W33021  17.317   9.572   4.781  0.0058 -0.0498 -0.1906
16761W        W33022  10.798   3.158   1.895  0.1093  0.1465 -0.1613
16762W        W33023   2.830   9.445   4.897  0.2924 -0.1594  0.0246
16763W        W33024   4.904   7.325  13.267  0.2582 -0.0375 -0.0386
16764W        W33025  16.263  12.381   1.883 -0.1101  0.0738  0.2058
16765W        W33026  15.620   3.715   2.344 -0.2159  0.1543  0.1998
16766W        W33027  17.212   4.150   2.423  0.1085 -0.0652  0.2921
16767W        W33028   2.515   8.356   1.002  0.2310 -0.0947  0.2240
16768W        W33029  14.287   9.452   4.348  0.0963 -0.1383 -0.1291
16769W        W33030  17.059   6.872   5.179  0.1562  0.3608 -0.1519
16770W        W33031   2.978   0.187  14.624  0.0009 -0.1060  0.0493
16771W        W33032   4.737  12.454   1.699 -0.4252 -0.1080 -0.0754
16772W        W33033   9.292   1.526   4.395 -0.0108 -0.0160  0.3160
16773W        W33034   8.699   6.334   0.079  0.0611  0.0226  0.1639
16774W        W33035  18.288  11.813   3.334  0.2152  0.1446  0.0107
16775W        W33036  14.112   5.867   4.601 -0.0401  0.2518  0.1291
16776W        W33037  17.551  13.281  12.463 -0.0923 -0.0060  0.2244
16777W        W33038  11.771   1.990   5.729  0.0654  0.0941 -0.0727
16778W        W33039   3.002  16.846   1.229  0.0389  0.0387 -0.1306
16779W        W33040  10.656   5.211   5.468 -0.1055  0.0927  0.2479
16780W        W33041  11.966  10.618   2.779  0.2092  0.5158 -0.0412
16781W        W33042   4.634   5.789   3.622  0.0044  0.0092  0.0206
16782W        W33043   0.795   2.769  15.550 -0.3101 -0.0581 -0.2009
16783W        W33044   1.951   0.220   3.213  0.1206  0.1961  0.1095
16784W        W33045   8.279   5.052  14.931  0.0280 -0.0960 -0.1472
16785W        W33046  11.130   9.914  12.957 -0.1765 -0.1528  0.0363
16786W        W33047   2.179   3.212   2.924  0.2067 -0.3827  0.1386
16787W        W33048   3.441   0.076   2.915  0.1158 -0.0701  0.2215
16788W        W33049  12.116   6.100  11.485 -0.1734  0.0070  0.0120
16789W        W33050  18.118   3.566   6.348  0.1391  0.0479 -0.1813
16790W        W33051   1.847  17.208  13.231  0.1396 -0.1376 -0.0412
16791W        W33052   9.837  14.464  15.562  0.1546 -0.2941  0.0656
16792W        W33053   0.748  17.179   4.032 -0.0853 -0.0968  0.0061
16793W        W33054  15.785   6.199  13.657 -0.0933  0.0276 -0.3574
16794W        W33055   1.367  12.079  13.578 -0.1241 -0.0533  0.0453
16795W        W33056   0.578   7.675  12.775 -0.2061 -0.5290 -0.0045
16796W        W33057  12.969   2.587  13.757 -0.1527 -0.1263  0.0912
16797W        W33058   3.798   1.965  13.558  0.1500 -0.1760  0.1271
16798W        W33059  14.007   1.555   2.225 -0.0037  0.3580  0.0993
16799W        W33060  12.527   0.306   2.566 -0.4718 -0.2833  0.3157
16800W        W33061   6.123   1.367  12.789 -0.0412  0.0777  0.1442
16801W        W33062  16.874  13.613   3.350 -0.1283  0.1077 -0.2048
16802W        W33063  15.180   7.305  15.985 -0.3691  0.2373  0.2497
16803W        W33064   5.702   9.001  12.810  0.1500 -0.0707 -0.4115
16804W        W33065  15.978   4.906  14.145  0.0459  0.0557 -0.0656
16805W        W33066  14.849   3.998   5.062 -0.3507 -0.0086  0.1341
16806W        W33067  16.411   0.648  12.764 -0.1326 -0.4451 -0.0174
16807W        W33068  15.971   4.869  12.462  0.1391  0.1260 -0.0530
16808W        W33069   7.637  11.288  15.208 -0.1974  0.2108 -0.2671
16809W        W33070   0.513  10.088   4.493  0.1822  0.2721  0.0817
16810W        W33071  13.710  13.751  14.170  0.1867  0.2393  0.0934
16811W        W33072  13.639   1.374   5.106  0.0505 -0.0082 -0.0423
16812W        W33073  12.969  10.262   5.411 -0.0481  0.1374 -0.2387
16813W        W33074   9.426  14.785  12.943 -0.2747  0.1591 -0.0947
16814W        W33075  16.934  12.456   0.361  0.2735 -0.0918  0.1005
16815W        W33076   3.404   3.557  11.974 -0.2993 -0.1477  0.1318
16816W        W33077   7.351  12.144   3.405  0.3648  0.0072  0.1405
16817W        W33078  17.955  13.482   0.077  0.0484  0.2346  0.3559
16818W        W33079  11.357  16.114   0.296 -0.0876  0.2147  0.0995
16819W        W33080  18.318   3.342  13.668  0.3681  0.1911 -0.3810
16820W        W33081   3.414   9.740  15.988 -0.0347  0.1185  0.0759
16821W        W33082   0.873  12.999  12.492 -0.0875 -0.2278  0.0459
16822W        W33083   8.852   7.676   4.358 -0.0411 -0.2403  0.0020
16823W        W33084  13.810  15.925  14.324  0.1109  0.0323  0.1471
16824W        W33085  10.038   1.537  11.060  0.4059 -0.1852  0.0669
16825W        W33086   3.204  13.866   1.789  0.1502 -0.2722  0.1291
16826W        W33087   4.062   4.528   4.011 -0.0334  0.1493 -0.1896
16827W        W33088   6.166  17.431   1.087  0.0721 -0.0385 -0.3367
16828W        W33089   6.167  13.072  15.397  0.0506  0.2572 -0.0263
16829W        W33090   1.722   7.689   2.609  0.0500  0.0385 -0.1928
16830W        W33091   7.863   6.138  14.257  0.0776 -0.2718  0.2054
16831W        W33092  11.518   6.475   4.085 -0.0906  0.0316 -0.1044
16832W        W33093  15.559  17.621   0.993 -0.0241 -0.0749  0.0436
16833W        W33094   6.305   9.554   1.080 -0.1100  0.0845  0.0524
16834W        W33095  10.330   1.404   4.058  0.1042 -0.0200  0.0687
16835W        W33096   3.301   2.132  15.533 -0.1820  0.0231  0.0956
16836W        W33097   1.476  15.534  13.947  0.4732  0.0641  0.0427
16837W        W33098  11.316   9.437  13.004  0.2370  0.1866 -0.2696
16838W        W33099  17.652   1.396   1.795 -0.0574  0.1387 -0.1592
16839W        W33100  16.460   1.729  15.726  0.0094 -0.2775 -0.1737
16840W        W33101  15.536   6.750   4.902  0.0046 -0.4236 -0.3866
16841W        W33102  16.342   7.049  16.267  0.1323 -0.1141  0.4382
16842W        W33103  10.929  10.378   6.209  0.4833 -0.2085  0.1202
16843W        W33104   1.745   9.776  16.014 -0.1654  0.0741  0.3931
16844W        W33105   0.302   2.268  15.585  0.3554  0.1792 -0.1226
16845W        W33106  11.317  10.940   4.574 -0.1279  0.3994  0.0505
16846W        W33107  12.707  17.365   0.327 -0.0384 -0.1505 -0.2817
16847W        W33108  11.082   9.595  11.040  0.0533  0.0022 -0.1865
16848W        W33109   0.556  15.311   3.202  0.0762 -0.0568 -0.0233
16849W        W33110   4.192   0.159   5.350  0.0529  0.2030 -0.2055
16850W        W33111  11.537   3.062  10.552 -0.1664 -0.0864  0.0785
16851W        W33112  16.941   4.250  15.079  0.1371 -0.0775 -0.1221
16852W        W33113   4.679  17.184   2.946  0.0946 -0.0926 -0.0760
16853W        W33114   9.173  16.873   5.087  0.0554  0.1338 -0.0158
16854W        W33115   9.141   5.412   2.062  0.2304  0.0915 -0.3162
16855W        W33116  14.704  10.459  14.977  0.2703 -0.1978 -0.3752
16856W        W33117  10.703   5.058   3.100 -0.0718 -0.1736  0.0807
16857W        W33118   5.890  15.872   2.108  0.2967 -0.1470 -0.1454
16858W        W33119  15.065   5.709  12.712 -0.2384  0.0422 -0.0127
16859W        W33120   0.351   7.798  12.345 -0.0062 -0.1084 -0.1046
16860W        W33121   9.046   0.420  13.159 -0.0455  0.1650  0.3516
16861W        W33122   1.726   9.854   4.350 -0.3215 -0.4300 -0.1553
16862W        W33123   8.048  17.536   0.174  0.0195 -0.1013 -0.1485
16863W        W33124  16.004  14.676   1.648 -0.3749 -0.2308 -0.0675
16864W        W33125   4.456  16.881   3.267  0.2139 -0.0342 -0.1808
16865W        W33126   9.108   5.738   4.289 -0.0653 -0.2991  0.1393
16866W        W33127   6.064   8.902   2.557  0.0975 -0.0244  0.1748
16867W        W33128   3.792   4.970  12.661  0.1938  0.1983 -0.2580
16868W        W33129   1.776  18.308  13.995 -0.2688 -0.4859  0.0869
16869W        W33130   6.258  17.958   3.481  0.2244 -0.0612 -0.1099
16870W        W33131   8.544  17.970   2.662  0.1356  0.1655 -0.1217
16871W        W33132  15.693  11.905  11.127 -0.1979  0.3512 -0.3899
16872W        W33133   9.054  11.681  13.671 -0.3388  0.1813  0.0801
16873W        W33134  11.720   9.028  11.695  0.0620  0.1342 -0.0503
16874W        W33135   0.890  11.441   2.434 -0.2466  0.0020 -0.0776
16875W        W33136   7.843  16.876  15.043 -0.2659 -0.0536  0.0049
16876W        W33137   0.838   1.547  14.152  0.0103  0.1189 -0.1827
16877W        W33138  17.170   1.064   0.380 -0.0554 -0.2431  0.4542
16878W        W33139   5.383  12.446   4.218  0.0729 -0.0992  0.1272
16879W        W33140   1.093   3.878   6.222 -0.0664 -0.1273  0.1577
16880W        W33141   9.509  11.026  15.642 -0.0417  0.2832  0.1939
16881W        W33142   9.093  10.143   1.058  0.2394 -0.1552 -0.0714
16882W        W33143   9.750  14.537  13.329  0.1821  0.1548 -0.1328
16883W        W33144   6.658  16.969   2.143 -0.1980 -0.1836 -0.1834
16884W        W33145  16.857  16.348   5.293  0.0244 -0.0916 -0.3777
16885W        W33146   4.734  17.241   3.996 -0.0537 -0.1090 -0.1994
16886W        W33147  17.395  17.212  12.410 -0.2274  0.0798  0.3244
16887W        W33148  12.724   6.331   2.673 -0.2420  0.2522 -0.0843
16888W        W33149   1.228   1.199  13.301 -0.1406 -0.2872  0.0176
16889W        W33150   5.914   9.085   1.243  0.0890 -0.5958 -0.0697
16890W        W33151   4.343   8.033   2.343 -0.0800 -0.0717 -0.0769
16891W        W33152   9.119   2.378   0.199 -0.1024 -0.2930  0.1286
16892W        W33153  17.749   6.096  14.763  0.2728  0.1218  0.2373
16893W        W33154   0.922   1.174   4.367 -0.2214 -0.2373 -0.0805
16894W        W33155   9.578  12.353   3.029 -0.3196 -0.0345  0.1267
16895W        W33156  17.019  12.640   4.542  0.0722  0.0731 -0.0552
16896W        W33157   2.977   9.482  13.700 -0.0420  0.0710  0.1080
16897W        W33158  10.674   0.738   4.601 -0.0688 -0.0178  0.0631
16898W        W33159  10.174   1.964  16.292 -0.1157  0.0665 -0.1662
16899W        W33160  12.493  13.917  11.799 -0.3608  0.0041  0.1404
16900W        W33161  16.951  15.217   0.695  0.1532  0.1335  0.1393
16901W        W33162   1.850   2.150   5.211 -0.2285  0.2371 -0.0579
16902W        W33163   0.654  10.020  16.135  0.2617  0.2201  0.0642
16903W        W33164   6.299  10.246  10.462  0.0277  0.0032 -0.0631
16904W        W33165  12.064   3.115   5.760 -0.1839 -0.2049  0.2150
16905W        W33166   1.864   2.634   3.407  0.3489 -0.0003  0.0528
16906W        W33167  11.589  16.637  14.527  0.0164 -0.3081 -0.4192
16907W        W33168   6.942  10.333   1.156 -0.1059 -0.1329 -0.2115
16908W        W33169   3.164  14.517  13.126 -0.0382 -0.2040  0.2215
16909W        W33170   5.896  12.925   2.959  0.0021 -0.4336  0.0351
16910W        W33171  13.257  14.392   2.736  0.2376 -0.0847  0.0310
16911W        W33172   3.818   5.068  15.330 -0.2924 -0.3587  0.1077
16912W        W33173  13.753   1.815  14.152  0.2469 -0.0374  0.1390
16913W        W33174  12.139   9.111  12.835 -0.3232  0.0384 -0.1359
16914W        W33175   1.219  10.722  14.675  0.2074  0.1951 -0.0665
16915W        W33176  15.283  14.059   0.881  0.1184  0.0990  0.1176
16916W        W33177  17.034   3.317   5.379  0.1137 -0.1602 -0.0639
16917W        W33178   5.886   6.251   2.056 -0.0072 -0.2220  0.0668
16918W        W33179   9.161   2.296   0.857  0.2159  0.0991  0.0511
16919W        W33180  11.478   7.674  14.594  0.2563  0.1253  0.3009
16920W        W33181   0.840   9.246  11.419  0.2693  0.3643  0.0320
16921W        W33182   5.656   4.223   0.140  0.0452  0.2802 -0.0078
16922W        W33183   3.982  13.908   4.979 -0.3310 -0.2596  0.3010
16923W        W33184   6.977   5.886   2.789 -0.1734 -0.0576  0.2020
16924W        W33185   7.506   8.151   4.151  0.0518 -0.1816 -0.1332
16925W        W33186  14.975  15.913   1.397  0.3006 -0.1635  0.2065
16926W        W33187  16.598   6.496   2.928 -0.3040  0.1986 -0.6364
16927W        W33188   4.535   0.746  13.685 -0.1593 -0.0517  0.2336
16928W        W33189   1.981  16.933   2.896 -0.2061  0.2395  0.0973
16929W        W33190   4.923  13.583  11.724 -0.2077 -0.4872 -0.1047
16930W        W33191   4.451  10.158  12.233 -0.1667 -0.1771  0.1171
16931W        W33192  15.452  10.119   2.424  0.0233 -0.3339  0.0202
16932W        W33193  12.959   0.578  13.955 -0.6268  0.0029  0.0752
16933W        W33194   0.056  16.252   3.403 -0.0079 -0.0868  0.2906
16934W        W33195   7.382   6.055   3.407  0.1201 -0.3448 -0.0759
16935W        W33196   4.659  11.905   3.746  0.2499 -0.2157 -0.3179
16936W        W33197   2.917   3.652   4.582 -0.0398 -0.0614  0.1754
16937W        W33198   2.822   3.756   6.283 -0.2127  0.0775 -0.1308
16938W        W33199   0.625   3.556  12.290 -0.0010 -0.0393  0.2146
16939W        W33200  16.282  11.613   3.259  0.3089 -0.0469  0.2987
16940W        W33201  14.214   5.692  15.733 -0.1648  0.0648  0.1841
16941W        W33202   9.707  16.876   2.704  0.1235 -0.1381 -0.0718
16942W        W33203  11.896   7.970  14.928  0.1904  0.3456  0.0747
16943W        W33204   5.763  17.591   5.805 -0.0900  0.2032 -0.4054
16944W        W33205  17.734  10.374  13.720  0.0788 -0.1841  0.0170
16945W        W33206  16.435  13.933   1.006 -0.2583 -0.0200  0.2470
16946W        W33207   5.128   4.269  11.297 -0.0141  0.0694 -0.0307
16947W        W33208   0.386   1.497   5.088 -0.1766  0.2192  0.0471
16948W        W33209   1.184   7.262  15.667 -0.2269  0.1596  0.1560
16949W        W33210   8.279  17.800  12.781 -0.0167  0.2911 -0.2504
16950W        W33211   3.684  11.994   0.732  0.1113  0.0516 -0.0146
16951W        W33212   5.823  16.027  12.294 -0.1953  0.4500 -0.0007
16952W        W33213  18.022  16.669   1.245  0.1170  0.0992  0.1407
16953W        W33214  13.930  13.834   4.279  0.0617 -0.2678  0.0157
16954W        W33215  13.176   1.210  12.609  0.0044  0.1175 -0.0632
16955W        W33216  14.033  13.989  11.518  0.2673  0.0011 -0.1730
16956W        W33217   9.341  10.097  11.253 -0.2584  0.1278  0.0839
16957W        W33218   7.926  16.583   3.286  0.2067 -0.0668 -0.0020
16958W        W33219  12.130   1.361   0.934  0.0113 -0.3704  0.2687
16959W        W33220  15.350   3.954   5.022 -0.1154 -0.1619 -0.2323
16960W        W33221   8.691   4.887   3.183  0.0996  0.2416  0.1009
16961W        W33222  14.653   8.108   1.818  0.2394 -0.2258  0.1210
16962W        W33223   7.055  10.830  10.995 -0.2303 -0.0585  0.4176
16963W        W33224  17.219  13.880   4.605  0.2570 -0.0702  0.2723
16964W        W33225   7.886   0.969   1.135  0.1535 -0.0290  0.0601
16965W        W33226   4.751  16.236  11.740 -0.1151  0.2184  0.5009
16966W        W33227   1.382  11.938  12.771 -0.2394  0.0498 -0.0804
16967W        W33228   1.555   1.063   2.634  0.0211  0.0222 -0.0481
16968W        W33229   2.897   0.859  11.956  0.1383 -0.2542 -0.1851
16969W        W33230  11.483  17.534   3.115 -0.1632  0.0358 -0.0933
16970W        W33231   1.264   4.476  14.243 -0.2251 -0.1131 -0.4832
16971W        W33232   0.558   6.086  15.369 -0.0535  0.1715  0.3499
16972W        W33233  10.779   5.253   3.710 -0.1336  0.2200  0.2982
16973W        W33234  13.671   7.116  14.156 -0.2039  0.0130 -0.1635
16974W        W33235  18.279  16.992  11.661 -0.0064  0.0561 -0.0303
16975W        W33236   3.012   2.931   3.141 -0.1360 -0.1303  0.0452
16976W        W33237  16.313   8.451   3.404  0.2759  0.3718  0.0472
16977W        W33238   8.127   7.068  16.282  0.3538  0.1714 -0.1412
16978W        W33239  16.813  13.281   0.786 -0.2422  0.0519 -0.2158
16979W        W33240   9.841   0.356   2.215  0.0469  0.0541  0.2653
16980W        W33241  18.256  10.001  11.609  0.0890 -0.2307  0.4229
16981W        W33242   2.204   1.836   5.448  0.2305  0.3903  0.0912
16982W        W33243   0.416   6.255  14.732 -0.2391  0.0963 -0.2419
16983W        W33244  17.672  15.679   1.025 -0.1723 -0.0596 -0.0686
16984W        W33245   1.110   2.712   2.281  0.1293  0.0645 -0.0427
16985W        W33246  16.336   7.469   5.137 -0.0150  0.0748  0.2445
16986W        W33247  14.374  11.171   0.633 -0.0525  0.1932  0.1366
16987W        W33248  10.753   9.427   2.362  0.2125  0.2148 -0.0553
16988W        W33249   4.746  13.076   3.033 -0.2634 -0.2983  0.0453
16989W        W33250   7.489   7.033   2.369 -0.3633 -0.1939 -0.0838
16990W        W33251  12.237  12.373   9.814  0.0466 -0.0569 -0.1598
16991W        W33252  10.640  16.362  16.070  0.0213 -0.3552 -0.2387
16992W        W33253  17.330   6.153   3.654 -0.3049  0.0708  0.1476
16993W        W33254   8.330   3.420  12.217  0.1859 -0.3966 -0.0952
16994W        W33255  15.646   5.039  13.350 -0.1378 -0.1767 -0.1186
16995W        W33256  15.961  15.507  15.082  0.1922 -0.2132 -0.0168
16996W        W33257  10.720   3.322   4.410  0.3641 -0.2665  0.2522
16997W        W33258   0.713   1.082   2.166  0.1831  0.2570  0.2802
16998W        W33259  11.960   4.644  15.729  0.2496  0.0259 -0.1776
16999W        W33260  11.666  17.542  14.870  0.0709 -0.3564  0.2577
17000W        W33261   4.403   6.850   0.229  0.0117  0.3100 -0.2528
17001W        W33262  17.450   4.822  14.182 -0.1687  0.2474 -0.1089
17002W        W33263   3.057   5.657   2.185  0.3283 -0.2715  0.0372
17003W        W33264  16.456   9.613  11.916  0.1796 -0.1315  0.1711
17004W        W33265  14.622   8.192  15.752  0.2277 -0.1460  0.1237
17005W        W33266   6.414  13.537  13.883 -0.0502  0.0395  0.0803
17006W        W33267  10.874   0.177  15.813 -0.0885 -0.0143 -0.2238
17007W        W33268  13.705   0.236   3.425 -0.0112 -0.1013 -0.2813
17008W        W33269  18.128   1.254  13.376 -0.1535  0.0742  0.0187
17009W        W33270   1.133   6.495   1.610  0.2907  0.0141  0.1910
17010W        W33271   4.845  12.583   5.845  0.1271 -0.0716 -0.0296
17011W        W33272  13.371  10.139   0.442 -0.0628 -0.1148 -0.2959
17012W        W33273   2.429   1.743  15.232  0.0245 -0.3514  0.1849
17013W        W33274   8.561   5.500   1.919 -0.1588  0.2460  0.1658
17014W        W33275  15.186  17.989  13.971 -0.1975  0.3532 -0.0868
17015W        W33276  17.482  12.737  13.503  0.1490  0.0618  0.2653
17016W        W33277  14.426  15.126   4.272  0.2181  0.1480 -0.2128
17017W        W33278  10.975   9.620  11.728 -0.0527 -0.1228  0.2191
17018W        W33279  14.222  17.894  15.809 -0.0508 -0.2282  0.0474
17019W        W33280  11.263  14.459   1.894 -0.1996  0.3053  0.0277
17020W        W33281  10.846   3.829   0.742  0.0164 -0.1511 -0.0094
17021W        W33282  14.980  18.046  14.968 -0.2642 -0.4544  0.2540
17022W        W33283   2.011   2.632  15.402 -0.1787 -0.1569  0.0486
17023W        W33284   2.775   1.433  13.570 -0.3227  0.0506  0.0495
17024W        W33285   2.246   5.120   0.243 -0.0521 -0.1040 -0.0758
17025W        W33286   3.261   1.081   3.173  0.0957 -0.3734  0.1811
17026W        W33287   2.971   5.504   4.400  0.3011  0.2888  0.2497
17027W        W33288  10.468  16.457   0.605 -0.1138 -0.0738 -0.1752
17028W        W33289   2.096  13.383   4.437  0.2576 -0.0560  0.1294
17029W        W33290  16.075   0.835  16.037 -0.0963 -0.0129 -0.3873
17030W        W33291   2.285  17.420  11.728 -0.0041  0.0899  0.0922
17031W        W33292   9.694   7.001  10.580 -0.0684 -0.1470 -0.1880
17032W        W33293  16.031  14.297   1.138 -0.2948 -0.0302 -0.1337
17033W        W33294   8.691  14.308   5.196 -0.3531  0.1225  0.0309
17034W        W33295  15.541   1.291   1.579  0.1181  0.0900  0.0316
17035W        W33296   4.823   2.951  13.619 -0.1602 -0.0943  0.3979
17036W        W33297   3.190   9.709   0.592 -0.0645 -0.2120  0.0354
17037W        W33298   9.475   3.952  14.369 -0.0704 -0.0269 -0.3180
17038W        W33299  10.176   7.275   0.768 -0.0303 -0.1743 -0.0670
17039W        W33300  11.226   5.185   3.893 -0.1585  0.1636 -0.2022
17040W        W33301  13.937   7.056  13.236  0.3290  0.2577  0.2038
17041W        W33302   6.675  16.362   4.211 -0.1016  0.3064  0.3014
17042W        W33303   9.204   3.724   9.586 -0.2284  0.1812  0.4563
17043W        W33304   0.306   7.152  13.850 -0.2109  0.0222 -0.0290
17044W        W33305  11.127   4.866   0.500  0.1831 -0.1253 -0.0739
17045W        W33306   3.349  16.638   3.565  0.0446 -0.3928  0.2808
17046W        W33307   1.498   9.152  15.421  0.1459  0.1129  0.1101
17047W        W33308   4.076  10.852   2.544 -0.2561  0.0035 -0.2401
17048W        W33309  14.289   7.015   5.676 -0.0531 -0.1433  0.1876
17049W        W33310   1.962   6.473  15.199  0.0689 -0.1407 -0.3658
17050W        W33311   0.045  17.049   4.598 -0.1145  0.1390 -0.1002
17051W        W33312  13.054   6.742  15.734 -0.2358 -0.0762 -0.2112
17052W        W33313   2.513  16.934   3.652 -0.1371 -0.3331 -0.2672
17053W        W33314   7.773  14.958   3.130  0.1609  0.0113 -0.2993
17054W        W33315   0.778   5.798   4.902  0.6647 -0.0310 -0.0525
17055W        W33316   9.230   2.546  12.535  0.0432 -0.0481  0.2933
17056W        W33317   2.953   7.036  14.834 -0.2265 -0.1897 -0.0336
17057W        W33318  12.796  12.056  12.499  0.0327  0.3362 -0.0948
17058W        W33319  10.870  13.729   3.631  0.0761  0.0049 -0.1362
17059W        W33320   7.655   7.387  12.518 -0.3070  0.1734 -0.0263
17060W        W33321   7.607   2.600  14.364  0.0165 -0.3632 -0.1062
17061W        W33322  15.777  18.131   1.035 -0.0999 -0.0022 -0.3366
17062W        W33323   5.264   9.149  13.957  0.0623  0.0851 -0.0048
17063W        W33324   5.222   2.095   4.716 -0.0347  0.2015 -0.4380
17064W        W33325  14.298   6.295   1.487  0.2078 -0.1367  0.1506
17065W        W33326   3.670   6.600   3.022 -0.0823 -0.1314  0.1528
17066W        W33327   3.435   9.923   2.559  0.1706 -0.0280  0.1201
17067W        W33328  10.581   4.207   4.627 -0.0188  0.3174 -0.1887
17068W        W33329  13.634   6.062   4.625  0.0969 -0.0648 -0.0665
17069W        W33330  18.162   8.642  11.562 -0.1301 -0.0566 -0.2126
17070W        W33331  15.598   4.745   4.697  0.1069 -0.0673 -0.2069
17071W        W33332  17.253  17.208   5.896  0.0365 -0.3754 -0.0768
17072W        W33333   3.009  14.955  15.196 -0.0733 -0.0065  0.0300
17073W        W33334  16.645   6.319   0.354 -0.0965 -0.0007 -0.0047
17074W        W33335   4.837  12.871   2.615 -0.0196  0.1748  0.2417
17075W        W33336   2.164  16.751   1.190 -0.0739 -0.0657  0.1503
17076W        W33337   9.949  14.283  14.021  0.2111 -0.1846  0.0799
17077W        W33338   6.366   2.607   0.281  0.0682 -0.1022  0.2249
17078W        W33339   8.655   3.833   4.958  0.4122  0.1332  0.0023
17079W        W33340   6.633   1.260  15.398 -0.1701 -0.1770 -0.0513
17080W        W33341   5.608   5.837  15.394 -0.2919  0.1330 -0.3761
17081W        W33342   6.161  14.359   1.449  0.0545  0.0273  0.1255
17082W        W33343   9.063   2.605  13.885 -0.1224  0.0125  0.2280
17083W        W33344   3.976  12.292  16.172  0.1061 -0.1208 -0.3955
17084W        W33345  11.457   3.810   4.079 -0.0006  0.0512 -0.1838
17085W        W33346  10.723   9.543   0.984  0.0780  0.0852 -0.2241
17086W        W33347   6.449  15.274   2.743  0.1722  0.3412  0.0888
17087W        W33348  16.617   6.155  12.153  0.0358 -0.0496 -0.0647
17088W        W33349  10.713   1.634   3.801  0.0584  0.0362 -0.1028
17089W        W33350   0.692   1.540  12.080  0.1937 -0.2625  0.0940
17090W        W33351  13.705  12.446   1.632  0.2104 -0.0904  0.3007
17091W        W33352   4.521   1.981   6.004  0.1115 -0.2214  0.3472
17092W        W33353   4.797   0.903   4.536 -0.0291  0.2644  0.3216
17093W        W33354   0.116   4.470   2.221 -0.0829  0.2192 -0.0534
17094W        W33355   2.780   7.180   2.130 -0.1497  0.3963  0.0079
17095W        W33356   6.824   5.058   2.753  0.2603 -0.0830  0.3149
17096W        W33357   1.429  14.330  12.595  0.3782 -0.1118 -0.0060
17097W        W33358   1.275  16.429  13.991  0.2909  0.2813  0.3341
17098W        W33359   8.121  10.862   3.460  0.1363 -0.1308  0.2516
17099W        W33360  17.658   3.901  12.239  0.1123  0.0945 -0.1148
17100W        W33361  13.074   6.439  16.184  0.0219 -0.1490 -0.0730
17101W        W33362  14.036   1.429   3.403  0.2647  0.1652 -0.0842
17102W        W33363   2.958   5.975   3.339 -0.0120  0.0546 -0.4056
17103W        W33364  13.018   4.145   0.362 -0.1116 -0.1080 -0.3625
17104W        W33365   9.698   4.258  13.575 -0.0686  0.0489 -0.1741
17105W        W33366  18.168   8.169   3.157  0.1395 -0.1908  0.1927
17106W        W33367  17.626   9.352   3.040  0.1841 -0.1646 -0.0273
17107W        W33368   7.021  15.254  12.277  0.3196  0.1475  0.2031
17108W        W33369   9.060  13.318   0.804  0.2689 -0.0018  0.2525
17109W        W33370   4.897  12.070  12.546  0.3920  0.0279  0.0499
17110W        W33371  17.918   5.987  11.891  0.0858  0.0841 -0.0281
17111W        W33372   1.943   5.560  12.270  0.1553 -0.1151  0.0047
17112W        W33373  13.282   5.538   1.441 -0.0604 -0.0862 -0.1400
17113W        W33374  16.187   8.383  12.861 -0.1537  0.1128  0.0388
17114W        W33375  12.775   8.855   4.375  0.1391  0.1407 -0.0499
17115W        W33376  11.021   9.786  10.422  0.1523 -0.0151 -0.0265
17116W        W33377   9.372   8.009   3.731 -0.1939  0.0574 -0.0728
17117W        W33378   2.024   2.534   6.640  0.1722  0.2662 -0.0942
17118W        W33379   1.707  12.071   0.829 -0.0775 -0.1602 -0.0647
17119W        W33380   5.350  13.903   1.752 -0.2758 -0.1235 -0.1806
17120W        W33381  17.254   0.523  16.089 -0.3077 -0.2932  0.0612
17121W        W33382  16.950   3.975   0.974 -0.2191  0.1617  0.3440
17122W        W33383  17.286   4.876   4.263  0.2413 -0.1589 -0.0380
17123W        W33384  14.487   1.780  16.093 -0.2710  0.1083 -0.0087
17124W        W33385  16.558   5.210  11.659  0.2707  0.0123 -0.0714
17125W        W33386   5.084  14.061  11.381  0.1068 -0.0540  0.1215
17126W        W33387   4.591   0.657  12.599 -0.0798  0.1579  0.3454
17127W        W33388   2.671   4.283   3.373  0.1566 -0.1205  0.2383
17128W        W33389   9.459   7.543  11.251 -0.2235 -0.0976  0.4045
17129W        W33390  12.433  12.829  13.155 -0.0147 -0.2948 -0.2365
17130W        W33391   0.460  11.628  13.563  0.2827  0.0110  0.0287
17131W        W33392   4.326  13.188   2.064  0.0051  0.0847 -0.2107
17132W        W33393  11.516   2.617  11.953 -0.0441  0.1324  0.2167
17133W        W33394  15.059   0.118  13.146 -0.5111 -0.2793 -0.2352
17134W        W33395  12.155  12.934  11.499  0.1126  0.1074 -0.0648
17135W        W33396  14.415   8.264  15.296 -0.2114  0.0648 -0.0436
17136W        W33397  10.620  11.928  14.147  0.0118 -0.0397  0.0431
17137W        W33398   2.783  18.269  14.950  0.0157  0.1709  0.1265
17138W        W33399  16.597  16.958   4.754 -0.2168 -0.0473  0.1398
17139W        W33400   0.228   4.109  12.807  0.3168  0.1004  0.1237
17140W        W33401  16.317   2.944  12.576  0.2989  0.1551 -0.4581
17141W        W33402  18.202  13.936   5.511  0.0063 -0.0934  0.1794
17142W        W33403   0.943   3.430  13.983  0.2217 -0.2441  0.1721
17143W        W33404   1.443  10.931  15.636 -0.1815  0.3100 -0.0555
17144W        W33405   3.110   0.254  15.083 -0.3753  0.2029 -0.2550
17145W        W33406   3.625   4.353   4.126  0.2670  0.1736  0.0150
17146W        W33407  10.174   2.045   2.027  0.1153  0.2911  0.0797
17147W        W33408  17.682   4.732   0.916 -0.1056  0.0927  0.2761
17148W        W33409   2.730   0.353   2.713  0.0615  0.0446 -0.1114
17149W        W33410   1.283   2.604   5.201  0.1635  0.0560 -0.0424
17150W        W33411   2.288   9.927  13.375 -0.1333 -0.1904 -0.1420
17151W        W33412  10.415   7.016  14.188 -0.3387 -0.0623 -0.0436
17152W        W33413  13.019  17.608  15.325  0.2953  0.2252  0.3722
17153W        W33414   0.697   8.977   1.262 -0.2126  0.0270  0.1010
17154W        W33415  13.588  14.334  14.582 -0.0207 -0.2287  0.0999
17155W        W33416  12.113   0.255  13.445 -0.1953 -0.0941  0.0464
17156W        W33417   3.346   5.747  14.114 -0.0965 -0.1499 -0.0540
17157W        W33418  17.175   0.696   2.571  0.0453 -0.1286  0.2581
17158W        W33419  10.528   9.703   9.870 -0.1224  0.0675  0.1025
17159W        W33420   6.993   7.478   4.276  0.0043 -0.1700 -0.1071
17160W        W33421  16.402  11.266   4.145  0.0850  0.2408 -0.0712
17161W        W33422  14.470  12.682  13.403 -0.2778 -0.0211 -0.2809
17162W        W33423   4.409   0.812   3.642 -0.1038 -0.0052  0.1740
17163W        W33424   0.605  12.444  12.835 -0.2922  0.1941 -0.0705
17164W        W33425  11.832  15.307   0.148 -0.2658  0.1057  0.3481
17165W        W33426   5.448   3.234  15.042  0.1064  0.0133 -0.3205
17166W        W33427   5.626   3.768  11.866 -0.0677  0.1833 -0.0854
17167W        W33428  10.505   4.078   3.620 -0.0625 -0.0651 -0.0358
17168W        W33429   9.261   9.192  15.227 -0.0224  0.0497 -0.2658
17169W        W33430  17.454   5.122  16.178 -0.1972 -0.0976  0.0436
17170W        W33431  18.185  11.486  13.423 -0.1846  0.1028  0.1026
17171W        W33432  13.929   5.332  11.434 -0.1202  0.1241  0.0422
17172W        W33433   0.858  12.351  15.920  0.2699 -0.1729 -0.0972
17173W        W33434  11.103   8.593  13.317  0.0856  0.2216 -0.0059
17174W        W33435  13.547  15.848   5.301  0.0688  0.1598 -0.0163
17175W        W33436   2.930   3.613   1.771 -0.0307 -0.1390  0.2225
17176W        W33437   8.303  12.767   3.929 -0.4078 -0.0729  0.3601
17177W        W33438   7.601   4.507  12.670  0.0735  0.0343  0.3806
17178W        W33439  16.389  10.288   3.656 -0.1736 -0.0777  0.4390
17179W        W33440   8.195   9.529   1.787  0.0020 -0.2086 -0.1934
17180W        W33441  17.970  14.447  13.337  0.0214 -0.1940  0.3076
17181W        W33442   6.982  10.484   3.194  0.1865  0.0473 -0.0246
17182W        W33443  11.891  14.812   3.755  0.0047  0.0513 -0.1885
17183W        W33444  15.391  11.220   1.980 -0.1338 -0.1299 -0.0470
17184W        W33445  11.275   4.482  11.960  0.1279 -0.0668 -0.0172
17185W        W33446  16.983   1.322   1.302  0.2061 -0.0489  0.2695
17186W        W33447  17.737   4.335  14.989 -0.0612  0.0401  0.0893
17187W        W33448   2.247   5.098   1.087 -0.1624  0.2239  0.0481
17188W        W33449  12.033   3.913  11.504 -0.0522  0.2510  0.0394
17189W        W33450   1.541   6.218   1.418  0.1186  0.1432  0.0055
17190W        W33451  13.980  17.869  14.556  0.1443  0.0438 -0.0002
17191W        W33452   7.585   9.967   2.176  0.2531  0.0459 -0.3479
17192W        W33453  11.727  18.328  13.118 -0.1712 -0.1060 -0.0797
17193W        W33454   9.836   2.255   2.963  0.2523 -0.2119 -0.2014
17194W        W33455   3.792  15.815   5.735 -0.0702  0.2355 -0.1172
17195W        W33456   1.409   5.726   3.910  0.3932 -0.3633  0.5446
17196W        W33457  13.198   3.083  13.922  0.1025  0.0791 -0.0613
17197W        W33458   4.157   5.516   0.020 -0.1583 -0.2989  0.1504
17198W        W33459   2.143   6.714  12.441 -0.0103  0.1276 -0.2445
17199W        W33460  13.815   1.875   1.358  0.0548 -0.1312  0.2044
17200W        W33461   5.004   1.263  14.593 -0.2460 -0.1407 -0.1494
17201W        W33462  10.865   4.216  12.165  0.0420 -0.1968  0.3201
17202W        W33463   5.410   0.033   3.253  0.0155  0.0449  0.0452
17203W        W33464  12.821  17.511  14.116  0.1000  0.0666 -0.2280
17204W        W33465   2.734   9.000   3.411  0.2992  0.1785  0.1109
17205W        W33466   5.736  17.763   4.800 -0.1136  0.1297 -0.0473
17206W        W33467  16.941   3.817   1.535  0.0650  0.1640 -0.2927
17207W        W33468   2.475   8.899  14.210 -0.0275  0.0580  0.1306
17208W        W33469  14.469  11.283   1.207  0.2966 -0.1733 -0.0861
17209W        W33470  10.892   8.817   0.478 -0.2242 -0.0066 -0.0283
17210W        W33471  11.160   2.330  11.589 -0.1912  0.1358  0.1108
17211W        W33472  10.467   6.621  13.784  0.0534 -0.3645  0.3074
17212W        W33473  14.438   1.918  13.031  0.0651 -0.1437 -0.3983
17213W        W33474   8.911   3.676  13.863 -0.2759  0.0979 -0.0695
17214W        W33475  10.067  12.175  12.563  0.0896  0.0261 -0.2067
17215W        W33476  17.417  13.516  14.901  0.1310  0.3579  0.0060
17216W        W33477   0.024   0.191   2.476  0.2991  0.1927  0.0465
17217W        W33478   9.993  12.661   4.057 -0.2597 -0.0892  0.0311
17218W        W33479  14.748  12.962   3.831 -0.0852 -0.0182 -0.0068
17219W        W33480  15.842  11.650   4.661  0.3303 -0.2837 -0.1068
17220W        W33481  13.979   9.917  13.928  0.1410 -0.0835 -0.1841
17221W        W33482   8.526  11.469   0.157 -0.3465 -0.3112 -0.1770
17222W        W33483  12.271   5.987   5.634  0.1873  0.1641 -0.1277
17223W        W33484  10.761  14.061   1.951  0.1607 -0.0254 -0.0786
17224W        W33485   6.177  10.896   4.654 -0.1309  0.0452 -0.2775
17225W        W33486   6.665   3.241   0.721  0.2106  0.2357 -0.2103
17226W        W33487   1.773   2.997  13.155  0.0758  0.0068  0.2514
17227W        W33488   7.535  15.739  13.062 -0.0284  0.3560  0.2590
17228W        W33489   0.114   1.683  16.012 -0.0322  0.1460 -0.3490
17229W        W33490   0.826  11.875   3.313 -0.0257  0.4452  0.0467
17230W        W33491  17.113  16.103   4.904 -0.1320  0.3009  0.2308
17231W        W33492  15.868   1.560   5.031 -0.0469 -0.0466 -0.1840
17232W        W33493   5.612   1.370   0.387 -0.1645  0.1991 -0.4834
17233W        W33494   9.386   1.749  15.998 -0.1711  0.2290 -0.0266
17234W        W33495   9.790  15.028  14.831 -0.1388  0.0198  0.1285
17235W        W33496   5.629   8.095   1.938 -0.1138  0.0062  0.0914
17236W        W33497   8.292   9.618  13.653  0.1407  0.2648 -0.1837
17237W        W33498   9.462  17.834  14.002  0.0462  0.2090  0.0677
17238W        W33499  11.937  11.126  14.160  0.0429  0.1106 -0.1416
17239W        W33500  18.323   7.923  14.198 -0.3264 -0.4104  0.0136
17240W        W33501  15.755   0.403  16.032  0.1462  0.1866 -0.0385
17241W        W33502   6.066   3.431   4.198 -0.1198 -0.0432  0.0671
17242W        W33503  13.780   2.648   4.344  0.1404  0.0169  0.1638
17243W        W33504   2.112   4.447  14.953 -0.0196  0.1382  0.1501
17244W        W33505   8.891  12.275  15.520 -0.0403  0.3893  0.1164
17245W        W33506   8.448   8.832  12.977 -0.0564 -0.0921 -0.2085
17246W        W33507  11.137  18.136  13.435 -0.1559 -0.1935 -0.3525
17247W        W33508   8.589  15.292  13.385  0.0796  0.2014 -0.1782
17248W        W33509   1.681  12.153  14.270  0.0892 -0.2477 -0.1971
17249W        W33510   6.173   1.043   2.589  0.0680 -0.2531 -0.1674
17250W        W33511   0.161   7.657   4.992 -0.3514  0.1309  0.0293
17251W        W33512   6.811  16.912  11.612  0.0464  0.0306  0.4509
17252W        W33513  10.505   5.863  12.404  0.3335  0.1342  0.1594
17253W        W33514   4.632   2.866   1.218  0.1773  0.1117  0.1959
17254W        W33515   7.919  16.941   1.217  0.0640  0.2504 -0.2348
17255W        W33516   0.215  12.901   4.724 -0.1248  0.1293 -0.2290
17256W        W33517   0.064  11.178   0.152 -0.1494  0.2184 -0.2734
17257W        W33518   6.820  16.929   3.097  0.0517  0.3200  0.2363
17258W        W33519  10.958  18.190   3.957 -0.1081  0.1244 -0.3903
17259W        W33520   5.608  12.190   1.980  0.0915 -0.4118  0.1129
17260W        W33521   5.752  17.150   0.850 -0.2390  0.2077  0.0170
17261W        W33522  17.530   7.434   3.638 -0.3144 -0.4463 -0.1640
17262W        W33523  11.692  15.791  11.758 -0.3031  0.0188 -0.1225
17263W        W33524  11.320   6.977   4.168 -0.0536  0.4469 -0.1223
17264W        W33525   1.377  12.167  12.063  0.0154  0.1754  0.0011
17265W        W33526  12.959  17.160   2.295  0.0233  0.1467  0.0795
17266W        W33527   9.092   2.964  12.746  0.4457 -0.2464  0.3230
17267W        W33528   8.107  12.167   1.387 -0.0289 -0.2054  0.0196
17268W        W33529  11.436   6.434  14.988  0.2047  0.2038  0.3783
17269W        W33530   1.971  12.915   5.578 -0.0687  0.1285  0.0651
17270W        W33531   3.803   3.794  15.731  0.0427 -0.2081 -0.0476
17271W        W33532  14.090   4.583  15.809 -0.0496 -0.0635  0.0967
17272W        W33533  12.603   3.846   1.156  0.1247 -0.1218  0.0457
17273W        W33534  15.677   2.028  14.099  0.0308  0.0882  0.1891
17274W        W33535  14.891   6.888   0.075  0.1988  0.2310 -0.2748
17275W        W33536   8.830   0.465  15.806 -0.1316  0.3930 -0.1735
17276W        W33537   4.405  13.832  14.726 -0.1401 -0.0199 -0.2705
17277W        W33538   3.597  18.176  13.303  0.0997 -0.2153 -0.0708
17278W        W33539  15.096   1.413  13.075  0.0654  0.1978  0.0522
17279W        W33540  10.824  10.830  11.669  0.0206  0.0905 -0.1900
17280W        W33541  14.026   5.975  11.668  0.2032  0.0334  0.1680
17281W        W33542  18.075   1.218  15.959  0.1393  0.2206  0.4635
17282W        W33543  17.259   4.609  15.738  0.0613 -0.1018 -0.0430
17283W        W33544   1.802  14.555  15.144 -0.0859  0.0844  0.0472
17284W        W33545  15.270  15.724   2.914  0.2581  0.0559  0.2166
17285W        W33546   0.734  17.678   2.588  0.0161  0.1621 -0.1149
17286W        W33547   6.849   1.276   2.706  0.2481 -0.0255  0.5057
17287W        W33548   4.101   8.883   1.648  0.0853 -0.0808 -0.1758
17288W        W33549   1.118  17.702  13.967 -0.0562  0.0011  0.0578
17289W        W33550   1.674   3.030  16.218 -0.2479  0.1378 -0.2054
17290W        W33551  11.404   3.244   4.926 -0.0249 -0.0332  0.1305
17291W        W33552   8.362  15.605   4.806  0.0441  0.5458 -0.2356
17292W        W33553  12.843   1.745   3.091 -0.0921  0.0400  0.0608
17293W        W33554   3.466  17.117   5.210 -0.0125  0.0690  0.1129
17294W        W33555  10.158   2.052   4.731  0.0006  0.0515 -0.1491
17295W        W33556   8.884   6.472   2.709 -0.5231 -0.1114 -0.0310
17296W        W33557   1.141  12.026  14.183 -0.0087  0.1561  0.1024
17297W        W33558  11.263   6.217  14.433 -0.1167 -0.0072  0.3588
17298W        W33559  15.576   3.966  13.262 -0.3303 -0.0756  0.1198
17299W        W33560   8.793  15.936   0.536 -0.0464  0.1518 -0.1577
17300W        W33561   5.676   3.446  13.482  0.2012  0.2184  0.2334
17301W        W33562  16.142   2.910   2.682  0.1222 -0.0215 -0.2286
17302W        W33563  13.643   2.029  12.281 -0.1838 -0.2159 -0.0586
17303W        W33564   4.137  16.990  15.276  0.2763 -0.0092 -0.5716
17304W        W33565   9.572   1.299  15.429  0.0498  0.0575 -0.1558
17305W        W33566   1.706  16.420  12.272  0.0759 -0.3451  0.1896
17306W        W33567   1.977   5.368  14.799  0.1364  0.0638  0.2935
17307W        W33568  11.805  11.492   0.877  0.1284  0.0361 -0.2052
17308W        W33569   7.839  16.772   0.266 -0.1250  0.2416 -0.1621
17309W        W33570  15.818  14.732   1.005  0.2067  0.0207  0.1321
17310W        W33571  10.615  18.023   3.647  0.1468 -0.2044  0.1257
17311W        W33572   4.705   0.220  14.145  0.0651  0.1357  0.4048
17312W        W33573   5.266   7.080   3.686  0.0350 -0.1132  0.2137
17313W        W33574   5.851   4.209  15.365  0.1471 -0.0979 -0.2354
17314W        W33575  14.843   7.509  13.190  0.0491  0.1825  0.2562
17315W        W33576   9.181   5.514   3.872  0.1475 -0.2323  0.0364
17316W        W33577  11.836  10.002   4.501 -0.1080  0.2194 -0.1477
17317W        W33578  13.002   7.159   3.150  0.2298  0.2220  0.1833
17318W        W33579   4.875  11.745  15.468  0.1693 -0.2376  0.1587
17319W        W33580  12.546   9.899   5.570  0.0959  0.0968  0.3347
17320W        W33581   5.671   1.142  14.571 -0.4309  0.3592 -0.2051
17321W        W33582  13.571   5.441  12.398  0.1868  0.1547  0.3248
17322W        W33583  14.601   1.725   4.034  0.2347  0.2196  0.1350
17323W        W33584   9.873   1.474  14.412  0.2344 -0.0772 -0.0448
17324W        W33585  15.891   2.133  11.924 -0.0590  0.1238 -0.0227
17325W        W33586  14.242  11.786   1.020  0.4431  0.2479  0.3412
17326W        W33587  15.093  13.939   6.021  0.1340 -0.2600  0.1726
17327W        W33588   3.555   9.135  12.319  0.3384 -0.1586  0.3096
17328W        W33589  12.268  14.406  11.496  0.3667  0.3456  0.0545
17329W        W33590   8.401   2.574  11.741 -0.2055 -0.0508  0.0516
17330W        W33591   0.598  12.357   2.232  0.1089  0.0453  0.0978
17331W        W33592  14.129   8.472   5.597 -0.1672 -0.0633 -0.3528
17332W        W33593   3.998   3.018  15.150  0.1043 -0.2906  0.2564
17333W        W33594  14.855  14.104   4.573  0.0944  0.0095 -0.0138
17334W        W33595  16.673   0.749  15.946 -0.3328 -0.0449  0.0900
17335W        W33596  18.110   6.883  15.802 -0.0453 -0.0539 -0.1220
17336W        W33597  10.882  13.790  12.468  0.1107  0.0196  0.3646
17337W        W33598   2.474  13.079   1.557 -0.2862  0.1239 -0.5439
17338W        W33599   5.520   9.440  11.552  0.1508 -0.1724  0.1619
17339W        W33600  17.758   8.445   4.966  0.0325  0.2467 -0.0212
17340W        W33601  10.482  14.683  15.308  0.1683 -0.1051  0.1993
17341W        W33602   4.999   3.448  15.220 -0.0559  0.2365  0.1544
17342W        W33603  10.327  10.977   3.283 -0.1313 -0.1691 -0.1255
17343W        W33604   2.155  18.234   4.528 -0.2174 -0.0682  0.2380
17344W        W33605   0.735   0.895  13.502  0.0388 -0.0953  0.1730
17345W        W33606   0.948  16.843  13.685  0.0741  0.1649 -0.1876
17346W        W33607   2.913  15.746  10.258  0.2425 -0.0343 -0.0910
17347W        W33608   9.985   8.492  15.405  0.1247  0.2706 -0.0993
17348W        W33609   5.339   8.548  15.539 -0.3161 -0.1766  0.1896
17349W        W33610  12.186  10.592  12.334  0.0923 -0.2229  0.1748
17350W        W33611   2.005  10.602   0.481  0.0498  0.2239 -0.1583
17351W        W33612   8.845   1.674   4.546  0.0045  0.0726  0.0138
17352W        W33613  11.015   6.117  16.237  0.1457 -0.0811  0.2354
17353W        W33614   3.362   7.891   2.239  0.1862  0.2742 -0.3556
17354W        W33615  15.567   4.529  13.194  0.0996  0.0543 -0.1237
17355W        W33616  12.935   4.931  15.428  0.0815  0.5064 -0.0173
17356W        W33617   6.890   8.347  15.041 -0.0328 -0.0752 -0.0839
17357W        W33618   8.725  10.057  11.905 -0.0134 -0.2618 -0.0517
17358W        W33619  10.062   2.384  12.397 -0.0844  0.2751 -0.1274
17359W        W33620  11.628  12.614   5.543  0.0940  0.1734  0.1296
17360W        W33621  16.856   9.156  15.358 -0.0917  0.2273 -0.0519
17361W        W33622  13.605  16.659   2.977 -0.2847 -0.3583 -0.0944
17362W        W33623  14.476  11.197   4.257  0.3840  0.0364  0.0444
17363W        W33624  16.857   5.356  13.985 -0.1084  0.0957  0.1986
17364W        W33625   3.609  15.126   0.472 -0.3543 -0.0972  0.4156
17365W        W33626  17.860  11.591  12.722  0.3287  0.0576 -0.1532
17366W        W33627   0.053  16.997   0.569 -0.1375  0.4102  0.1824
17367W        W33628   6.459   9.454  12.917 -0.1459  0.2040  0.1686
17368W        W33629   8.148  14.151  15.774  0.0862  0.4008  0.1164
17369W        W33630  12.633   7.801   1.369 -0.1945  0.1765 -0.1201
17370W        W33631  16.452   9.515   5.636 -0.1658 -0.2624  0.2418
17371W        W33632   5.094   0.520  13.213 -0.2355  0.2158 -0.0759
17372W        W33633   7.841  17.113  11.637  0.0993  0.0769  0.3266
17373W        W33634  13.051  18.232   1.337  0.0236 -0.2652  0.0130
17374W        W33635  16.898  17.073   3.124  0.2889 -0.2039 -0.0566
17375W        W33636  17.130   8.508  15.932  0.2587 -0.3137  0.0691
17376W        W33637   3.964   4.028  10.650 -0.3324  0.1763 -0.2679
17377W        W33638   4.223  14.697  14.611  0.0025 -0.2503 -0.0109
17378W        W33639   9.105   6.101  11.208  0.0233  0.0785 -0.0050
17379W        W33640   6.209  11.256   5.059 -0.0072  0.3470 -0.4502
17380W        W33641   5.628   7.873  13.528 -0.1744 -0.1508 -0.1349
17381W        W33642   8.546  12.813  16.287  0.1583 -0.1287 -0.3131
17382W        W33643   7.433  15.063   1.326  0.0446  0.0063 -0.0925
17383W        W33644   3.314   3.295   1.573  0.0094 -0.1538 -0.1998
17384W        W33645  18.151   7.635  11.868  0.1463 -0.0497  0.1048
17385W        W33646   2.445   4.114   3.871  0.1430 -0.0939 -0.0851
17386W        W33647   4.395   4.639  15.809 -0.0573  0.0401 -0.2592
17387W        W33648   6.223  13.142  11.910  0.0561 -0.0166 -0.0881
17388W        W33649  16.489  16.150  15.410 -0.4196 -0.2238  0.1178
17389W        W33650   1.797   0.952  15.878 -0.1010  0.1252 -0.2898
17390W        W33651   0.757  13.724   1.504 -0.2998 -0.0572 -0.0884
17391W        W33652  16.510  15.420  11.662  0.1559  0.1736 -0.1476
17392W        W33653   9.898   1.283  12.529 -0.0421 -0.0861  0.1577
17393W        W33654   5.051   8.125  15.601 -0.1029 -0.2139 -0.1451
17394W        W33655   0.906   4.656  14.769  0.5049  0.0626 -0.4532
17395W        W33656   0.036  12.338  14.677 -0.2731 -0.1445  0.1963
17396W        W33657   5.451  13.064   3.409 -0.1938 -0.3342  0.0089
17397W        W33658   8.129  10.571  14.462  0.4955  0.0503  0.1359
17398W        W33659  11.685  18.070   3.329  0.1144 -0.0961 -0.0128
17399W        W33660   5.524  10.687   0.747  0.2124  0.1452  0.0463
17400W        W33661   9.372  13.122  15.850 -0.0237 -0.1158 -0.2402
17401W        W33662  15.531  16.554   3.544  0.2166 -0.2078 -0.1968
17402W        W33663   9.418   1.047  14.950 -0.0348  0.0656 -0.0200
17403W        W33664   3.029  14.140   3.141  0.0178  0.0343  0.0109
17404W        W33665  11.540   2.745   4.941 -0.0605 -0.3491  0.0884
17405W        W33666   6.318   9.272  12.079  0.1543  0.2392 -0.1074
17406W        W33667  12.737  11.286  16.103  0.1194 -0.1990 -0.0469
17407W        W33668   5.569   7.196   4.059  0.1273 -0.1457 -0.0892
17408W        W33669   2.643   5.574   3.504 -0.1053 -0.1734 -0.3017
17409W        W33670   7.372  13.498  13.289  0.1029 -0.1104  0.1330
17410W        W33671  14.239   1.724   1.647 -0.0477  0.0874  0.1664
17411W        W33672   7.934  10.157   5.546  0.0306  0.1760 -0.0759
17412W        W33673  18.132  17.530   1.779 -0.3518  0.1524  0.0494
17413W        W33674   5.105   4.178  11.823 -0.3036  0.2768  0.4192
17414W        W33675   4.532   8.189   0.648  0.2246 -0.0244  0.0691
17415W        W33676   9.939  16.795   1.463 -0.1140  0.2207  0.1901
17416W        W33677  17.962  15.746  13.324  0.0637  0.2966 -0.1214
17417W        W33678   1.104  10.830   1.172 -0.0924  0.0904 -0.2029
17418W        W33679   7.893   9.927  11.623 -0.0243 -0.4831 -0.2428
17419W        W33680   5.820   8.129  12.546  0.0279 -0.3073  0.2011
17420W        W33681  15.284  13.521   5.793  0.3821 -0.0462 -0.0425
17421W        W33682   4.284   0.591   1.771 -0.0716 -0.1656  0.0260
17422W        W33683  10.697   6.057   1.004  0.0111  0.0630  0.4428
17423W        W33684   1.479  13.637  15.603  0.0219  0.0316  0.2029
17424W        W33685  17.373  10.903  14.730  0.0381 -0.0712 -0.1688
17425W        W33686  12.392  12.020  11.226 -0.3346 -0.3181  0.1280
17426W        W33687   8.702   3.630   4.128 -0.0845  0.1523  0.3301
17427W        W33688   3.031  15.929   2.786  0.1990 -0.1386  0.1065
17428W        W33689  13.482  17.211   2.903 -0.1415 -0.4008  0.0727
17429W        W33690  13.859   2.607  15.311 -0.0899  0.0981  0.1826
17430W        W33691  15.581  10.899  11.925 -0.0173 -0.3323 -0.0624
17431W        W33692  10.410  13.714   2.407 -0.2183 -0.0261  0.2528
17432W        W33693   5.254  14.901   0.607 -0.1078 -0.2958  0.1765
17433W        W33694  17.896  15.660   5.165  0.1565 -0.4136  0.1404
17434W        W33695  15.049   9.179  16.257 -0.0672 -0.1010 -0.0296
17435W        W33696   2.209   2.806   0.661  0.4000 -0.1734  0.1069
17436W        W33697   6.877  12.912   2.124 -0.2563  0.1616  0.1525
17437W        W33698  12.118   8.482  14.805  0.0971  0.2378 -0.1063
17438W        W33699   3.863   9.452  15.709  0.1133  0.0011 -0.1955
17439W        W33700   5.848   3.634   3.804  0.0404 -0.3862  0.0278
17440W        W33701   4.591   9.620  13.727  0.1739 -0.3645 -0.1253
17441W        W33702   7.140  15.607   5.907 -0.0732  0.4677 -0.3850
17442W        W33703   6.799   9.189  15.206  0.0666 -0.2335 -0.3162
17443W        W33704  17.639  13.524  13.824  0.2346  0.1153  0.2297
17444W        W33705  16.780   9.292   3.382 -0.0506 -0.2123 -0.1917
17445W        W33706  13.673   9.505   0.245 -0.0664  0.0174 -0.2250
17446W        W33707  13.620   0.841  14.084  0.0414 -0.1401 -0.0002
17447W        W33708   6.436  10.570  13.340 -0.1043  0.0746  0.1694
17448W        W33709   6.097  11.753   1.076 -0.3075 -0.0256  0.0663
17449W        W33710   1.681  16.101  14.117  0.0589 -0.0792  0.1864
17450W        W33711  14.946  15.610  11.168  0.3244 -0.2081  0.1129
17451W        W33712   6.848   2.380   1.731  0.0100  0.2966 -0.1932
17452W        W33713  16.872  14.577   1.554 -0.1126  0.2969 -0.1026
17453W        W33714  16.524   0.376   3.301 -0.2317  0.2290  0.2115
17454W        W33715  11.308  10.750  11.942  0.1537 -0.0544  0.0992
17455W        W33716   5.174   9.019  15.019 -0.2138  0.0772 -0.1620
17456W        W33717  18.090  11.818  11.867  0.1010  0.0251  0.1844
17457W        W33718   9.417   3.645   5.540  0.1762  0.0077  0.2212
17458W        W33719  13.918  17.015   2.675  0.1669  0.2687  0.1541
17459W        W33720   5.757  10.835  14.944  0.1021 -0.0461 -0.1778
17460W        W33721  17.655   2.304  13.881 -0.0970 -0.0268  0.0760
17461W        W33722   3.998   7.269  12.517  0.0629  0.2387  0.1815
17462W        W33723  14.791   9.341   0.949  0.1789  0.2041 -0.0360
17463W        W33724   1.215   3.095  13.132  0.2927  0.1491  0.0385
17464W        W33725  14.686   4.363   4.104  0.1134 -0.1797 -0.1659
17465W        W33726   2.021  15.449  12.246 -0.0218  0.0394  0.0603
17466W        W33727   8.109   0.597  13.510  0.1282 -0.0759 -0.2462
17467W        W33728  13.997   2.307   2.534 -0.2760 -0.4835  0.0037
17468W        W33729   4.024  14.520  13.674  0.2397  0.1178 -0.2752
17469W        W33730  10.995   9.244  14.095 -0.1248 -0.1819 -0.0932
17470W        W33731   5.096   0.277   0.934  0.0446 -0.3759 -0.1851
17471W        W33732   3.844   8.965  13.280 -0.3678 -0.1414  0.1519
17472W        W33733  17.819   0.787  15.196 -0.3234  0.1552  0.0586
17473W        W33734  12.299   5.957  14.530 -0.0512  0.0302 -0.0701
17474W        W33735   4.131  15.637   4.702  0.0820 -0.1455 -0.3053
17475W        W33736   3.605   9.094   0.531  0.1096 -0.0668 -0.3428
17476W        W33737  11.239  17.882   3.365 -0.1096  0.1751  0.1970
17477W        W33738   6.419  17.740  14.137 -0.2797  0.3057 -0.0399
17478W        W33739   4.704  15.498   3.651  0.0193  0.1744  0.0093
17479W        W33740   9.594   6.583   2.195  0.1790 -0.3423  0.0837
17480W        W33741   0.568  15.198  15.125 -0.0562 -0.1986  0.0815
17481W        W33742  10.910   5.394  14.661 -0.0223  0.0466 -0.1532
17482W        W33743   9.641   8.107  12.786  0.2404  0.2927  0.0193
17483W        W33744  15.541   4.205   4.136 -0.2427  0.0273  0.0268
17484W        W33745  13.786  11.872  11.709  0.1961  0.1399  0.2731
17485W        W33746  11.421   8.402  14.118 -0.1824 -0.1614  0.0546
17486W        W33747   9.576  10.948  14.089  0.2256 -0.2345  0.0858
17487W        W33748  17.979   2.982  15.644  0.0517 -0.0069  0.1694
17488W        W33749  10.212   0.069   4.983 -0.0637 -0.0249  0.0685
17489W        W33750  15.784  12.528   2.650  0.1329 -0.4359  0.1339
17490W        W33751  17.720   4.666  16.108  0.2099 -0.3024 -0.0404
17491W        W33752  16.675   9.780  12.365 -0.0035 -0.0010  0.1839
17492W        W33753  15.868  14.596   3.528  0.0347 -0.0064  0.1645
17493W        W33754  11.220  12.001  14.974  0.2611 -0.3677 -0.5488
17494W        W33755  16.734  17.315  14.788  0.2020 -0.0292  0.0399
17495W        W33756  16.870   4.006   5.070  0.0250  0.1917 -0.0530
17496W        W33757  10.783   8.195  13.605  0.0869 -0.1940 -0.2937
17497W        W33758   2.820   1.556  15.872 -0.0890  0.0691  0.1441
17498W        W33759   3.771  14.328   3.828 -0.2995  0.1035  0.3321
17499W        W33760  11.090  10.077  13.498 -0.0347 -0.2531  0.0176
17500W        W33761   3.631  15.370  13.273  0.0724  0.2213 -0.2987
17501W        W33762  13.701  14.601   1.895 -0.0322  0.0062  0.0421
17502W        W33763  10.264  16.318  15.805 -0.2712 -0.1486 -0.0655
17503W        W33764  14.343   8.903   0.658 -0.0545 -0.0769 -0.2090
17504W        W33765   2.535  14.648   5.027 -0.0507 -0.0228 -0.0931
17505W        W33766  12.131   2.332  15.823  0.0823  0.2616  0.1460
17506W        W33767   2.919  15.689  13.553 -0.0438 -0.1244  0.1075
17507W        W33768  15.993  14.093  13.916 -0.4041 -0.0314  0.1498
17508W        W33769   7.468  15.228  12.427  0.0167  0.0086 -0.1148
17509W        W33770  17.359   2.874  14.475  0.1308 -0.1654 -0.0148
17510W        W33771  13.742  14.997  11.960 -0.1672  0.0385 -0.2999
17511W        W33772   8.189  13.704  14.368 -0.1666  0.0290  0.0069
17512W        W33773   3.492  18.123   0.086 -0.0916  0.1657  0.0316
17513W        W33774  14.697   5.632  13.259  0.1295  0.0687 -0.1091
17514W        W33775  11.425  11.075  15.783 -0.1848  0.1046  0.2288
17515W        W33776  15.207   0.494  12.745  0.0259 -0.0161  0.0223
17516W        W33777   8.268   9.757  14.200 -0.2696  0.0605  0.1966
17517W        W33778   2.555  17.103   3.170 -0.2465 -0.1374  0.0265
17518W        W33779  13.180  16.689  15.355  0.0773 -0.0981 -0.0857
17519W        W33780  16.244  13.018   5.902  0.2686 -0.2451  0.0051
17520W        W33781   7.383  13.844   5.168 -0.0117 -0.3066  0.2998
17521W        W33782  17.253   0.931   2.984  0.0949 -0.0221 -0.1177
17522W        W33783  13.040  15.676   5.269 -0.0725 -0.0073  0.2952
17523W        W33784  13.453   5.007   5.520  0.1876 -0.1796  0.1853
17524W        W33785   1.926   3.214   2.005  0.0399  0.0885 -0.0589
17525W        W33786   0.804  15.235   0.638 -0.0784  0.1907 -0.2090
17526W        W33787   0.836   9.551   2.565 -0.1477  0.1895 -0.1028
17527W        W33788   3.871  13.891  11.908 -0.0453 -0.2375  0.2340
17528W        W33789   1.602  13.764   3.600  0.0766 -0.5412 -0.3428
17529W        W33790  15.033  16.369  14.094 -0.1961 -0.0604 -0.0013
17530W        W33791  10.384   8.190   1.041  0.0363 -0.1265  0.1053
17531W        W33792   8.775   7.439  12.813  0.2238 -0.0290  0.1717
17532W        W33793   5.626  13.367  13.833  0.0875  0.0220  0.1770
17533W        W33794   2.754   4.844   2.885 -0.0753 -0.0503 -0.0939
17534W        W33795  17.104   1.879   4.566  0.0139  0.0911  0.0504
17535W        W33796   4.143  14.892  15.934  0.0840 -0.0984  0.0231
17536W        W33797   8.247   3.545  15.339 -0.1643 -0.3035  0.1287
17537W        W33798  13.073  14.614  13.566 -0.0710  0.0222 -0.0382
17538W        W33799  11.914   3.946   2.247 -0.3214 -0.1945 -0.2211
17539W        W33800  14.398   9.431   2.828  0.2026 -0.1071  0.0984
17540W        W33801  16.408   0.636  15.156  0.0319  0.2177  0.3275
17541W        W33802  10.162  14.222  14.576 -0.2441  0.0620  0.1769
17542W        W33803   6.822  13.040   2.885  0.4976  0.0230  0.1469
17543W        W33804   0.723   2.770   1.026  0.0638 -0.0269  0.2689
17544W        W33805  18.349  12.719  12.751  0.1329  0.0082 -0.1144
17545W        W33806   3.569  10.668  16.199 -0.3100 -0.1133  0.2775
17546W        W33807  12.214  18.350   4.789  0.2074  0.0868  0.5691
17547W        W33808  12.113  17.289  12.026 -0.0877  0.1135  0.1524
17548W        W33809  13.783  13.339   4.142 -0.0367 -0.0702  0.3275
17549W        W33810   0.094   7.343  13.047 -0.1090 -0.1522 -0.2747
17550W        W33811  10.184   7.167  12.014  0.0535 -0.2436 -0.1773
17551W        W33812  13.662  10.428   0.778 -0.0767 -0.1367  0.0067
17552W        W33813   5.191  17.746  14.525  0.0241  0.0905 -0.0965
17553W        W33814   5.311  13.205   5.080 -0.0933 -0.0074  0.1436
17554W        W33815  16.801  17.057   4.178 -0.3050  0.4485 -0.1416
17555W        W33816   8.909  11.107  14.845 -0.2240 -0.1972  0.1663
17556W        W33817  16.355   5.399  13.142 -0.3022 -0.0771  0.1166
17557W        W33818  13.718   1.912   3.232 -0.2213  0.0313  0.2386
17558W        W33819   1.345  12.771  14.868  0.1123 -0.1861 -0.2518
17559W        W33820  11.937   4.777  10.885 -0.0514 -0.2129 -0.1174
17560W        W33821   4.909   4.854  11.865 -0.1054  0.2824  0.0212
17561W        W33822  13.687  16.269  15.600  0.2293 -0.1604  0.1801
17562W        W33823   3.378  13.126   3.238  0.1125 -0.2869  0.0379
17563W        W33824   4.038   3.132   5.845  0.1082 -0.1083  0.0732
17564W        W33825   2.429   4.463   2.076  0.0637  0.2224 -0.1046
17565W        W33826   5.010  10.542  11.182 -0.4138 -0.2283  0.0532
17566W        W33827   7.434   2.303   1.534 -0.1024 -0.1805 -0.0939
17567W        W33828   8.444   4.078   9.945  0.0911  0.1548 -0.1774
17568W        W33829  10.052   5.016   2.451 -0.1235 -0.1635 -0.2434
17569W        W33830  13.350  14.800   5.062 -0.0497  0.0468  0.5922
17570W        W33831   4.850   7.953  13.948  0.0134 -0.0334  0.4129
17571W        W33832  11.193   2.837   1.848 -0.3302 -0.3521  0.0371
17572W        W33833  18.066   3.517  15.908 -0.1160  0.2578 -0.1607
17573W        W33834  16.759  15.355   0.229 -0.1105 -0.0225 -0.1375
17574W        W33835  15.569  17.169  12.278 -0.1669 -0.0496 -0.1143
17575W        W33836   2.937  16.212   2.285  0.1015 -0.2915 -0.0073
17576W        W33837   3.551   8.599   2.883 -0.2285 -0.3713 -0.3803
17577W        W33838   3.722  14.134  15.566  0.1610 -0.1344 -0.0261
17578W        W33839   2.022  10.832  12.500  0.1104 -0.0153  0.2498
17579W        W33840   6.374   4.151  13.428 -0.4813  0.0952 -0.1322
17580W        W33841  11.710   5.424  14.085 -0.0634 -0.0669 -0.1168
17581W        W33842  17.070  17.662  12.283  0.0316 -0.1424  0.0804
17582W        W33843   5.443  13.305  11.475 -0.1042 -0.0014  0.1579
17583W        W33844   4.177   6.039  13.144 -0.0386  0.1449 -0.1274
17584W        W33845   3.251   4.709  11.043 -0.0551  0.0951  0.4049
17585W        W33846   1.276  15.335   3.607 -0.1885  0.0734  0.0366
17586W        W33847   9.473  17.951   1.130 -0.0505 -0.1871  0.0424
17587W        W33848  14.362   7.002  14.995 -0.2534  0.2894 -0.1684
17588W        W33849   8.205  16.164   4.977  0.2307 -0.2484  0.0571
17589W        W33850  10.326  11.117   2.752 -0.1362  0.3538 -0.1592
17590W        W33851  12.282   4.846  14.437  0.1816 -0.2271 -0.0786
17591W        W33852   9.324  18.366  13.276 -0.2003 -0.0627  0.3592
17592W        W33853  17.456   1.242   3.947  0.2384 -0.1108 -0.0863
17593W        W33854   2.116  16.451   1.611 -0.0659 -0.2758 -0.1339
17594W        W33855   9.102  18.359  12.855  0.0777  0.1021 -0.1515
17595W        W33856  14.000  15.073   1.945  0.5395 -0.0973  0.1197
17596W        W33857  12.910   6.983   0.528 -0.3127  0.2441  0.1102
17597W        W33858   0.539  14.767  12.383  0.0232 -0.0369 -0.0394
17598W        W33859   2.136   3.171   3.402  0.0776 -0.2027 -0.1019
17599W        W33860  18.111  15.166   1.553 -0.1967  0.1363 -0.0643
17600W        W33861  13.225  10.432   4.622 -0.0289  0.2469 -0.0474
17601W        W33862  15.798  10.084  13.350  0.2453 -0.0193 -0.2813
17602W        W33863  16.458  14.976  15.972 -0.2787 -0.1910  0.1836
17603W        W33864  11.909  16.755  15.543 -0.0013 -0.0500 -0.1246
17604W        W33865   4.191   0.233  12.262 -0.1341  0.0336 -0.0394
17605W        W33866   3.442   6.143   2.024 -0.1825 -0.0097 -0.0261
17606W        W33867  16.143   8.040   1.531 -0.0958  0.1660  0.3369
17607W        W33868   2.488   7.052  15.180 -0.2019  0.0553  0.2703
17608W        W33869  13.920  14.366  12.745 -0.3348  0.2238 -0.1686
17609W        W33870   7.202  12.599   4.044 -0.1202  0.1541  0.2098
17610W        W33871  10.192  13.850  14.859 -0.1912  0.0093 -0.1058
17611W        W33872   4.518   2.095   0.086  0.1517  0.0174 -0.0570
17612W        W33873   7.493  14.280   1.661  0.0261  0.1228 -0.0721
17613W        W33874  17.006   5.860   1.170  0.0145  0.0971 -0.2660
17614W        W33875  10.138  18.003  11.844 -0.5153 -0.1443  0.1100
17615W        W33876   9.557   5.514  12.476  0.1191  0.1471 -0.0876
17616W        W33877   1.278  17.596  12.646  0.1376 -0.0599  0.0191
17617W        W33878   0.442   7.326   2.078 -0.1273 -0.0739  0.3177
17618W        W33879   3.944  12.129   3.626  0.0354  0.3130  0.1487
17619W        W33880   9.304  10.623  12.970 -0.3068  0.0176 -0.2824
17620W        W33881   0.757  15.587   3.600 -0.2618  0.2636 -0.1584
17621W        W33882  15.025  10.429   2.495  0.2141 -0.3285 -0.1691
17622W        W33883  13.383  14.086   0.617  0.0011  0.2146 -0.0973
17623W        W33884   7.830   2.080   4.408 -0.1846 -0.2213 -0.1237
17624W        W33885  16.239   3.864  12.466 -0.0703 -0.1386  0.1018
17625W        W33886   3.830  15.888   2.291  0.1710 -0.0377 -0.1308
17626W        W33887   7.503   2.555  13.822 -0.4930 -0.1360 -0.1965
17627W        W33888  16.681   4.049   4.084 -0.1159  0.1797  0.0233
17628W        W33889  12.674   7.616  15.974 -0.2138 -0.0612 -0.0875
17629W        W33890  12.468   7.639   2.455  0.2073  0.3926  0.0001
17630W        W33891   6.699  15.670   2.507  0.0125  0.0121  0.1459
17631W        W33892   3.684  11.213   4.047  0.1291  0.1500  0.1142
17632W        W33893   1.462   4.956   2.853 -0.5473 -0.0958 -0.1246
17633W        W33894   8.657   4.629   0.682 -0.0294  0.0170 -0.1644
17634W        W33895   0.484   4.944   3.442 -0.0266  0.1400 -0.0572
17635W        W33896   6.862  10.722   0.741 -0.0904  0.0144 -0.0815
17636W        W33897  10.345  11.889  14.689 -0.0314 -0.2094  0.0963
17637W        W33898  10.422   3.293  11.221  0.2142  0.2505 -0.0090
17638W        W33899  18.327   6.791  11.517 -0.1470 -0.1167  0.1033
17639W        W33900   2.158   8.165   1.324 -0.1526 -0.2103 -0.0808
17640W        W33901   9.891   2.166  11.166  0.1713  0.2661  0.1935
17641W        W33902   5.870   4.466   3.424 -0.1323 -0.1639  0.1918
17642W        W33903   2.648   5.455   2.064 -0.3293 -0.1318 -0.1128
17643W        W33904  11.498  10.948  13.905  0.0132  0.2080 -0.0243
17644W        W33905   7.474  11.711   1.902 -0.0649 -0.3397  0.2028
17645W        W33906   6.398   7.074   3.019  0.1736 -0.0937 -0.0968
17646W        W33907   7.471   2.861   2.204  0.2707 -0.1211 -0.1960
17647W        W33908  15.170   3.927  15.377  0.1176 -0.1140  0.1368
17648W        W33909   6.071   3.988  11.634  0.3781  0.4235 -0.1522
17649W        W33910   9.667   7.031  12.375 -0.2146 -0.2479  0.3572
17650W        W33911  12.823   0.789   0.347  0.0106  0.0046 -0.1641
17651W        W33912   2.918  12.294  12.108  0.1326 -0.1101 -0.1575
17652W        W33913  14.368   2.265  12.705 -0.1567  0.1167  0.0255
17653W        W33914  16.006   4.095  14.768 -0.1476 -0.6005 -0.0245
17654W        W33915   4.956  17.440  13.884 -0.1267 -0.0424 -0.1090
17655W        W33916  13.513  12.528   3.610  0.2251  0.0453 -0.0500
17656W        W33917  18.144   2.560   2.350 -0.0935 -0.4853 -0.0944
17657W        W33918   6.239  16.802  14.141  0.5289 -0.1899  0.0604
17658W        W33919  14.426   3.063   2.933 -0.1883 -0.1020 -0.1013
17659W        W33920   0.996  13.224  11.629 -0.2169  0.1308  0.1346
17660W        W33921   2.040  14.512   3.831 -0.0747  0.3214  0.0500
17661W        W33922   3.086   7.762  15.299  0.0729  0.1226  0.2964
17662W        W33923  17.464   5.626   2.615  0.0661 -0.1350  0.1661
17663W        W33924   8.368   5.011  14.320  0.0385 -0.2501  0.2044
17664W        W33925  17.218   4.462  13.832  0.0554  0.0533 -0.0564
17665W        W33926  11.607   7.947  13.224 -0.0078  0.0754  0.1477
17666W        W33927  14.456  14.136  14.751  0.1909 -0.0137 -0.1873
17667W        W33928   6.606   4.887   1.918  0.1114  0.1776  0.2373
17668W        W33929   9.704   4.544  13.013 -0.0077 -0.0657 -0.0519
17669W        W33930  10.045   9.008   2.591  0.0079  0.3763  0.3308
17670W        W33931   2.064   3.187   3.927  0.3078 -0.1723  0.5025
17671W        W33932  10.660  14.384  13.389  0.0390  0.0178  0.0921
17672W        W33933   1.729  12.567   5.932 -0.3366  0.1507  0.0502
17673W        W33934   4.523  16.154  12.968 -0.1240  0.0677 -0.0936
17674W        W33935   1.808  16.486   2.567 -0.0045  0.2946 -0.0932
17675W        W33936   2.806  14.077  14.492 -0.2095 -0.0322 -0.1925
17676W        W33937  11.977  16.938   0.335 -0.1851  0.0005  0.4238
17677W        W33938  17.858  13.339   0.613 -0.1094  0.2420 -0.1782
17678W        W33939   7.970   7.245  15.821  0.1626  0.0772 -0.1239
17679W        W33940   2.924   2.224   4.101 -0.0297  0.0569  0.1036
17680W        W33941   7.771  15.337  16.152 -0.0475  0.0666  0.1563
17681W        W33942   5.492  14.171  10.979 -0.0528  0.0275 -0.0747
17682W        W33943   6.964   7.585   2.601  0.0268  0.3193  0.0865
17683W        W33944   2.424   0.954   3.378  0.2710  0.0494 -0.4094
17684W        W33945  13.098  10.995  15.906  0.3524  0.0975  0.0322
17685W        W33946  12.637  14.206   4.303 -0.1384  0.1836  0.1045
17686W        W33947  11.029   0.137  12.069 -0.1298  0.2233 -0.1309
17687W        W33948   9.807  14.003   1.835  0.1477 -0.1168 -0.0591
17688W        W33949   8.498   6.001  13.084  0.1754  0.0025  0.0948
17689W        W33950   8.146   7.599   1.652 -0.1059  0.0226  0.0416
17690W        W33951   4.840   8.609  16.033 -0.1118  0.0095  0.1450
17691W        W33952  17.401   8.050   2.838 -0.3684  0.0378  0.1118
17692W        W33953   4.004   5.494  10.677  0.1355  0.4407 -0.1139
17693W        W33954  18.325   8.636   2.897  0.0794 -0.1334  0.1395
17694W        W33955  16.556   1.635  13.128 -0.0242  0.1703  0.1212
17695W        W33956   2.798   3.255  15.380  0.2325  0.2241  0.1860
17696W        W33957   7.045   5.673   3.593  0.0341  0.0989 -0.0188
17697W        W33958   7.158  15.525   4.578 -0.0566  0.1149  0.1094
17698W        W33959   7.763  15.425  14.068 -0.2859 -0.0260  0.3022
17699W        W33960   3.830   5.275   1.154 -0.2417  0.1730 -0.0089
17700W        W33961  10.340  15.800  14.872 -0.0381  0.0152  0.0143
17701W        W33962   3.230   3.883  15.948  0.1190 -0.0184  0.2447
17702W        W33963  10.218  15.945  13.246 -0.0691  0.1399  0.0272
17703W        W33964   5.189  11.998  14.269  0.0297  0.0234  0.3013
17704W        W33965  15.924   9.624  11.769 -0.2168 -0.0402  0.1629
17705W        W33966   7.379   7.292  13.133 -0.0655 -0.0024 -0.4511
17706W        W33967  16.938   2.036   3.599  0.0581  0.3021 -0.0723
17707W        W33968  10.290  16.741  11.493 -0.4309 -0.2929  0.1844
17708W        W33969  12.430   9.159   4.462  0.0512 -0.1138  0.2704
17709W        W33970   4.088   0.907  12.682 -0.0316 -0.2702  0.0982
17710W        W33971   2.302  13.257   0.470  0.0556 -0.2093  0.3741
17711W        W33972  18.259   6.700   3.052  0.0820  0.0046  0.1434
17712W        W33973   9.722   1.737   4.759 -0.0977  0.2043  0.3645
17713W        W33974   2.273   2.129   1.394 -0.1874 -0.1702 -0.0029
17714W        W33975  13.268   9.584   2.969  0.1818 -0.0178 -0.2505
17715W        W33976   1.040   1.858  14.492  0.0304  0.1744 -0.2732
17716W        W33977  13.228  12.133   3.698  0.0520  0.0962 -0.0211
17717W        W33978   5.522   8.833   4.611  0.0490  0.4279 -0.0802
17718W        W33979  11.561  14.030   5.257 -0.1491  0.3192 -0.0670
17719W        W33980   0.238  18.370   5.563 -0.0839 -0.1610  0.0353
17720W        W33981  17.147  17.054   4.998  0.2085 -0.2359 -0.0079
17721W        W33982  13.988   3.426   2.342 -0.1190 -0.2171 -0.1884
17722W        W33983  15.097  10.321   4.800  0.0794  0.0671  0.3344
17723W        W33984   2.588  14.021   5.320 -0.5014  0.2499  0.1193
17724W        W33985  16.026   7.670  15.514  0.2738  0.1630  0.0775
17725W        W33986   3.960  10.079   5.012 -0.2361  0.0203  0.0026
17726W        W33987  14.541   3.332  14.330  0.1901 -0.2376 -0.0954
17727W        W33988  17.271   9.106  13.388  0.1119 -0.3604  0.3825
17728W        W33989  13.600  11.479  14.007 -0.2722 -0.1717  0.0996
17729W        W33990   1.232   0.599   3.965 -0.2861 -0.2040 -0.1908
17730W        W33991  12.579  12.406  15.436 -0.1510 -0.4253  0.3101
17731W        W33992  12.035  12.551  15.553  0.1851  0.0917  0.0889
17732W        W33993   5.226  11.842  12.962 -0.3731 -0.0350  0.0147
17733W        W33994   7.807  16.139  15.849  0.4197 -0.0936 -0.0001
17734W        W33995  17.854  17.468  15.572 -0.0747  0.2189 -0.3882
17735W        W33996  12.031   4.426   2.912  0.0564  0.1160 -0.2404
17736W        W33997  10.811   6.302  14.762  0.2257 -0.2921  0.0860
17737W        W33998  10.819  12.313  13.835  0.0738  0.2180 -0.1562
17738W        W33999  15.511   9.894  14.653 -0.3003 -0.2528  0.1109
17739W        W34000   4.729  11.910   5.358 -0.3152 -0.1581 -0.0396
17740W        W34001  16.470   3.217  14.270 -0.3573  0.0877  0.0249
17741W        W34002  11.969   7.445   3.444  0.0860  0.1764  0.0424
17742W        W34003   5.872  14.922   4.046  0.0553 -0.0650  0.0974
17743W        W34004  13.250   6.604   0.294  0.0723 -0.0040 -0.0096
17744W        W34005  17.041   1.392  11.847  0.0022  0.1258 -0.2521
17745W        W34006   6.816   5.495   3.009 -0.3091  0.0285  0.2281
17746W        W34007   8.588   1.999   5.634  0.3142 -0.2244  0.0586
17747W        W34008  10.104  17.523  12.059  0.1993 -0.1047  0.1125
17748W        W34009   5.487   5.219  14.970  0.0047 -0.2571  0.1030
17749W        W34010  13.366  16.321   1.253  0.2713 -0.0197 -0.0226
17750W        W34011  14.710   9.192  12.316  0.1090 -0.0009 -0.1834
17751W        W34012   6.146  14.884  13.444 -0.1069  0.3136 -0.1659
17752W        W34013   8.772  11.549   0.691 -0.0038 -0.2075  0.1642
17753W        W34014  16.189   1.367   4.724  0.0057 -0.2066 -0.1007
17754W        W34015  18.246  17.771   3.204  0.1264  0.0567 -0.0519
17755W        W34016   4.144  16.089   2.740 -0.0395  0.1195 -0.0941
17756W        W34017   6.413  18.090   4.168  0.0776 -0.2273 -0.0381
17757W        W34018   9.511  11.146   2.597  0.1012  0.1457 -0.2761
17758W        W34019  13.543   0.274   5.910 -0.0426  0.0516 -0.1390
17759W        W34020  10.538   7.366  11.365 -0.0325 -0.0361 -0.2191
17760W        W34021  16.854  12.875   5.891 -0.0840 -0.1213 -0.2167
17761W        W34022  11.329   8.190  12.915  0.1793 -0.1167 -0.1107
17762W        W34023  14.110  13.082   5.397 -0.1422 -0.2422 -0.0336
17763W        W34024  14.727  16.504   5.558 -0.2353  0.2307  0.0256
17764W        W34025   2.407  12.307   2.617 -0.0563 -0.0221  0.1162
17765W        W34026  10.765   3.633  14.097  0.2712 -0.0022  0.1092
17766W        W34027   4.008   9.605  13.938  0.4688 -0.0024 -0.0178
17767W        W34028   0.954  15.556  14.096  0.0673  0.0689  0.2938
17768W        W34029   5.858  10.829  15.979 -0.2043  0.1995 -0.0838
17769W        W34030   1.773   4.077  13.648 -0.2032  0.2505  0.0304
17770W        W34031  15.453   1.728   5.500 -0.1247 -0.5004 -0.1756
17771W        W34032   2.438  17.331  12.989 -0.1330 -0.2199  0.0434
17772W        W34033  15.940  13.387   4.184 -0.1932 -0.0005 -0.1289
17773W        W34034  13.418  16.563   3.614  0.1159 -0.1597 -0.1601
17774W        W34035   9.555   0.529  13.167  0.0629 -0.4490  0.3384
17775W        W34036  17.060   4.744  15.158 -0.1212  0.0438 -0.0783
17776W        W34037  17.325   4.475   1.995 -0.0114  0.0687  0.0849
17777W        W34038  11.044  16.298  12.679 -0.0381  0.0312 -0.0115
17778W        W34039   3.824  10.580  11.717  0.1320  0.3404  0.0121
17779W        W34040  16.557   7.744   0.881 -0.0778 -0.3840  0.0087
17780W        W34041   2.655   5.750   4.672 -0.0862  0.0727 -0.0061
17781W        W34042  11.819   0.596  11.597  0.0699  0.0876  0.0910
17782W        W34043   6.403  18.196  13.150  0.0933  0.2563  0.2665
17783W        W34044   3.587   6.000   0.043 -0.2677  0.0721 -0.1290
17784W        W34045  14.661   8.908  13.084  0.2033 -0.1286  0.2651
17785W        W34046   4.863   8.633   5.335  0.2012  0.1376  0.0335
17786W        W34047   9.310  14.473  15.636 -0.0255  0.0319  0.0567
17787W        W34048   0.467  14.619  13.698 -0.2510  0.1556  0.1587
17788W        W34049   8.414   5.174   0.598 -0.4244 -0.2783 -0.0506
17789W        W34050   3.813  16.932   4.436  0.1661 -0.0099 -0.2631
17790W        W34051   5.629   0.094   3.830 -0.1232  0.2254 -0.3456
17791W        W34052  17.901  15.661  14.089  0.2208  0.0026 -0.2168
17792W        W34053  14.301   1.907   5.906  0.2384  0.0221 -0.2976
17793W        W34054  12.023   1.131   2.339  0.0470  0.0668 -0.0579
17794W        W34055  14.966   4.637  15.238  0.0624  0.0120 -0.1369
17795W        W34056   9.515  14.725   3.393 -0.0524 -0.1014 -0.1551
17796W        W34057   0.261   4.493   2.733 -0.0447 -0.1927 -0.0975
17797W        W34058   9.627   0.527   5.113 -0.1248 -0.3260  0.4359
17798W        W34059   1.078   6.906   2.498 -0.0039 -0.1753  0.3240
17799W        W34060  16.912   6.037   2.735 -0.0350  0.0561  0.2351
17800W        W34061   0.312   4.469   3.297  0.2470 -0.2791  0.0623
17801W        W34062   2.043   0.981   1.229 -0.0623 -0.0509  0.0158
17802W        W34063   3.156   8.737   2.255  0.2962 -0.2387 -0.2387
17803W        W34064   2.828  10.218   1.887 -0.2114  0.1315 -0.3351
17804W        W34065  13.324   1.141  13.098  0.0679  0.2741 -0.3080
17805W        W34066  18.218  10.635  13.824  0.1367  0.2492 -0.0996
17806W        W34067   1.017  13.467  12.705 -0.2965 -0.0661  0.3132
17807W        W34068  11.511   9.103  12.203  0.0229 -0.0324 -0.1380
17808W        W34069  17.718  17.067   3.268  0.2214  0.0702 -0.1622
17809W        W34070   6.049   2.876   5.540 -0.1830  0.0670 -0.0448
17810W        W34071   4.626  11.549   0.642  0.0438  0.0569 -0.1296
17811W        W34072   9.373  13.488  12.610 -0.0991  0.1701  0.1380
17812W        W34073  10.974   9.716  13.876 -0.0337  0.0684  0.2128
17813W        W34074  11.052  17.314   0.603 -0.0965  0.4284  0.1643
17814W        W34075  11.452  17.735   0.883  0.0995  0.0451 -0.0440
17815W        W34076   6.105   7.681   2.086  0.2083  0.1459 -0.2967
17816W        W34077   5.392   0.909  13.069  0.3040 -0.0677 -0.1046
17817W        W34078  13.815   0.435  16.209 -0.1150  0.1559 -0.0610
17818W        W34079  10.661  18.121  15.490  0.0150 -0.2785 -0.4329
17819W        W34080   7.871  11.533  11.038 -0.2753 -0.4426 -0.0076
17820W        W34081   6.605   0.523  13.555  0.1649  0.0639  0.2062
17821W        W34082   7.239  13.618   0.419  0.2127  0.1158  0.1569
17822W        W34083   4.256   7.488  14.189  0.0143  0.2826 -0.0928
17823W        W34084  14.734   8.996   3.993 -0.2849  0.0765  0.0462
17824W        W34085   1.320  11.910   0.242  0.0944  0.2177  0.0022
17825W        W34086   0.763   3.026   2.016 -0.1947  0.1201 -0.0014
17826W        W34087  17.265  12.179  14.102 -0.1972  0.0684  0.0418
17827W        W34088   9.655  17.827  11.679 -0.0977  0.0315 -0.1772
17828W        W34089  14.696  18.044  13.882  0.0058 -0.0094 -0.0609
17829W        W34090   8.673  14.108  15.468 -0.2067 -0.1770 -0.1838
17830W        W34091   2.406  14.263  11.844 -0.2933  0.2516 -0.0042
17831W        W34092   0.512   9.693   0.558 -0.2693 -0.2165 -0.1349
17832W        W34093   0.231  16.136   1.732  0.2146 -0.0524 -0.1273
17833W        W34094  11.699   4.415  11.643 -0.0655 -0.0403 -0.1594
17834W        W34095  15.205   7.397   2.724 -0.2219  0.0248 -0.1509
17835W        W34096   0.093   8.643   4.547 -0.0378 -0.1020 -0.0858
17836W        W34097   1.266   2.123   2.836 -0.2314  0.2371  0.1443
17837W        W34098   0.382  16.256  15.248  0.1161 -0.1778  0.3388
17838W        W34099  15.501  15.845  11.980 -0.1241 -0.3485  0.5528
17839W        W34100  16.393   1.180  12.892  0.0138  0.3939  0.0461
17840W        W34101  15.553  15.635  16.082 -0.1419 -0.2166 -0.1100
17841W        W34102   5.805  17.011  13.674  0.2741  0.1493 -0.1924
17842W        W34103   0.417   0.484  11.909 -0.3598 -0.2800 -0.0368
17843W        W34104   5.562   7.523  12.543  0.2288 -0.0308  0.0317
17844W        W34105  13.755  15.469   2.752 -0.1364  0.0719 -0.1122
17845W        W34106  16.954   3.273  15.384  0.0037 -0.1766  0.1495
17846W        W34107  10.087  14.384   1.313  0.1306  0.2093  0.2743
17847W        W34108   5.627  11.611   3.467  0.1961  0.2631  0.1163
17848W        W34109  12.339  16.012   4.153  0.0376 -0.0937  0.0465
17849W        W34110  14.320   5.453  11.756 -0.0757  0.2580 -0.2766
17850W        W34111  15.769   5.050  15.892  0.2680  0.2850 -0.0017
17851W        W34112  18.278  13.918   0.232  0.0096 -0.2659  0.0002
17852W        W34113  13.408  15.021  14.929 -0.1671  0.0801 -0.0287
17853W        W34114  13.285   4.113  14.877 -0.3109  0.0163  0.1963
17854W        W34115  17.341  15.019  13.174  0.1235 -0.1845 -0.1202
17855W        W34116  13.668  12.520  15.135  0.0127  0.4355 -0.1429
17856W        W34117  10.600   7.454   0.536  0.0362 -0.0552  0.3361
17857W        W34118  13.668   3.442   4.579  0.0337  0.0723  0.0543
17858W        W34119  11.635  11.821  10.787 -0.1702  0.0728  0.0060
17859W        W34120  15.350   7.757  14.579 -0.1301 -0.1313  0.1130
17860W        W34121  15.579   0.900  14.129  0.0212 -0.2761 -0.2031
17861W        W34122  10.393   1.507  15.317 -0.1688 -0.0392 -0.4580
17862W        W34123  11.555  18.320  14.108 -0.3386  0.0283 -0.2142
17863W        W34124   2.524   3.824   0.367 -0.1754 -0.5283 -0.3675
17864W        W34125   9.999   7.195   3.714 -0.1694 -0.2382 -0.3502
17865W        W34126   4.266   6.456  16.242  0.0392 -0.0878 -0.2208
17866W        W34127   8.386   0.071   4.793 -0.0427  0.0518  0.1055
17867W        W34128   0.815   3.922  15.404  0.0761  0.1856  0.3084
17868W        W34129  17.077   1.486   1.762  0.5649  0.0374  0.1852
17869W        W34130   3.360   9.513  14.574 -0.1067 -0.2603 -0.0221
17870W        W34131   2.690  13.680   4.334  0.0029 -0.0761  0.1166
17871W        W34132   5.329   5.627   3.992  0.3811 -0.0557 -0.1584
17872W        W34133   3.977   7.789   0.343 -0.2258 -0.1233  0.0575
17873W        W34134  16.277   1.035   0.587 -0.3343 -0.0803 -0.0697
17874W        W34135  12.547   9.473   3.443 -0.1909 -0.0348 -0.0803
17875W        W34136  17.848   3.789   2.857 -0.0380  0.3849  0.0252
17876W        W34137  18.074  12.946   0.303  0.0140 -0.0691  0.0823
17877W        W34138   9.444   2.092  12.236  0.1117  0.0198  0.3002
17878W        W34139   5.707   1.272  13.123 -0.1595  0.2474  0.1813
17879W        W34140  10.472   4.062  11.938 -0.2186 -0.0135 -0.1371
17880W        W34141   7.954   5.831   2.582  0.0910 -0.1532 -0.1059
17881W        W34142   4.495   0.228  11.894  0.1360  0.3606 -0.2262
17882W        W34143  11.456  10.815   5.045  0.0640  0.3812  0.3488
17883W        W34144   8.018  17.242  15.708  0.3294  0.1939 -0.0252
17884W        W34145   1.968  16.672   5.455 -0.3621 -0.1383  0.2504
17885W        W34146   1.751   5.727  14.486  0.1911 -0.1242 -0.0946
17886W        W34147  12.459  18.141  12.208  0.0642  0.2123 -0.2314
17887W        W34148  13.715  16.917  11.391 -0.0158  0.0966  0.2989
17888W        W34149   2.030  12.564  13.171  0.0862  0.3874  0.0447
17889W        W34150   3.445   5.821   5.269 -0.2365  0.0997  0.1521
17890W        W34151   5.004  11.685   4.032 -0.1440  0.3225 -0.1957
17891W        W34152   1.819   4.514   5.146  0.4161 -0.2286 -0.1414
17892W        W34153   1.584  16.845  15.404  0.0427 -0.1255  0.3162
17893W        W34154  15.846  14.963   5.476 -0.0705 -0.0972 -0.3827
17894W        W34155  10.138   3.648  12.919  0.0110  0.2522  0.3744
17895W        W34156   3.669  12.168   4.255  0.3262  0.0512 -0.1375
17896W        W34157   9.560  15.457  12.201  0.2551  0.1359 -0.2132
17897W        W34158   4.704   8.561  12.457 -0.0861  0.0402 -0.3479
17898W        W34159   1.821   4.910   4.186 -0.2047 -0.0062  0.3928
17899W        W34160  16.651  11.972   5.285 -0.2636 -0.0558 -0.0642
17900W        W34161   6.139   3.643  15.145  0.1770 -0.2078  0.1267
17901W        W34162  12.623   4.283   0.891 -0.0859 -0.0582 -0.1438
17902W        W34163   1.936  10.781  13.600  0.1550 -0.0167 -0.2498
17903W        W34164   7.048   5.167  14.980  0.0089 -0.1828  0.1698
17904W        W34165   1.631  15.583   1.885  0.2485 -0.1820 -0.2593
17905W        W34166   2.190   8.951  10.657 -0.1565 -0.2771  0.2356
17906W        W34167  13.935  14.956  15.732  0.0589 -0.1080  0.1269
17907W        W34168  16.003  11.880  14.947 -0.2362 -0.0858 -0.3457
17908W        W34169   3.352   3.966  12.860  0.0196  0.0757  0.3163
17909W        W34170  15.673  14.734  14.218 -0.0353 -0.0381  0.0501
17910W        W34171   8.999  14.109   1.818  0.4334 -0.1667 -0.0582
17911W        W34172   3.701  10.531   0.897  0.3442 -0.1146 -0.0111
17912W        W34173  11.286   9.765   4.646 -0.1300  0.0081 -0.2826
17913W        W34174  16.445  15.697   2.215  0.1260 -0.0987 -0.0775
17914W        W34175   2.046  11.845   2.917  0.1286 -0.4113  0.0128
17915W        W34176  10.642   6.486   1.973 -0.2750 -0.0534  0.2254
17916W        W34177  12.614  15.936  15.196 -0.2697  0.0921 -0.0624
17917W        W34178  17.529  12.327  12.728 -0.0160  0.1219 -0.1991
17918W        W34179   8.163   5.114   3.975  0.0280 -0.0222 -0.0020
17919W        W34180  11.570  14.678   3.391 -0.0478  0.0932 -0.1137
17920W        W34181   8.423   0.699  13.107  0.2976  0.0708 -0.0350
17921W        W34182   9.324   2.153  11.265  0.0551  0.0911  0.1440
17922W        W34183  15.672   4.494  14.866  0.0251  0.2420  0.1444
17923W        W34184   1.090  16.774  15.245  0.1242 -0.1185 -0.0768
17924W        W34185   4.119   4.481   0.716 -0.1422  0.2835 -0.1168
17925W        W34186   0.001   4.919   3.401  0.0981 -0.1542 -0.3058
17926W        W34187   4.605  13.041   6.166 -0.6055 -0.1234  0.1101
17927W        W34188  17.562  17.612  13.947  0.0844 -0.2675  0.1282
17928W        W34189   2.688   0.551   2.200 -0.1134  0.0824  0.0802
17929W        W34190   1.501   4.051  14.038 -0.0270 -0.1224  0.2665
17930W        W34191  15.883  10.119  11.943 -0.1795  0.1093 -0.2821
17931W        W34192  14.439  11.561   3.813 -0.1294 -0.0260  0.0521
17932W        W34193   1.257  17.279  15.177  0.1026 -0.0055 -0.0567
17933W        W34194  10.474   2.781  11.226 -0.2257  0.3248  0.2195
17934W        W34195   8.339   7.171  15.323 -0.1561  0.0310 -0.0853
17935W        W34196   8.779   2.798   3.594  0.1319 -0.0041 -0.1837
17936W        W34197   3.671   4.852   4.024  0.1166 -0.4367  0.0007
17937W        W34198   2.068  15.458  14.618  0.0359  0.0790 -0.1501
17938W        W34199   3.725   7.197   1.557 -0.0551  0.3321  0.0609
17939W        W34200   0.483   7.791   1.431 -0.0059  0.0685  0.0710
17940W        W34201   5.713  17.176  12.360  0.0476  0.1190  0.0288
17941W        W34202  17.463   6.166  14.194 -0.1726 -0.1241  0.0129
17942W        W34203   1.633  11.222  13.242 -0.0075  0.0162 -0.0509
17943W        W34204   4.200   3.251  15.604 -0.0472  0.1074 -0.2355
17944W        W34205   5.864   8.243  13.841  0.0942 -0.3770  0.5326
17945W        W34206  14.007  16.443  11.637  0.2409  0.2190  0.1308
17946W        W34207   7.130   3.517   5.583  0.1186 -0.1264 -0.0345
17947W        W34208   4.795  18.142   4.144  0.2163  0.0138 -0.1354
17948W        W34209   1.702   7.747   1.847  0.1287  0.0598  0.0770
17949W        W34210  15.934  12.985  12.677 -0.1467  0.1981  0.1293
17950W        W34211  11.919  14.292   0.741  0.2018  0.2201  0.3248
17951W        W34212   9.701   7.757  13.784  0.0652  0.1933  0.1257
17952W        W34213  15.111   2.761   0.580  0.2304  0.1479  0.1461
17953W        W34214   3.245   0.386   1.448 -0.0416 -0.0241  0.1246
17954W        W34215   1.913   6.442   2.186  0.0371  0.2277  0.2641
17955W        W34216   6.487  12.000   3.152 -0.0909  0.2385  0.2693
17956W        W34217  14.005   7.701  12.106 -0.2569  0.1480  0.1581
17957W        W34218  13.599   3.652   0.028  0.1173 -0.1441  0.0947
17958W        W34219   6.133   6.005   2.428 -0.2770 -0.1296  0.2164
17959W        W34220   1.070   7.277  11.971 -0.0320 -0.3071 -0.2309
17960W        W34221   8.149  11.088  14.307 -0.0325 -0.2597  0.1329
17961W        W34222   9.485  15.437   3.217  0.0042 -0.1846 -0.0212
17962W        W34223   9.603   8.809  16.134  0.1032 -0.3437 -0.1894
17963W        W34224   1.698   7.176   2.680  0.0129 -0.2918 -0.0495
17964W        W34225  13.290   6.091   2.589  0.3502 -0.1408 -0.1296
17965W        W34226  16.094   6.915   0.949 -0.3259 -0.0497 -0.1039
17966W        W34227   6.829  17.996   1.637 -0.0897  0.2127 -0.0120
17967W        W34228   8.943  11.606   4.502  0.3660  0.0745  0.4458
17968W        W34229   5.892   9.156   4.847 -0.1478  0.0791  0.1666
17969W        W34230   4.745   8.292   4.947  0.0283  0.3427 -0.2026
17970W        W34231  14.643  12.981  14.277  0.1900 -0.2306 -0.2476
17971W        W34232  11.147   7.142  12.741 -0.0639 -0.0240  0.0141
17972W        W34233   3.396   2.219   4.821 -0.2386 -0.1083 -0.2172
17973W        W34234   4.127   5.970   1.801  0.0258 -0.1073 -0.1556
17974W        W34235  14.112   7.397  14.811 -0.0962  0.0157 -0.1894
17975W        W34236  15.021  14.908  10.685 -0.2576 -0.1646  0.1036
17976W        W34237  10.974  13.634   0.139  0.0741  0.1085  0.1121
17977W        W34238   3.947   7.995  16.202  0.3019 -0.1228 -0.2545
17978W        W34239   8.074  10.259   3.592  0.2286 -0.3238  0.2717
17979W        W34240  11.943  16.904  14.250 -0.0138  0.1044 -0.0730
17980W        W34241   2.785   2.603  16.126 -0.0021  0.1289 -0.1876
17981W        W34242  16.297   5.968   0.498 -0.0275  0.0870  0.0734
17982W        W34243   6.118  17.754  14.564  0.1624 -0.0253 -0.1818
17983W        W34244   0.050  14.408  14.951 -0.0177 -0.1531  0.0700
17984W        W34245  16.312   2.612   1.704 -0.1578 -0.0282  0.2033
17985W        W34246   7.208   0.445  13.216 -0.0037 -0.3354  0.1817
17986W        W34247   2.631  15.071  15.729  0.2350  0.2291 -0.2831
17987W        W34248   1.299  13.501   0.421 -0.1517  0.2225 -0.0928
17988W        W34249  14.287  14.601  15.926  0.0475 -0.0336 -0.1396
17989W        W34250  16.348  10.285   2.351 -0.0176  0.4217 -0.0334
17990W        W34251   0.290  15.482  14.684 -0.0228 -0.2918  0.0840
17991W        W34252  17.012  10.543  15.378 -0.0697 -0.0085 -0.1234
17992W        W34253  17.208  17.741   1.630  0.0752  0.1587 -0.2335
17993W        W34254  14.079   5.061  13.668 -0.0891  0.0305  0.1589
17994W        W34255   2.275   3.717  13.921  0.1283 -0.0726 -0.0466
17995W        W34256   6.216  17.684  11.619 -0.1848 -0.0342 -0.2178
17996W        W34257  12.984  16.868  12.040  0.4067  0.2887  0.1031
17997W        W34258   3.660   8.678  13.734  0.0214  0.0744  0.0105
17998W        W34259   2.496  11.216   2.632 -0.3493 -0.4734 -0.1358
17999W        W34260   5.593  16.652  12.129  0.2889  0.2168  0.1286
18000W        W34261  15.384   1.243  15.493 -0.3493 -0.1260 -0.1512
18001W        W34262  15.519  15.517   4.272 -0.3725  0.1717 -0.0076
18002W        W34263  12.114  13.364   0.218 -0.0620  0.1847  0.1954
18003W        W34264   8.007  11.618   0.835 -0.0559 -0.1768  0.4413
18004W        W34265  13.746   8.781  15.817 -0.3751 -0.0397  0.1830
18005W        W34266   0.334   2.646   5.607 -0.0529 -0.2231  0.5411
18006W        W34267   2.986   3.479  12.926  0.2991  0.0208  0.0265
18007W        W34268   7.232   4.511   6.147  0.0320  0.0145 -0.0306
18008W        W34269   8.856   0.371  14.063  0.0175  0.1977 -0.1526
18009W        W34270   6.422  17.543   2.861 -0.2223 -0.0923  0.0102
18010W        W34271   6.113  13.612  11.309 -0.3359  0.1398 -0.1745
18011W        W34272  17.364  16.895  12.851  0.1228  0.0831 -0.0806
18012W        W34273  10.277   4.515   3.447 -0.1083  0.0828  0.0916
18013W        W34274   6.912   3.755  12.293 -0.3105 -0.2155  0.0439
18014W        W34275  10.080  10.788  10.817 -0.2329 -0.2352 -0.1605
18015W        W34276   2.421   0.508  14.559  0.2102  0.0152 -0.0017
18016W        W34277  16.665  18.378  15.111  0.2763 -0.4383 -0.1471
18017W        W34278  11.272  12.641   4.161 -0.1072 -0.0821  0.1343
18018W        W34279   5.379   5.718  13.598 -0.1272 -0.0526 -0.0348
18019W        W34280  12.657  18.143   0.600 -0.1082 -0.3951 -0.2602
18020W        W34281  16.129  16.893  13.683 -0.1835 -0.2353  0.0266
18021W        W34282  13.435   8.430  15.992  0.3352  0.1320  0.2157
18022W        W34283  17.167   5.565   0.347  0.3190  0.2500 -0.3517
18023W        W34284  17.830   4.751   6.001 -0.1746  0.0200  0.1962
18024W        W34285   8.646  12.459   2.666 -0.0434  0.0268 -0.0979
18025W        W34286  16.588  15.410  14.562 -0.0905  0.0653 -0.2402
18026W        W34287   9.479   6.658  13.858  0.0416 -0.1537 -0.0584
18027W        W34288   8.306  18.055   2.224 -0.2290 -0.1948 -0.2862
18028W        W34289   4.619   7.609   2.511  0.0765  0.0029 -0.2534
18029W        W34290  14.708   6.050  10.896 -0.1192  0.1771  0.2392
18030W        W34291  12.512  14.905  13.153 -0.0169 -0.3259  0.0705
18031W        W34292  13.046  12.513   2.478 -0.4772 -0.0319  0.2005
18032W        W34293   5.715  10.999   4.926  0.1904 -0.1729  0.0685
18033W        W34294  13.793  14.547  12.257 -0.1812 -0.0068  0.0632
18034W        W34295  12.317  14.136  12.867  0.0707 -0.2019 -0.1499
18035W        W34296   9.856   8.830  11.260 -0.1736  0.2624  0.2859
18036W        W34297  14.472   9.874   4.212  0.2016 -0.1455  0.2384
18037W        W34298  17.519  14.879   5.006 -0.2149 -0.2036 -0.3185
18038W        W34299   4.703   0.686   5.694 -0.0488 -0.0744  0.0385
18039W        W34300  14.275  10.816   1.961  0.0720 -0.3038 -0.4085
18040W        W34301   9.556   8.214  14.074  0.1714  0.1471 -0.2819
18041W        W34302   5.186   0.881  15.416  0.2426 -0.3109  0.1640
18042W        W34303   8.221   5.309   2.265  0.1191 -0.1492  0.0845
18043W        W34304   0.708  14.605  11.502 -0.0438 -0.0677  0.2289
18044W        W34305  17.973   2.498  11.797 -0.0365  0.1716  0.0137
18045W        W34306  11.382   7.201   5.133 -0.3081  0.0109 -0.2638
18046W        W34307   6.771   3.053  12.742  0.1806  0.1070 -0.4530
18047W        W34308  13.373  12.483   2.086  0.1726 -0.0770  0.1137
18048W        W34309   9.472   2.885  14.605 -0.1546 -0.7011 -0.1516
18049W        W34310  16.291   5.989   4.097 -0.0091 -0.1765  0.0915
18050W        W34311   0.411   9.759  15.042 -0.3091  0.1021 -0.3564
18051W        W34312  11.811   2.885   0.434  0.0986 -0.3296 -0.0081
18052W        W34313  12.693   5.725  16.098 -0.0802  0.1093  0.0077
18053W        W34314   6.984  17.329   3.537 -0.0587 -0.2181 -0.0124
18054W        W34315   1.556  13.204  11.679 -0.2515  0.2023 -0.0732
18055W        W34316   0.612  11.956  16.214 -0.0765  0.1466 -0.2353
18056W        W34317  17.821  12.638   5.577  0.1410 -0.1063 -0.3568
18057W        W34318   4.437  12.285   3.401  0.2125 -0.4583 -0.1568
18058W        W34319  10.557   7.786   1.703  0.0807 -0.1972 -0.0190
18059W        W34320  17.454  14.268   4.316 -0.0334 -0.1603 -0.0984
18060W        W34321   5.256  14.076   2.316 -0.0577  0.0735  0.1312
18061W        W34322   8.974   9.302   2.308 -0.2297 -0.1725 -0.1248
18062W        W34323   0.624   7.716   0.213  0.3349  0.2184 -0.1569
18063W        W34324  16.362   9.199  14.523 -0.0468 -0.1390  0.4028
18064W        W34325  13.803  17.297   4.767  0.0284 -0.2182 -0.0384
18065W        W34326   9.729  18.184  13.573  0.1430 -0.1799 -0.0850
18066W        W34327   1.565   7.949   3.452  0.2580 -0.0242  0.0412
18067W        W34328   9.443  11.031  11.402  0.2211 -0.0326  0.2416
18068W        W34329   7.649   0.952   3.772  0.2930 -0.0429  0.0942
18069W        W34330  10.741   8.364  15.286 -0.0699  0.2795 -0.1212
18070W        W34331   3.420  18.384   6.111  0.1979 -0.1352  0.1510
18071W        W34332   0.676   6.913   5.260  0.0100  0.0655 -0.0750
18072W        W34333  16.111  14.424   5.035  0.0513  0.1546 -0.1231
18073W        W34334  15.493  14.890   3.673 -0.1228  0.0156  0.0918
18074W        W34335  13.215  11.437   5.381  0.2856  0.1363  0.1244
18075W        W34336   6.046   2.450  14.142 -0.3992 -0.0369 -0.0251
18076W        W34337   8.569  11.662   3.266  0.1065 -0.0071  0.2672
18077W        W34338   5.664  15.709   5.457 -0.0614 -0.3997 -0.4423
18078W        W34339  12.783   0.089  15.611 -0.0085 -0.3129 -0.1396
18079W        W34340  16.080   7.822  10.064  0.1054 -0.1749  0.3671
18080W        W34341   5.980   3.356  13.100  0.2545  0.1145 -0.0675
18081W        W34342  13.653  15.391  12.654 -0.0107 -0.1236 -0.1885
18082W        W34343   7.579  12.501   5.295  0.1650  0.2205  0.0549
18083W        W34344   2.479   9.668  15.594 -0.1149 -0.4626 -0.0795
18084W        W34345   6.189  15.795  15.630  0.0783  0.1364  0.2965
18085W        W34346   1.849  15.077   4.677  0.2401  0.0555 -0.1263
18086W        W34347  13.928   7.720   4.165  0.5414  0.0691  0.1835
18087W        W34348  12.207   2.178  14.271 -0.3736 -0.1658  0.0358
18088W        W34349  17.876   9.343   5.690 -0.1339 -0.0614  0.0752
18089W        W34350  11.971  11.183   5.221 -0.0067  0.1249 -0.1562
18090W        W34351  11.315  14.102  15.198 -0.1722  0.3030 -0.1975
18091W        W34352   1.484   6.602  12.987  0.1886  0.1353 -0.0391
18092W        W34353   1.975  15.183   3.229 -0.3547 -0.2029 -0.1040
18093W        W34354  12.980   2.160  16.263 -0.2278 -0.2738 -0.2814
18094W        W34355  13.493  13.877   2.434  0.2483 -0.3018  0.1855
18095W        W34356   3.499  10.722   5.146  0.2880 -0.2438  0.2142
18096W        W34357   0.297   5.385   1.643 -0.1859  0.0675 -0.0638
18097W        W34358  11.687  10.421   1.008 -0.2176 -0.0157 -0.2131
18098W        W34359   3.324   8.725   1.059 -0.2387  0.3759 -0.1198
18099W        W34360  18.374   6.320   4.779 -0.0936 -0.1082 -0.0212
18100W        W34361  13.143   6.013   0.634  0.0776  0.0260  0.2240
18101W        W34362  17.443   2.018   5.628 -0.2198 -0.0348 -0.1136
18102W        W34363  10.063   9.439  13.326  0.2836  0.3326 -0.0435
18103W        W34364  15.151  17.953  15.930 -0.2480 -0.0988  0.0814
18104W        W34365   4.468   4.901  11.604 -0.1565  0.2059  0.2216
18105W        W34366  10.491   7.554   5.876  0.1089  0.1856 -0.1921
18106W        W34367   0.047   8.398   0.295  0.0024  0.0577  0.0765
18107W        W34368  17.923   6.446   1.567 -0.0030  0.2473 -0.0072
18108W        W34369   2.416   4.660   3.177  0.1555  0.1931 -0.4046
18109W        W34370   2.767  10.039  15.447 -0.1298 -0.2240 -0.0603
18110W        W34371  13.146  17.726  12.787  0.0300 -0.4169  0.0576
18111W        W34372   0.256   3.994  12.336 -0.0860 -0.2644 -0.1317
18112W        W34373  10.957   2.738  12.052 -0.4040 -0.0522 -0.2859
18113W        W34374  13.521   8.162  12.402 -0.0470  0.1150 -0.3136
18114W        W34375  14.632  15.193  13.751 -0.0631 -0.1196 -0.0797
18115W        W34376  10.306   1.464  15.824  0.1440  0.0425 -0.3201
18116W        W34377   2.920  16.813   2.946 -0.0108  0.2191 -0.4129
18117W        W34378  15.124  17.748   4.848 -0.0676  0.1734  0.1311
18118W        W34379   1.690   5.840   5.629  0.1651 -0.1543 -0.2510
18119W        W34380  14.753   5.122  11.898  0.0857 -0.2314  0.2629
18120W        W34381  18.037  14.939   5.210  0.0487 -0.2498  0.0035
18121W        W34382  17.908   6.925   3.527  0.2195 -0.1783  0.1518
18122W        W34383  16.952   2.441   2.643  0.0842 -0.0053 -0.0193
18123W        W34384  16.409   3.146   0.927 -0.0266  0.3159 -0.2088
18124W        W34385   2.637  14.164  12.308 -0.0168  0.1490  0.1549
18125W        W34386  12.608   7.892  14.932  0.1121  0.1508 -0.1291
18126W        W34387  12.120   1.121   1.831  0.0670 -0.2215  0.1949
18127W        W34388  16.624   5.044   4.976  0.2912 -0.1629 -0.0358
18128W        W34389  15.077   2.505  14.735  0.3163 -0.1825 -0.0318
18129W        W34390   5.371  16.655   2.386  0.3889  0.0915  0.0390
18130W        W34391   9.651  10.543   2.309 -0.0239  0.0744 -0.2921
18131W        W34392   3.465  12.116   1.234 -0.0538  0.3019 -0.2208
18132W        W34393  17.210  11.611  12.146  0.0155 -0.1614  0.1220
18133W        W34394   9.247  17.428   2.903  0.1097  0.0578  0.1773
18134W        W34395   6.704  13.922   4.534 -0.2241 -0.3827  0.1116
18135W        W34396  16.834   0.350  14.361  0.0788 -0.3493 -0.0303
18136W        W34397   9.049  16.261  11.824  0.1102  0.2888  0.0455
18137W        W34398  12.640   6.844   5.748  0.0763  0.0627 -0.2990
18138W        W34399  12.887   2.922  14.216  0.2617  0.0439  0.1690
18139W        W34400   8.687  14.590   2.540  0.2943 -0.2134 -0.0684
18140W        W34401   3.677   7.039   5.194 -0.4094  0.3784 -0.0541
18141W        W34402  10.216   3.068   3.435 -0.0738 -0.1418 -0.0301
18142W        W34403  17.003  10.524   4.795 -0.4412  0.0520  0.0425
18143W        W34404  10.568  14.336  14.932 -0.2042  0.1331  0.4146
18144W        W34405  18.305   2.859   1.492  0.1811 -0.0426  0.0626
18145W        W34406  10.238   7.664  15.911 -0.1491 -0.2455  0.1448
18146W        W34407   3.398  13.572  16.238  0.1960 -0.2233 -0.1687
18147W        W34408  12.148  14.514   2.076  0.0650  0.2501  0.2871
18148W        W34409  11.468   8.394   4.890 -0.1985 -0.1964  0.1546
18149W        W34410  10.460  17.339  11.339  0.0462 -0.1897  0.4173
18150W        W34411  12.889   0.549   3.911  0.0876 -0.1531  0.1102
18151W        W34412  15.125  12.264   1.329 -0.3241  0.2166 -0.4589
18152W        W34413   1.791   4.289   4.661 -0.2675 -0.4065  0.1953
18153W        W34414   3.967  11.408   2.718 -0.1275 -0.5977  0.1214
18154W        W34415   7.214  16.058   1.148 -0.2035  0.1986 -0.4852
18155W        W34416  18.375   0.388   0.448 -0.0769  0.0439  0.2924
18156W        W34417   9.316   2.101  14.195  0.1445  0.3646 -0.1641
18157W        W34418   3.775  13.055  14.223  0.0996 -0.2145  0.0460
18158W        W34419  12.956  15.404  13.784 -0.1423 -0.0170  0.1463
18159W        W34420   8.440  13.485  12.040  0.2489 -0.0791  0.0397
18160W        W34421   5.352   2.741  14.041 -0.2083  0.0737  0.0382
18161W        W34422  12.311  11.047  13.155  0.3770 -0.0396  0.1580
18162W        W34423  17.875   9.782  11.860  0.3327  0.1285 -0.0306
18163W        W34424   4.731  11.694   2.136 -0.3146 -0.1636  0.1853
18164W        W34425  15.329  11.393   0.435 -0.0909 -0.1889 -0.0750
18165W        W34426  17.351  14.939   2.037  0.2296 -0.3340 -0.1663
18166W        W34427  15.953  16.480   4.013  0.1309 -0.0485  0.1471
18167W        W34428   5.356  10.548   5.172 -0.1659 -0.0541 -0.2467
18168W        W34429   9.116   2.767   5.307 -0.0063 -0.0709  0.0013
18169W        W34430  12.984   0.463   0.715  0.1847 -0.0366 -0.0508
18170W        W34431  12.953   9.495  12.674  0.2086 -0.0376 -0.1247
18171W        W34432  12.173  18.333  12.548  0.1514 -0.0416 -0.1560
18172W        W34433   2.679   8.037  15.882  0.1036  0.1983 -0.0476
18173W        W34434   0.142   7.455  12.084  0.1349 -0.2815 -0.0415
18174W        W34435  13.847   9.368   5.714  0.1610  0.2088  0.1437
18175W        W34436   0.084   6.741   2.498  0.0288 -0.0958 -0.1030
18176W        W34437   9.881   6.002   4.881 -0.2776  0.0157 -0.1107
18177W        W34438   2.897   3.060   5.257  0.0322 -0.0745 -0.4614
18178W        W34439   1.873   3.641   4.490  0.1520  0.2765  0.0845
18179W        W34440   2.146   9.203  12.382  0.0195  0.0695 -0.1276
18180W        W34441   1.254   7.577   3.291  0.1411 -0.0229  0.1140
18181W        W34442  11.665   7.759  12.137  0.0495  0.1155 -0.0474
18182W        W34443   6.730   1.347   1.030  0.1231 -0.4803  0.2214
18183W        W34444   5.715  12.299  15.569 -0.3432  0.0330  0.0530
18184W        W34445  14.474   6.544  14.284  0.0607 -0.3823 -0.0319
18185W        W34446  16.796  13.803  14.088  0.1601  0.0395 -0.0736
18186W        W34447   1.774  18.031  12.597 -0.2161  0.2349  0.0180
18187W        W34448   8.473   4.046  13.545 -0.1334 -0.0993 -0.0950
18188W        W34449   4.847  14.048  14.598 -0.1183 -0.1892 -0.0132
18189W        W34450  17.373   2.046   2.562 -0.1046 -0.1751 -0.2209
18190W        W34451  15.934  18.250   2.057  0.0962 -0.3830  0.1218
18191W        W34452  10.220  15.495  16.071 -0.0311  0.0818  0.2005
18192W        W34453  13.244  17.586   2.734 -0.0945  0.0565  0.0218
18193W        W34454   6.497   4.617  12.795 -0.1238  0.1125 -0.2591
18194W        W34455   0.113  11.768  14.975  0.2353  0.1592 -0.1754
18195W        W34456   8.620  11.564  14.831  0.0476  0.0925  0.3082
18196W        W34457  15.910   4.903  15.289 -0.2313 -0.0139  0.3601
18197W        W34458   9.964  13.183  13.537  0.0991  0.1791  0.1971
18198W        W34459   9.971   0.776   0.228 -0.1766  0.1823  0.0891
18199W        W34460   7.938   5.655  16.214 -0.0961 -0.1562  0.3510
18200W        W34461  11.983  14.666   2.608  0.2107  0.1035  0.3390
18201W        W34462  12.354   0.646   5.539 -0.0164  0.0751 -0.0018
18202W        W34463  10.685  15.151  14.397  0.0862 -0.1461 -0.1398
18203W        W34464   0.858   6.121  15.818  0.0269  0.0881 -0.1649
18204W        W34465  12.128  13.319  13.956 -0.1011  0.1488  0.0437
18205W        W34466  13.495  11.620   0.219 -0.1714  0.0329 -0.2035
18206W        W34467   4.770   9.224  14.646  0.2025  0.3312  0.3820
18207W        W34468  10.001  14.442   4.427  0.1956  0.1603  0.2829
18208W        W34469   8.501   3.357   2.857  0.2717  0.1499  0.1937
18209W        W34470   9.162   4.280   2.620 -0.0808  0.0280  0.0733
18210W        W34471  14.898   7.925  14.387 -0.2312  0.0200  0.1734
18211W        W34472   0.923   3.778   0.289 -0.0621 -0.0697  0.2231
18212W        W34473  16.548   6.414  11.672 -0.0721  0.2690  0.1899
18213W        W34474  18.299   8.665   4.079 -0.4260 -0.1768  0.1038
18214W        W34475   1.999   9.279   0.882 -0.0924  0.0552  0.0420
18215W        W34476   8.681   5.360   3.928  0.1682  0.0568  0.2717
18216W        W34477   4.927   1.737  14.187 -0.1676  0.0440 -0.2519
18217W        W34478   1.047  11.943  12.373  0.0981 -0.1363 -0.2663
18218W        W34479   6.544  10.733  11.051  0.0322  0.2196 -0.2121
18219W        W34480  14.688   6.981   0.643  0.2668  0.0424  0.2012
18220W        W34481   8.888  16.989   3.758  0.2898 -0.0633  0.1047
18221W        W34482  10.334  16.084   2.991 -0.2894  0.2191  0.1297
18222W        W34483   9.449  10.200   0.690 -0.1667  0.0070 -0.0775
18223W        W34484  11.678   4.754   5.288  0.2158 -0.0820  0.0648
18224W        W34485  13.771   7.416   4.570  0.2720 -0.0231  0.0038
18225W        W34486   7.251   1.018  16.169 -0.0642  0.1281 -0.1830
18226W        W34487   0.975   0.124  15.932 -0.0175 -0.0782  0.1663
18227W        W34488  18.100  12.215   1.653 -0.1038 -0.1119 -0.1356
18228W        W34489  13.784   0.450   1.758  0.0168  0.2270  0.3096
18229W        W34490   9.070   4.670  15.706 -0.1488  0.2243 -0.1266
18230W        W34491   2.113  14.454  13.146 -0.2396 -0.0214 -0.2318
18231W        W34492   5.572  12.263   2.462  0.0269 -0.2346 -0.0806
18232W        W34493   7.744   0.998   5.970  0.2257 -0.0934 -0.0948
18233W        W34494   8.498  13.580  12.552  0.1237  0.1208 -0.0201
18234W        W34495  12.929   9.787  13.145  0.1194  0.2289  0.2574
18235W        W34496  12.116  16.863   5.285  0.1018 -0.0583 -0.1135
18236W        W34497  17.272   6.220  12.630  0.1795  0.0396 -0.1731
18237W        W34498  17.259   5.188  13.311 -0.4038 -0.1392 -0.0458
18238W        W34499   8.569  15.222   0.165 -0.0216 -0.1513 -0.1795
18239W        W34500   2.761  10.086   4.259 -0.0734  0.0495 -0.0734
18240W        W34501  12.591   9.895   0.876 -0.2387  0.1678  0.1240
18241W        W34502  18.133  18.353   2.105  0.0298 -0.2391 -0.1991
18242W        W34503   9.533   6.152   0.407  0.0055 -0.2823  0.1264
18243W        W34504   8.502  10.876   0.819  0.0144  0.0085 -0.2099
18244W        W34505   2.721  10.430   4.686 -0.3535 -0.0334  0.0500
18245W        W34506   7.654   9.609   0.683  0.1761  0.1081 -0.0520
18246W        W34507   9.566  18.203  14.333 -0.0571 -0.0354 -0.0239
18247W        W34508   6.608  14.933  15.575  0.1268 -0.0395 -0.0156
18248W        W34509  14.225  10.053   2.979 -0.1281  0.1581 -0.0767
18249W        W34510   9.273  13.075  14.913  0.1014  0.1007 -0.1813
18250W        W34511   1.266  16.350   1.156  0.3407  0.0355  0.0119
18251W        W34512   2.439  11.810  10.802 -0.3420 -0.0390  0.1971
18252W        W34513  11.435   8.921  13.418 -0.1327 -0.1287 -0.2107
18253W        W34514   3.719   4.324   0.490  0.1938 -0.0158 -0.2321
18254W        W34515  13.252  17.361   4.188  0.0907 -0.0402  0.2371
18255W        W34516   9.241  10.589  15.863 -0.1447  0.3120 -0.0455
18256W        W34517   9.674  16.002   1.780  0.4853  0.2424  0.3440
18257W        W34518  16.547  17.307   3.827 -0.0094  0.2258  0.1364
18258W        W34519  15.344   8.540   2.106 -0.2641 -0.2908  0.1842
18259W        W34520  17.726   4.629   3.025  0.0582  0.0238 -0.0999
18260W        W34521   2.380   4.683  10.992 -0.0419  0.0069  0.1511
18261W        W34522  17.126  14.606  13.601 -0.1285 -0.4161 -0.4362
18262W        W34523   4.057   0.419   5.812  0.0280 -0.2332 -0.0870
18263W        W34524  17.018  18.256  14.328  0.1060  0.1746 -0.0341
18264W        W34525   4.628  14.603  15.396  0.1265  0.0739  0.1261
18265W        W34526   4.885  17.011  14.098 -0.1935 -0.0699 -0.3789
18266W        W34527   4.626   1.848   1.658  0.0313  0.1261 -0.1779
18267W        W34528   1.183  11.542  14.346 -0.0996  0.2149  0.0173
18268W        W34529  15.791   8.741   4.086 -0.1385  0.1280 -0.1784
18269W        W34530  14.673   5.325  11.434 -0.0350  0.4023  0.1696
18270W        W34531   1.669  11.577  14.317 -0.0608 -0.1399  0.2690
18271W        W34532  13.231  11.732  14.254 -0.0652 -0.2426 -0.0903
18272W        W34533  11.355   4.699  13.852 -0.0116  0.3661  0.0569
18273W        W34534  13.573  13.530  12.253 -0.0432  0.0373 -0.0160
18274W        W34535   1.557   8.587  12.991 -0.3820 -0.2412  0.2022
18275W        W34536  15.726   0.813  15.604 -0.3043 -0.0611  0.0658
18276W        W34537  12.472  11.247  15.587  0.1715  0.1357  0.0270
18277W        W34538   5.244   6.861  12.643 -0.2831  0.3570 -0.0125
18278W        W34539  12.741  17.923   1.036 -0.0848 -0.1281 -0.1299
18279W        W34540  13.562   1.395   5.739 -0.0471 -0.0740 -0.2097
18280W        W34541   2.097  11.317  15.415 -0.2149  0.0136 -0.0978
18281W        W34542  11.163   3.187   4.485  0.1288 -0.0363 -0.1560
18282W        W34543  17.644  10.213  12.034  0.0503 -0.0380  0.0622
18283W        W34544   7.549  16.382  11.601  0.1419 -0.1291 -0.0727
18284W        W34545   0.824  11.260   3.239 -0.0136 -0.1904  0.3934
18285W        W34546   5.161   0.465  14.636  0.2017  0.3998 -0.2365
18286W        W34547   7.294   4.604   1.772 -0.1880  0.0332  0.1114
18287W        W34548   6.616   1.335  12.849 -0.2661 -0.0124  0.0414
18288W        W34549  14.281   8.801  14.719  0.0141  0.0540 -0.1468
18289W        W34550  17.643   6.993   4.985  0.0766  0.0729  0.0283
18290W        W34551  16.877   5.908  15.987  0.1166 -0.0626 -0.0140
18291W        W34552   0.587  14.205   4.671  0.0355 -0.0111 -0.1989
18292W        W34553  11.935  10.366   4.832  0.0915 -0.3515  0.1175
18293W        W34554  10.381   9.386   3.731 -0.1310  0.1393  0.1613
18294W        W34555  12.578   1.616   0.970  0.1374  0.0029 -0.1811
18295W        W34556  12.932   1.660   4.846 -0.0310  0.3353 -0.1351
18296W        W34557   5.623   7.896  14.395  0.0905 -0.0697 -0.2463
18297W        W34558  10.092   5.730  13.350  0.1677 -0.3021  0.0103
18298W        W34559  17.738  13.954   4.895  0.1984 -0.2966 -0.0856
18299W        W34560   9.465   4.537  15.414  0.1740  0.1679  0.1072
18300W        W34561  16.589   6.878  11.643  0.1446 -0.1780 -0.1558
18301W        W34562   7.273  10.682  12.068 -0.0592  0.0538 -0.3157
18302W        W34563   7.844   1.764  15.542  0.1199 -0.0261  0.2508
18303W        W34564   8.151   0.172  16.294 -0.0845  0.2871 -0.2300
18304W        W34565   8.633  16.229  13.320  0.4120  0.2519  0.1196
18305W        W34566  15.074   7.574  10.857  0.2723  0.0133  0.1115
18306W        W34567   2.693   2.488   0.627 -0.0708  0.4545 -0.0743
18307W        W34568  17.075  14.518   2.271 -0.2705 -0.3085  0.1851
18308W        W34569   3.508   7.718  14.981  0.0692 -0.0651  0.0382
18309W        W34570  17.338   7.439   0.731  0.1711  0.2206 -0.0979
18310W        W34571  14.292  13.215   0.115  0.1707 -0.1604  0.0049
18311W        W34572   0.947   6.834  11.706  0.2993  0.0258  0.1955
18312W        W34573  13.072  15.148   5.255  0.3505 -0.0737  0.2389
18313W        W34574  13.061   6.519  14.630 -0.4772  0.1511  0.0366
18314W        W34575   7.156   0.926   1.790  0.0686 -0.0969 -0.2825
18315W        W34576   7.050   1.767   2.245 -0.2513 -0.1210  0.4447
18316W        W34577   3.389   6.480  15.353 -0.0545  0.0014  0.1902
18317W        W34578  10.407   8.274  15.633  0.1443 -0.1144  0.0571
18318W        W34579  11.843   4.216  15.518  0.0246  0.3194  0.1224
18319W        W34580  12.552   1.561  15.784 -0.2197 -0.0807 -0.2063
18320W        W34581  10.708   7.182   4.980 -0.5211 -0.0300  0.0095
18321W        W34582   5.004  15.786  11.912  0.0313 -0.0487  0.1868
18322W        W34583   9.416   8.462   0.570  0.3900  0.0133  0.0205
18323W        W34584  11.766   5.933   3.380  0.3275 -0.1088 -0.1365
18324W        W34585   4.671   8.839   4.922 -0.0663 -0.2632  0.1963
18325W        W34586   7.226   6.847   0.085  0.4068 -0.0565 -0.0200
18326W        W34587   2.595   8.504  12.052 -0.0507 -0.1479 -0.0577
18327W        W34588  12.744   6.449  11.688 -0.1092 -0.0449 -0.0498
18328W        W34589   9.445   5.061  15.278 -0.1697  0.1301 -0.3358
18329W        W34590   2.836  11.074   4.092 -0.2998  0.4346 -0.0156
18330W        W34591   8.649   4.045   3.385 -0.0921 -0.2250  0.0804
18331W        W34592  10.242   3.863  14.273  0.2222 -0.3245 -0.0640
18332W        W34593   7.077  17.441   4.621  0.0518 -0.0271 -0.1691
18333W        W34594  14.356   8.445   3.554 -0.0349 -0.0788  0.2197
18334W        W34595   9.966  17.824   1.104  0.0185 -0.1835  0.1169
18335W        W34596  11.033  11.701   0.754  0.1309  0.0414  0.1031
18336W        W34597   4.577   4.999  14.971 -0.3521 -0.2719  0.0173
18337W        W34598  10.841  16.990   1.061 -0.1157 -0.1879  0.1400
18338W        W34599   6.179   3.431   1.987  0.2411  0.1641  0.0560
18339W        W34600   9.289   3.652   0.337 -0.1671  0.1566 -0.2233
18340W        W34601  13.705   8.257  15.645  0.2581  0.0216  0.3240
18341W        W34602  13.605  12.051  14.077  0.1925  0.2155  0.0772
18342W        W34603   6.422   5.466  15.189  0.1742  0.0918 -0.0828
18343W        W34604   1.822  10.238  11.887  0.1807  0.0803  0.0051
18344W        W34605  15.629   0.457  13.843  0.1630 -0.0693  0.2779
18345W        W34606  16.853  15.840  15.738  0.0512 -0.0696  0.1825
18346W        W34607   6.268   1.487   6.163 -0.2804 -0.3160 -0.2388
18347W        W34608   4.428  11.360   2.416 -0.2223 -0.0460  0.0141
18348W        W34609   9.996   9.758   9.568  0.0446  0.1228  0.0825
18349W        W34610  13.490   0.169   2.386  0.0591 -0.1840  0.1009
18350W        W34611   7.348  11.638  10.970  0.1713 -0.1269  0.3906
18351W        W34612  13.499  12.674   4.653 -0.2666  0.1296 -0.0799
18352W        W34613  14.101  17.265   0.445 -0.2288  0.0032  0.2322
18353W        W34614  14.555  11.676   1.613 -0.0817 -0.1362 -0.1886
18354W        W34615  18.112  11.454  11.102 -0.4301 -0.0082 -0.1780
18355W        W34616  15.364   8.468  16.192  0.4219  0.3095 -0.1214
18356W        W34617  17.938   1.676  16.086  0.0719  0.1111 -0.2034
18357W        W34618  12.370   1.893  13.392 -0.0330 -0.0766  0.2043
18358W        W34619   5.396  11.235   0.384 -0.0253  0.0277 -0.0015
18359W        W34620   9.650   1.909   1.938  0.0224 -0.2005  0.1006
18360W        W34621   3.014  14.930   3.921  0.0510 -0.1475 -0.0062
18361W        W34622   4.478  10.813  16.242 -0.0417 -0.2646 -0.2910
18362W        W34623  17.081  15.459   3.904  0.1576  0.0719 -0.2407
18363W        W34624  18.333   9.487  11.943 -0.0489 -0.1867  0.0056
18364W        W34625  15.026   1.500   2.375  0.0165  0.2959  0.1574
18365W        W34626   6.561  14.390   4.790  0.1580 -0.1392  0.1931
18366W        W34627  14.049   9.823  14.397 -0.2727  0.2146 -0.1806
18367W        W34628  14.099  11.257   1.877 -0.0229 -0.0378 -0.0390
18368W        W34629  13.308  12.004  12.554  0.0825  0.2534  0.2327
18369W        W34630  15.306   0.427   1.097 -0.3563 -0.0919  0.1280
18370W        W34631   1.393  12.544  15.823 -0.2401  0.2035 -0.0590
18371W        W34632  17.592  13.187  12.946  0.0737 -0.0172  0.2116
18372W        W34633  13.695   1.438  13.292 -0.0473 -0.1117  0.1474
18373W        W34634   8.344  16.113  16.047 -0.2276 -0.1119 -0.0448
18374W        W34635   6.774  10.534  13.701  0.0366 -0.0460  0.2441
18375W        W34636   9.492  13.743   3.582  0.0316  0.3802 -0.0902
18376W        W34637  13.164  16.637  13.107 -0.1575 -0.0681 -0.0658
18377W        W34638   7.856   3.186   4.431  0.1543 -0.1530  0.4567
18378W        W34639   5.306   0.911  10.235 -0.2741 -0.1736 -0.0323
18379W        W34640  11.579   4.297   4.114 -0.0731  0.1813  0.4460
18380W        W34641   3.400   6.840   0.006  0.1127  0.0791 -0.2097
18381W        W34642  16.892   2.980  14.621  0.1166  0.0639  0.2783
18382W        W34643  15.177  10.160   1.954 -0.2137  0.1778  0.0305
18383W        W34644   1.556   2.363   3.818  0.1187  0.0790 -0.2153
18384W        W34645   8.237  16.522   2.002  0.0857 -0.0279  0.0107
18385W        W34646  10.314  11.575   1.320  0.3145 -0.0339 -0.1764
18386W        W34647   5.780   1.015   1.799  0.0863 -0.0765 -0.0140
18387W        W34648  17.002  15.093   3.509  0.1910 -0.0511  0.0239
18388W        W34649   6.021   6.565   2.396  0.0728  0.2574  0.1617
18389W        W34650  13.129  10.209   1.506 -0.2315 -0.1267  0.1608
18390W        W34651   5.780  12.589   3.941 -0.3864  0.1309  0.2078
18391W        W34652   6.822   9.529  10.780  0.0109  0.0213  0.0759
18392W        W34653  12.173   6.416   0.910 -0.0886 -0.1467  0.2455
18393W        W34654   1.150   6.257   4.159 -0.2132  0.0975 -0.2344
18394W        W34655  14.053  11.725  13.144 -0.1386  0.1213 -0.1764
18395W        W34656   4.884   2.190   4.340 -0.0370  0.1134  0.4883
18396W        W34657   8.588  11.085   1.387  0.0863  0.2445 -0.3640
18397W        W34658   9.147   2.475   2.549  0.2363  0.0991 -0.1814
18398W        W34659  10.332   8.163  12.325  0.0646 -0.0802 -0.4062
18399W        W34660   4.961  16.407  16.167  0.2473  0.3547 -0.1114
18400W        W34661   6.320  13.804  12.399  0.3032 -0.1392  0.0297
18401W        W34662   7.318  15.160  14.353 -0.2699 -0.1975 -0.1667
18402W        W34663   5.893  10.703  11.791 -0.5549 -0.0642 -0.0980
18403W        W34664  14.249  11.176   2.786 -0.0928  0.4915  0.1085
18404W        W34665   1.025   5.089   3.078  0.3195  0.2189 -0.4131
18405W        W34666   4.882  11.581   2.658  0.0105  0.0688 -0.2574
18406W        W34667   4.001   5.574  15.425 -0.0065  0.1621  0.0595
18407W        W34668  18.223  10.798   5.176  0.1424  0.0280 -0.0976
18408W        W34669   2.113   1.808   2.748  0.0617 -0.0382 -0.2418
18409W        W34670   5.429   0.001   5.385 -0.1212 -0.0663 -0.1417
18410W        W34671  17.864  12.590  14.147  0.1601 -0.0180 -0.0260
18411W        W34672  11.173  15.754   0.769  0.1688 -0.0356 -0.1535
18412W        W34673   1.728  12.194   3.325  0.0030 -0.1793 -0.1936
18413W        W34674   8.401   7.271  11.361  0.1296  0.1027 -0.0875
18414W        W34675   9.409   8.964  14.248 -0.0739 -0.1221 -0.2264
18415W        W34676  16.452   8.890   4.250 -0.1368  0.0782 -0.3109
18416W        W34677  14.600   2.292   4.052 -0.0550 -0.1312  0.0143
18417W        W34678  10.671   4.751   0.281  0.1076 -0.1505 -0.2440
18418W        W34679   4.229  16.077  11.436 -0.0440  0.1372  0.0335
18419W        W34680   8.588   1.355   1.088  0.3238  0.1230 -0.1337
18420W        W34681  16.775   7.822  11.529 -0.1536  0.0460  0.0767
18421W        W34682   3.613  17.761   4.935  0.1398  0.0416  0.1994
18422W        W34683   3.343  12.176   2.360 -0.5139 -0.3660 -0.1824
18423W        W34684  16.980   6.969   1.273  0.5184 -0.1301  0.1339
18424W        W34685   1.916  15.504  15.787 -0.2912 -0.0977  0.2174
18425W        W34686  11.190  13.684  12.022  0.2191 -0.0661  0.2979
18426W        W34687   1.254   5.323   3.465 -0.1806  0.3396 -0.0300
18427W        W34688   8.089  18.184  11.891 -0.2161 -0.0748  0.1294
18428W        W34689   4.245   7.315  15.746 -0.1049 -0.0006 -0.0853
18429W        W34690  13.216   1.997   4.503 -0.2612  0.0760  0.5267
18430W        W34691   2.427  17.898  11.883 -0.3642 -0.1226 -0.3007
18431W        W34692   3.129   3.417  14.565 -0.0999  0.2252 -0.4398
18432W        W34693   4.754  14.483   0.187 -0.2319 -0.0684 -0.0742
18433W        W34694   6.944  12.741   1.227 -0.2299 -0.1364  0.0484
18434W        W34695  17.158   7.185   3.884  0.1025  0.1872  0.1265
18435W        W34696   8.082   2.988  12.334 -0.2871  0.1589  0.0814
18436W        W34697   1.223   9.172   4.288  0.1274 -0.0481  0.0911
18437W        W34698  16.828  14.977  13.464 -0.1038  0.1562 -0.0321
18438W        W34699   8.288  13.241  15.510 -0.2347 -0.2747 -0.1114
18439W        W34700   7.622   8.688  14.847 -0.2667  0.0386 -0.0960
18440W        W34701   7.450  12.991  13.383 -0.2372  0.0895  0.2886
18441W        W34702  18.003  17.031   5.348 -0.1287  0.4435  0.0661
18442W        W34703  13.473   9.089   0.409 -0.0614 -0.0104  0.3272
18443W        W34704  18.298   2.499   4.720  0.0942 -0.2470 -0.1327
18444W        W34705  11.257   0.982   2.879  0.3798 -0.2283 -0.2397
18445W        W34706   7.186  18.015   2.610  0.0913 -0.1398 -0.0864
18446W        W34707  13.054  12.128  11.962  0.2092 -0.1808 -0.1932
18447W        W34708   4.911   0.420  13.680 -0.1694  0.1916 -0.1333
18448W        W34709   7.634   0.880  14.933  0.2413 -0.0186 -0.0749
18449W        W34710  11.358  13.015  12.492 -0.1471 -0.0582  0.1432
18450W        W34711  13.617   5.235   2.177  0.4261  0.0999  0.0094
18451W        W34712  13.368  18.198  12.898  0.1214  0.0328  0.1466
18452W        W34713  16.233   4.176  15.580 -0.0506 -0.0988  0.0357
18453W        W34714  16.385   8.272  14.645 -0.1657  0.1986 -0.0188
18454W        W34715   6.944  10.698   4.833 -0.1167 -0.0797 -0.0972
18455W        W34716  11.040   8.910   4.401  0.0699  0.0038  0.1651
18456W        W34717   1.215  10.580  16.047 -0.1642 -0.0864  0.2675
18457W        W34718   0.307   8.089   3.924 -0.1249  0.0737 -0.0368
18458W        W34719  15.190   1.153   3.771  0.0950  0.0539 -0.1267
18459W        W34720  11.172   0.095   5.008  0.0645 -0.0155 -0.2995
18460W        W34721  16.953  15.596   3.307 -0.0805 -0.0343  0.0838
18461W        W34722   4.049   1.723   2.570  0.0714  0.2643 -0.0240
18462W        W34723  13.928  10.575   2.661 -0.1051  0.1052  0.0176
18463W        W34724   6.685  17.700  13.142 -0.1781 -0.0807 -0.1406
18464W        W34725  16.353   9.933  15.003  0.1657 -0.0567  0.0207
18465W        W34726  16.240  12.444  11.556  0.0460 -0.0967  0.0161
18466W        W34727   2.399   0.437  14.033  0.3182  0.4575  0.1820
18467W        W34728  16.234   9.997  12.372 -0.0346 -0.2959 -0.3182
18468W        W34729   5.986   3.863   1.875  0.2193  0.0619  0.0001
18469W        W34730   6.828   9.371   1.805 -0.1141  0.1136  0.2111
18470W        W34731   2.585   3.450  16.271 -0.2846  0.1135  0.0073
18471W        W34732  12.000   6.086  13.107 -0.0446  0.2367  0.2084
18472W        W34733  11.253   2.428  13.751 -0.0044  0.1538 -0.1084
18473W        W34734   3.764   3.676  14.165 -0.1916 -0.1454 -0.0677
18474W        W34735  17.734   3.407  14.838 -0.3488 -0.2858  0.1794
18475W        W34736   9.877   7.876   2.705 -0.1859  0.2477 -0.2843
18476W        W34737  10.994   4.439   0.807  0.5194  0.0229  0.1138
18477W        W34738   9.918  14.664  14.353 -0.2824 -0.1456 -0.0076
18478W        W34739   2.116   9.810   5.358 -0.4725  0.0564 -0.1266
18479W        W34740   1.631   7.316  15.309 -0.1791 -0.1464  0.0773
18480W        W34741   5.646   7.002  15.021 -0.1674 -0.1458  0.1140
18481W        W34742   6.532   5.024   1.142  0.2319 -0.0349  0.0667
18482W        W34743  16.087  12.907   1.873 -0.1761 -0.0765 -0.1428
18483W        W34744  12.215   7.789  13.027  0.3017  0.0429 -0.1896
18484W        W34745  12.112  10.573   0.640  0.0958  0.0578 -0.0764
18485W        W34746   3.342   0.220  16.302  0.1500 -0.0423 -0.1017
18486W        W34747  12.288   5.417   4.563 -0.0672 -0.0309  0.1779
18487W        W34748  17.103  11.434   0.357  0.0785  0.0333  0.0141
18488W        W34749  14.882  15.005   4.969  0.1141 -0.1139 -0.0881
18489W        W34750  11.888  11.273   1.382  0.0732 -0.3951  0.1551
18490W        W34751   0.921  12.152  13.747 -0.3116 -0.1278  0.0134
18491W        W34752   5.594   7.705   0.829 -0.1599 -0.3010 -0.0079
18492W        W34753  14.095   6.162  13.488  0.2542 -0.2689  0.2280
18493W        W34754  13.262   7.466   4.778 -0.2406 -0.1923  0.0949
18494W        W34755  11.496   5.499   4.771 -0.0875 -0.0034 -0.1366
18495W        W34756  13.258   7.761  13.380  0.3681  0.3390 -0.0574
18496W        W34757   7.558  13.277   4.410 -0.1987  0.1086 -0.0999
18497W        W34758  10.970  13.003  14.708 -0.0309  0.1629 -0.1589
18498W        W34759   6.953   0.870   1.151  0.1932 -0.0547  0.0302
18499W        W34760   8.938  15.370  11.617 -0.2296  0.0335 -0.1212
18500W        W34761  11.625  13.332  15.716  0.1713 -0.2532  0.0339
18501W        W34762  11.417   1.772  11.807  0.0655  0.1329  0.1017
18502W        W34763   7.927   2.673  12.765 -0.2375 -0.2894 -0.0012
18503W        W34764  17.315  12.067   1.167 -0.2863  0.1414 -0.1581
18504W        W34765   3.241   7.412  12.346  0.1208  0.2343  0.0126
18505W        W34766  10.396  10.451   0.727  0.2805  0.0214 -0.0568
18506W        W34767   8.668   4.375  11.753  0.2197 -0.1423  0.1768
18507W        W34768  12.981  16.097   2.497 -0.1925  0.1821 -0.0170
18508W        W34769   8.247   0.941   2.466  0.1591  0.2106  0.1564
18509W        W34770   4.601  11.951   1.709 -0.3044  0.1197 -0.0027
18510W        W34771   6.325   4.089   5.850 -0.3202 -0.1941  0.4872
18511W        W34772   5.698  14.101   4.523  0.0324  0.1092 -0.0262
18512W        W34773  15.427  16.779   0.401  0.2928  0.0032 -0.0013
18513W        W34774  16.135   7.975   3.503  0.0501  0.2839 -0.0427
18514W        W34775  10.593   3.188  12.084 -0.0800 -0.0912  0.2793
18515W        W34776   4.355   7.794  15.203 -0.0086  0.2541 -0.0531
18516W        W34777   8.552   9.880   4.136 -0.1269  0.1821  0.2324
18517W        W34778  15.993   7.026  14.118  0.3101  0.0666  0.1010
18518W        W34779  10.263  14.494  11.736 -0.0098  0.0297 -0.1520
18519W        W34780   3.338   6.152   3.082  0.1327 -0.2661 -0.2740
18520W        W34781   3.204   1.213  12.786 -0.2760  0.0636  0.1668
18521W        W34782   6.101   3.480  11.795  0.1372  0.0321  0.0933
18522W        W34783  14.118  11.187  14.577  0.0873 -0.0006 -0.0399
18523W        W34784  16.541   3.279   3.013  0.0729  0.1947 -0.2718
18524W        W34785   9.301  17.392  12.515  0.1459  0.2326  0.0627
18525W        W34786  11.103  17.864   5.131 -0.0394  0.3707 -0.1402
18526W        W34787   6.799   9.272  12.082 -0.2399 -0.3764  0.1286
18527W        W34788   1.509   5.245   2.444  0.0215  0.0268  0.0367
18528W        W34789  15.526  15.864   2.287  0.3601 -0.0560  0.0615
18529W        W34790   9.770  10.416  11.283  0.3479  0.0596  0.1532
18530W        W34791   6.377  13.671  11.820  0.0931  0.1730  0.0444
18531W        W34792  13.952   0.028  10.850  0.2437 -0.2429  0.2223
18532W        W34793  10.678   1.223   4.361  0.1304 -0.0904  0.1408
18533W        W34794   5.674   9.844   5.903 -0.2634 -0.2228 -0.0244
18534W        W34795   4.159  11.115  12.346 -0.2786  0.0866  0.2000
18535W        W34796   7.821   7.919  12.600  0.1765  0.0221 -0.2536
18536W        W34797   0.773   0.414   2.098 -0.4149  0.1996 -0.0777
18537W        W34798  15.966   1.851   0.842 -0.1225  0.1022 -0.0710
18538W        W34799   7.542  17.963  15.785  0.3050 -0.0592 -0.2223
18539W        W34800   3.143   6.799   3.031 -0.0322 -0.2970 -0.0580
18540W        W34801  10.755   2.386  12.534  0.1264 -0.1964 -0.0566
18541W        W34802   8.997   3.537   2.044  0.0044  0.1587 -0.2477
18542W        W34803  17.119   5.069   5.280 -0.2523 -0.0557 -0.0656
18543W        W34804  15.977  15.969   3.151 -0.3981  0.1440 -0.0609
18544W        W34805  13.941  11.581   3.078  0.1975 -0.3740 -0.3442
18545W        W34806  10.701  10.541   1.948 -0.1502  0.0977  0.0540
18546W        W34807   6.957   8.501  14.150 -0.1114  0.2205  0.0791
18547W        W34808   2.441   2.364   4.167 -0.0488  0.0505  0.2487
18548W        W34809   6.796  18.294   3.290 -0.3280  0.0731  0.2400
18549W        W34810  13.207   6.653  12.718  0.3074  0.2792 -0.0277
18550W        W34811   0.557   6.516  13.363  0.2741 -0.0482  0.0691
18551W        W34812  13.504  14.505   3.611 -0.1271 -0.0860  0.1647
18552W        W34813   4.009   3.642   1.147  0.1238 -0.4342 -0.3116
18553W        W34814  18.221   6.731  12.346  0.2141  0.0945  0.0440
18554W        W34815  15.786  15.107   4.494  0.2836  0.0344 -0.2520
18555W        W34816  13.803   4.674   0.774  0.2250  0.0871  0.4518
18556W        W34817   0.895   5.789  16.254 -0.0419  0.1854 -0.2976
18557W        W34818   4.707   6.989  12.883  0.2480  0.0484 -0.3357
18558W        W34819   7.347   1.621  12.276 -0.1323 -0.1449  0.2058
18559W        W34820   4.054  16.402   4.483 -0.0490 -0.0436  0.1921
18560W        W34821   9.301   9.149  15.764 -0.0561 -0.4105 -0.0110
18561W        W34822   9.478   2.821   4.555 -0.2614  0.5160 -0.2674
18562W        W34823  16.943  15.483  14.904  0.2243 -0.1777  0.2208
18563W        W34824   1.810   5.805   3.674  0.0568  0.0380  0.0551
18564W        W34825  15.100   3.072  13.477  0.0403  0.0857 -0.0014
18565W        W34826   7.798   9.096   2.877  0.2584  0.1001 -0.0965
18566W        W34827  14.851  15.330   5.412 -0.2100 -0.1618 -0.2385
18567W        W34828   4.302   8.905  13.078 -0.0321 -0.3188 -0.2560
18568W        W34829  17.139  17.450   5.498 -0.0172 -0.1266  0.0790
18569W        W34830   6.542   8.338   1.436  0.2170  0.1354  0.0146
18570W        W34831  10.674  16.530   1.024  0.2037 -0.2049 -0.0072
18571W        W34832  11.299  10.198   3.372  0.0715 -0.2719 -0.3059
18572W        W34833   9.307   7.248   2.452 -0.1012  0.0620  0.0371
18573W        W34834   4.776  15.263  16.038  0.2249 -0.2952 -0.0123
18574W        W34835   3.465   2.156   4.301  0.1091  0.1263 -0.1849
18575W        W34836   9.573   0.785  15.489 -0.0359 -0.1809  0.1135
18576W        W34837   3.352   7.931   5.188  0.0019  0.1469  0.3936
18577W        W34838   8.647   7.658  10.796 -0.0433  0.0772 -0.0741
18578W        W34839  10.540  14.840   0.955 -0.0049 -0.1700  0.0206
18579W        W34840   5.916   6.333   5.567 -0.1173  0.1399  0.1566
18580W        W34841  12.012  10.693  12.884  0.0703 -0.1370 -0.2654
18581W        W34842   7.186   5.800   2.024  0.3704 -0.0626  0.1708
18582W        W34843  12.269   0.924  12.518 -0.2143 -0.0005 -0.4453
18583W        W34844   1.184   0.195  15.393  0.0526  0.0052  0.1829
18584W        W34845  13.473  13.690   0.237 -0.1205  0.1552  0.5991
18585W        W34846   2.677  17.226   5.656  0.1391  0.2778  0.2575
18586W        W34847   0.736   4.537   1.555  0.1507 -0.0443 -0.0700
18587W        W34848   8.770   3.679   1.583  0.1634  0.3803 -0.0114
18588W        W34849   3.658   8.241   3.662  0.1715  0.0797  0.0760
18589W        W34850  17.196   1.369  15.509  0.0054 -0.0495  0.2786
18590W        W34851   4.885  15.170   0.274 -0.1168 -0.0508 -0.0102
18591W        W34852  15.742  18.031  14.678  0.0890 -0.0702  0.1637
18592W        W34853   7.036   3.332  16.253 -0.0655 -0.1549  0.3531
18593W        W34854   8.219  12.146  13.265  0.1727 -0.0929 -0.0612
18594W        W34855  16.935   4.218   3.042 -0.0180  0.0041  0.2420
18595W        W34856   6.847  12.753   3.737  0.0003  0.2274  0.2330
18596W        W34857  14.295   9.351  14.577  0.4581 -0.1711  0.1755
18597W        W34858   0.346   8.692  13.600  0.1828 -0.2894 -0.2729
18598W        W34859  12.986  16.921   4.922  0.0704  0.1041  0.0055
18599W        W34860   9.624   9.731   3.500  0.2142 -0.0762 -0.0379
18600W        W34861   2.882  15.533   5.964  0.2094 -0.0286  0.1149
18601W        W34862   8.894  18.300   3.080 -0.1722 -0.3176 -0.0799
18602W        W34863  12.399   5.262   0.754  0.4169  0.1554 -0.1605
18603W        W34864   1.724  10.784  16.093 -0.0176 -0.1606 -0.0467
18604W        W34865   9.638   7.145  11.741 -0.1190 -0.0122  0.1770
18605W        W34866  10.299  10.619   1.598 -0.1922 -0.3180  0.0202
18606W        W34867   8.387  13.130  11.573  0.2459 -0.4261  0.1892
18607W        W34868  10.078   5.170  14.841 -0.0721 -0.1806 -0.0189
18608W        W34869   2.058   8.714   1.709 -0.0900  0.0018  0.1974
18609W        W34870  15.130   4.218   1.168  0.2857 -0.1723  0.1538
18610W        W34871  10.383  14.142   3.618 -0.1004 -0.1635 -0.1042
18611W        W34872   9.080   0.395   0.008  0.1493 -0.1936  0.0549
18612W        W34873  14.320  10.550   3.048  0.0125  0.3384 -0.1129
18613W        W34874  16.970  17.589  11.773  0.0771 -0.1376 -0.0063
18614W        W34875  17.110  13.736  14.513  0.3166 -0.2375 -0.0623
18615W        W34876  14.705   0.471   2.287  0.1532 -0.1090 -0.2589
18616W        W34877   1.364   8.101  12.798 -0.1482  0.1358  0.0078
18617W        W34878  10.183  11.380   0.476  0.1323  0.2810 -0.1751
18618W        W34879  15.082   5.456   3.607 -0.1850 -0.1282 -0.1609
18619W        W34880  13.545   7.721   2.139 -0.1385 -0.0886 -0.3458
18620W        W34881   1.876   8.963   5.290  0.0683  0.1532 -0.0556
18621W        W34882   1.444   6.522  11.718 -0.1284 -0.2171 -0.0249
18622W        W34883  12.227  12.777  14.172  0.0454  0.0161 -0.0986
18623W        W34884   3.269  16.340  15.087 -0.2563  0.2333 -0.1219
18624W        W34885  17.900  14.368   2.440  0.0703  0.2587 -0.0844
18625W        W34886   8.004  12.441  15.016 -0.1931  0.1158  0.0179
18626W        W34887  13.011   3.743  12.684 -0.1480 -0.0911 -0.1942
18627W        W34888   1.651   6.780   0.304  0.0894  0.2291 -0.1429
18628W        W34889  11.561   7.257  13.484 -0.1942 -0.1295  0.1043
18629W        W34890  15.488  13.447  12.091  0.1022  0.0582  0.1128
18630W        W34891  16.912  13.032   4.871  0.2809  0.1405 -0.1416
18631W        W34892  17.535   3.779   2.196  0.1366  0.0041 -0.1093
18632W        W34893   2.478   3.744  15.268  0.0641  0.0824  0.0397
18633W        W34894   1.432   1.736   0.595  0.2049  0.0260  0.1546
18634W        W34895   5.044   6.435   4.470  0.1314  0.0722 -0.0202
18635W        W34896  10.724  15.533  16.217 -0.0031 -0.0748  0.1919
18636W        W34897  15.007   1.672  15.334 -0.0692 -0.0001  0.1602
18637W        W34898  14.680  14.023   5.084 -0.0142 -0.1536  0.2293
18638W        W34899  12.467   8.743  12.458  0.0780  0.3719 -0.3861
18639W        W34900   8.237  13.295   3.847 -0.3756 -0.4988  0.0440
18640W        W34901   2.013   0.826  14.578  0.2007 -0.1961  0.0575
18641W        W34902  15.905   0.032  13.972  0.3299 -0.3107  0.1135
18642W        W34903   7.122  15.615  13.417 -0.3555 -0.1550  0.3302
18643W        W34904  18.325  13.458  15.226 -0.2284 -0.3198 -0.1445
18644W        W34905  17.131   6.053   1.676  0.0587 -0.1464  0.3950
18645W        W34906  12.070   3.504   3.241  0.2875 -0.1693 -0.1723
18646W        W34907  16.370  16.930   3.084 -0.1359  0.4786 -0.0338
18647W        W34908  12.476  12.796  14.641  0.0286  0.0048 -0.0851
18648W        W34909   9.417  11.704  10.965  0.0682  0.1137 -0.0809
18649W        W34910   4.036  13.600   4.432 -0.1583  0.0595 -0.1203
18650W        W34911  14.490   7.743   1.413 -0.1181 -0.2530 -0.0160
18651W        W34912  10.520  18.095   5.102 -0.0654 -0.3289 -0.1220
18652W        W34913  16.804   8.534  15.387  0.0448  0.0735 -0.0861
18653W        W34914   9.900   6.526   4.690  0.2317 -0.1643 -0.1828
18654W        W34915   0.861  16.703   4.280 -0.0587  0.1176  0.0618
18655W        W34916  16.839   1.901   4.978 -0.0390 -0.1233 -0.1772
18656W        W34917  18.286  15.317  13.063  0.2920  0.0096 -0.1637
18657W        W34918  14.061  14.588   1.499  0.0406  0.1044 -0.2203
18658W        W34919   2.839   5.072  12.854 -0.0967  0.0180 -0.0359
18659W        W34920  13.001  10.263  14.631  0.1515  0.0533 -0.3710
18660W        W34921  15.410  16.886  12.696  0.2780 -0.2485 -0.3631
18661W        W34922  10.979  17.130   5.335 -0.0003 -0.0839 -0.2598
18662W        W34923   3.388   6.049  13.168  0.0694 -0.2333 -0.0196
18663W        W34924   4.590  16.654  14.952  0.0310 -0.1137 -0.1078
18664W        W34925  15.447   7.288  11.366 -0.0009 -0.0337 -0.1138
18665W        W34926   5.509  10.523  12.654  0.1147  0.1071  0.0743
18666W        W34927   0.691   4.270   0.317 -0.1051  0.0519 -0.1779
18667W        W34928   5.017   8.322  12.732 -0.1031  0.1038  0.0187
18668W        W34929   8.766  11.978   2.795 -0.1473 -0.0052  0.1253
18669W        W34930  11.069  15.622  15.910 -0.2132  0.4201 -0.1337
18670W        W34931   7.730  11.600  14.192  0.0578  0.0323 -0.0488
18671W        W34932   1.301   9.990   4.133 -0.0711  0.0023 -0.0617
18672W        W34933   5.062  11.135   2.919  0.0307 -0.0425  0.2303
18673W        W34934   5.202  17.640  11.098  0.0374  0.1399  0.0078
18674W        W34935  11.316  15.892  15.051  0.1694 -0.3578  0.1621
18675W        W34936  16.002   7.462  14.967  0.0436 -0.1154 -0.0140
18676W        W34937  15.531  17.308   0.019 -0.0428 -0.3695  0.1273
18677W        W34938  12.324   6.223  13.978  0.3215  0.2938 -0.2297
18678W        W34939   3.048   4.257   3.990  0.0670  0.0741 -0.2957
18679W        W34940   0.832   3.161   2.952 -0.1771  0.0487 -0.0374
18680W        W34941  13.604   6.418  15.272 -0.3563 -0.0950  0.1077
18681W        W34942   5.951   1.816   2.958 -0.1341 -0.0483 -0.5464
18682W        W34943   0.950  11.849  12.903 -0.0925  0.0381 -0.1117
18683W        W34944   0.895  12.148   0.297 -0.0705  0.2682 -0.0684
18684W        W34945   9.035   8.356  11.099  0.0596 -0.0354 -0.0110
18685W        W34946  12.785   9.200  11.768  0.2723  0.1104 -0.0661
18686W        W34947  13.990  17.128   3.144  0.0307  0.3093 -0.2334
18687W        W34948   8.969   0.614  13.664 -0.0590  0.0108  0.0398
18688W        W34949   8.317   9.813   1.243 -0.0707  0.2527 -0.0246
18689W        W34950   0.983   5.508   6.302 -0.1630  0.1535  0.0826
18690W        W34951  17.378  17.834  15.507  0.0670  0.0362  0.2432
18691W        W34952   8.867   1.556  11.512  0.0812 -0.0966 -0.2457
18692W        W34953  17.429  17.273   3.761  0.0440 -0.1417 -0.1152
18693W        W34954  11.354   7.987   0.434  0.0897  0.2616 -0.0149
18694W        W34955   2.544  12.666   5.630  0.1222  0.0418  0.1919
18695W        W34956  11.749   3.447   5.305 -0.1717  0.1472  0.1480
18696W        W34957  13.100   7.496  11.962 -0.0931 -0.3812 -0.1415
18697W        W34958   0.902   3.182   0.895  0.2161 -0.0353 -0.2118
18698W        W34959   4.951  13.938   0.954 -0.1876  0.4049 -0.0836
18699W        W34960  17.965  17.004   0.690  0.0834  0.0213  0.1023
18700W        W34961   5.269   8.369   2.813  0.1442  0.0939  0.1857
18701W        W34962   1.728  12.753  15.260  0.0695  0.0680 -0.1160
18702W        W34963   7.680  17.391  14.066 -0.2309 -0.1120  0.2719
18703W        W34964   4.274   3.605  13.879 -0.2805  0.0369 -0.1647
18704W        W34965  16.632   6.192   0.869 -0.2120 -0.0430  0.0178
18705W        W34966   4.924   9.719   1.519  0.3565  0.0698  0.0743
18706W        W34967   3.788   3.912   5.418  0.1345 -0.1823 -0.1229
18707W        W34968  10.381   8.771   0.887 -0.0719  0.0565  0.2995
18708W        W34969   9.688  18.092  15.746  0.2670 -0.0119  0.0078
18709W        W34970   9.120  13.515  16.129 -0.3096  0.0988  0.1939
18710W        W34971  10.661  11.807  11.574 -0.1978  0.2547 -0.1957
18711W        W34972  17.587   4.122   3.850 -0.1663 -0.3994 -0.1301
18712W        W34973   3.431   0.900   0.434 -0.0825 -0.1003 -0.0386
18713W        W34974   0.130   0.315   3.105  0.0668  0.1635  0.1159
18714W        W34975  16.904  18.113  11.912  0.1353 -0.1491 -0.3169
18715W        W34976   9.080  13.531   1.539  0.0533 -0.2309 -0.2491
18716W        W34977  13.643  15.752  11.853  0.0495 -0.4038  0.4978
18717W        W34978   4.399  12.237  15.427  0.1252 -0.0772  0.1801
18718W        W34979   7.604   7.700  13.450 -0.1847  0.2085 -0.0016
18719W        W34980   9.919   1.767   3.834  0.1617  0.2023 -0.2646
18720W        W34981  16.382  12.935  10.497  0.2038 -0.0541  0.0643
18721W        W34982   1.112  18.288  14.619  0.0743 -0.1720 -0.1343
18722W        W34983  14.134   8.544   0.364 -0.1818  0.0921  0.3071
18723W        W34984   0.947   2.539   2.787  0.2372 -0.2821  0.0231
18724W        W34985   1.833   7.876  11.683  0.5270  0.1871  0.0333
18725W        W34986  12.064  13.031  15.659  0.0372  0.1422 -0.1479
18726W        W34987  13.630  11.429   4.732 -0.2129  0.2002  0.0998
18727W        W34988  10.082   6.245  12.370 -0.0102 -0.1019  0.0591
18728W        W34989  17.244  11.159   3.581  0.1634 -0.0050  0.0497
18729W        W34990   0.192  12.281  12.553  0.1169  0.1087  0.0375
18730W        W34991  17.659  12.710   0.116  0.0328 -0.1239  0.3096
18731W        W34992   8.202   7.262  14.882  0.4001 -0.1836 -0.4101
18732W        W34993   8.669   6.862   0.007  0.1852  0.0772  0.1530
18733W        W34994   0.069   1.609  14.610  0.2106  0.0373  0.2273
18734W        W34995   1.300  13.384   0.965 -0.1029  0.1843 -0.0045
18735W        W34996   6.068  11.481   5.525  0.0075 -0.1970  0.0374
18736W        W34997  15.783   3.830  12.066  0.1864  0.0886 -0.1808
18737W        W34998   2.812   2.204  15.086  0.1872 -0.0295  0.0176
18738W        W34999   0.762   5.176  15.528 -0.4444 -0.0966  0.1017
18739W        W35000  18.246  15.285  14.158  0.3834  0.1546  0.0011
18740W        W35001   0.230   3.493  14.673  0.0668 -0.0105 -0.1195
18741W        W35002  17.480   9.365  15.106  0.2664 -0.0262 -0.0171
18742W        W35003  11.840   1.867  14.539  0.1248 -0.1125  0.1130
18743W        W35004   5.676   2.357  13.845  0.1755 -0.0538 -0.0685
18744W        W35005  13.332  18.359  13.852 -0.0237  0.0387 -0.2553
18745W        W35006   9.882  15.515   2.298 -0.0618  0.3215  0.0308
18746W        W35007   7.871  14.048  14.178 -0.1572  0.0501  0.1660
18747W        W35008  11.082  10.572   4.842 -0.0526 -0.2456  0.0126
18748W        W35009  18.161   1.513   2.456 -0.2780 -0.0373  0.0277
18749W        W35010  15.298   9.500  12.526 -0.0406  0.2332 -0.0141
18750W        W35011  16.887  11.366  15.052  0.0497  0.0152  0.4163
18751W        W35012   1.598  16.979   3.325  0.2665 -0.2617 -0.2458
18752W        W35013  11.027   6.357   5.731  0.2151 -0.0742 -0.0042
18753W        W35014  17.026   1.329  11.294  0.1349  0.0257  0.0163
18754W        W35015   2.210  10.731  14.459  0.0397 -0.0002  0.1091
18755W        W35016  10.451   4.925  15.800 -0.1524 -0.0374 -0.0482
18756W        W35017  11.903  17.796   2.946  0.1584 -0.0461 -0.1499
18757W        W35018   4.984   0.283  15.087 -0.0638 -0.2065 -0.0181
18758W        W35019   9.529  17.777  12.635 -0.2180  0.1504  0.1384
18759W        W35020  14.599   7.212  13.615 -0.1718  0.3315  0.0541
18760W        W35021   7.134  16.626   1.371  0.4170  0.0558  0.1245
18761W        W35022   7.203  12.641   3.275 -0.1487  0.1356 -0.1725
18762W        W35023  10.318  15.557  13.607  0.0813 -0.0235 -0.1625
18763W        W35024   5.389   8.247   3.367 -0.1127  0.3498  0.1340
18764W        W35025   0.457   6.535   4.654 -0.3303 -0.2285  0.1402
18765W        W35026  18.177   1.530   3.694  0.0507  0.1001 -0.1272
18766W        W35027   2.809  16.891   0.668 -0.0398 -0.1984  0.1484
18767W        W35028   5.165   1.347   4.470 -0.1813 -0.0894 -0.0998
18768W        W35029   3.653  13.005  12.031 -0.0189  0.1546 -0.0582
18769W        W35030  15.301  15.232   2.799 -0.0949  0.1353 -0.0992
18770W        W35031  12.252   0.846   1.271  0.0947 -0.2112  0.0180
18771W        W35032  12.808   6.607   6.193  0.0470  0.0936  0.1777
18772W        W35033  18.014  12.818   4.112 -0.1330  0.0474 -0.0618
18773W        W35034   6.811   8.351   4.284 -0.2230 -0.0989 -0.1737
18774W        W35035  13.887   0.543  12.518 -0.1908 -0.0015  0.1465
18775W        W35036  11.412  11.944   3.071  0.1874  0.1950  0.0388
18776W        W35037  12.246  16.919   1.707 -0.0258  0.2145 -0.3455
18777W        W35038   1.503  11.342  14.781 -0.1803  0.0154  0.0686
18778W        W35039   3.924   6.537  15.156  0.0264 -0.2338  0.0350
18779W        W35040   3.829   5.954   4.291 -0.1271  0.1378 -0.2468
18780W        W35041   5.768   0.382   1.421  0.1153  0.0869  0.0601
18781W        W35042  11.457  13.114  10.996  0.0507  0.2472 -0.4136
18782W        W35043   2.139   2.680   4.409 -0.2810 -0.1474 -0.0326
18783W        W35044   0.930   0.304  14.970 -0.0182 -0.0256 -0.1801
18784W        W35045   4.557   2.564   3.447 -0.0114  0.0057  0.1412
18785W        W35046  13.964   8.069  12.600 -0.0233  0.0185 -0.2783
18786W        W35047  17.906  18.130   3.389 -0.1190  0.1443  0.1883
18787W        W35048  11.460   1.021  12.387  0.1394  0.0961  0.1721
18788W        W35049   1.734  14.865  14.802  0.1329 -0.3280  0.0064
18789W        W35050   4.901  13.797   2.594 -0.2328 -0.1953  0.1578
18790W        W35051   6.792   8.426  13.721 -0.1970  0.2969 -0.1265
18791W        W35052  13.741   1.217   0.803  0.0949  0.0864  0.2261
18792W        W35053   6.557   1.016   1.456 -0.1882 -0.0590 -0.2500
18793W        W35054  11.698   1.789   4.140  0.0078 -0.0560  0.2310
18794W        W35055  14.466   2.181   2.305 -0.2378 -0.2207  0.3329
18795W        W35056  11.314  11.495   0.076  0.1833 -0.1220 -0.0770
18796W        W35057   5.109  11.218   1.918 -0.0483  0.0263  0.0441
18797W        W35058   2.609   8.805  15.392  0.1978 -0.1984  0.1014
18798W        W35059   0.854   0.000   1.782  0.1154 -0.0229 -0.1942
18799W        W35060  11.072   9.037  15.895  0.1439  0.1997 -0.0271
18800W        W35061   4.443  18.174  15.617  0.0927 -0.0624 -0.3741
18801W        W35062  13.555   9.732  10.844  0.1598  0.0263  0.1165
18802W        W35063   1.661   9.296  16.280  0.1059 -0.1645 -0.2184
18803W        W35064   6.620  11.095   0.961 -0.2334  0.1327  0.2019
18804W        W35065   8.937  10.510  12.010 -0.1916 -0.1387  0.0080
18805W        W35066   8.132  17.103  16.218 -0.2918  0.1318  0.1080
18806W        W35067  11.791  15.119  11.263 -0.2048  0.2124  0.1860
18807W        W35068   3.145   7.200   0.873  0.3882 -0.0406 -0.2168
18808W        W35069   4.219   6.139  13.615 -0.1617  0.2596  0.1229
18809W        W35070   7.191   1.575  15.802 -0.0723 -0.3746 -0.1539
18810W        W35071  15.989   5.961  12.059 -0.1354 -0.0137 -0.1333
18811W        W35072  15.681   0.867   1.695  0.0921  0.0970 -0.1065
18812W        W35073   7.477  12.793   4.437 -0.0143  0.1804  0.0335
18813W        W35074   1.949   8.086   5.092  0.3637 -0.1108  0.2248
18814W        W35075   0.298   1.056   3.154 -0.0341  0.1923  0.0585
18815W        W35076   0.813  14.254   5.148  0.0637  0.2557 -0.0049
18816W        W35077   0.845   8.496  16.099  0.0619  0.1313 -0.1044
18817W        W35078  14.423   6.048   0.326 -0.0808  0.1125 -0.0370
18818W        W35079  10.715   8.822  14.179  0.1364  0.1175 -0.1012
18819W        W35080   6.553  14.862  13.683 -0.3014 -0.0865  0.2288
18820W        W35081  10.339   9.145  11.350  0.4765 -0.0601  0.0751
18821W        W35082  10.192   6.430  16.048 -0.1070  0.0129 -0.1604
18822W        W35083  15.955   6.320  15.617 -0.2086  0.0312  0.1817
18823W        W35084  18.039   7.156   3.110 -0.0959  0.1205  0.4091
18824W        W35085  14.579   9.038   2.000 -0.2239 -0.0591  0.1647
18825W        W35086   7.090   6.328   5.100  0.0540  0.2042  0.0934
18826W        W35087  18.306   5.810   3.483 -0.2360 -0.3117 -0.3057
18827W        W35088   7.295  15.428   4.118  0.1962 -0.1838 -0.1511
18828W        W35089  16.923  13.891   2.218 -0.5307 -0.2359  0.0248
18829W        W35090   8.261   4.401  11.370 -0.3520 -0.1743 -0.3676
18830W        W35091   6.851   4.832  14.630 -0.3219  0.0309 -0.0480
18831W        W35092   7.986  12.955  13.295 -0.0054 -0.0274 -0.0202
18832W        W35093   0.179  12.742   3.628  0.2889 -0.2022  0.0977
18833W        W35094  16.881  17.609   4.067 -0.0146 -0.0806 -0.1038
18834W        W35095  12.585  18.039   4.645 -0.4722  0.1469 -0.0865
18835W        W35096  10.795   2.835  15.229  0.1636 -0.0136  0.0573
18836W        W35097  12.111  17.134  12.499 -0.0259  0.3000 -0.0125
18837W        W35098   6.771   9.722   4.437 -0.1190  0.1523  0.0749
18838W        W35099   3.173  10.707   4.742 -0.0668  0.0213  0.2353
18839W        W35100  17.777   7.416   2.762  0.2944  0.1424 -0.0163
18840W        W35101  10.870  13.974   2.445  0.1019 -0.2018 -0.2134
18841W        W35102  13.171   4.471  15.376  0.0291 -0.3594  0.3378
18842W        W35103  13.468   3.296   1.283  0.0621  0.1979  0.1240
18843W        W35104   4.600   7.545   5.448 -0.0729  0.2227 -0.0372
18844W        W35105  15.121  14.696   3.826  0.0205  0.0361  0.1148
18845W        W35106   5.618   8.932  13.354  0.2193  0.2883  0.3439
18846W        W35107   8.527  17.587   3.411 -0.4989 -0.3331 -0.0693
18847W        W35108   0.011   2.357  12.669 -0.0077  0.2043 -0.0235
18848W        W35109  13.144   2.142  14.184  0.1281  0.0716 -0.0501
18849W        W35110   6.702   4.509   0.182  0.0637 -0.2742  0.1884
18850W        W35111   4.061  12.268   2.337 -0.1157  0.1389 -0.0096
18851W        W35112  11.511  16.324   3.043 -0.2560 -0.1002 -0.0410
18852W        W35113  12.943  12.222   0.560  0.0987  0.1237 -0.2727
18853W        W35114   5.646   5.073   2.265  0.2519  0.2429  0.1427
18854W        W35115  13.373   6.890  12.128 -0.0367 -0.3167 -0.0602
18855W        W35116   5.348  15.529  11.705  0.1130  0.2604 -0.2987
18856W        W35117   6.019  11.927  15.515 -0.0136  0.2509  0.2892
18857W        W35118   5.356   7.627   3.800  0.1068  0.0761  0.2732
18858W        W35119   6.175   5.931  13.522 -0.1736 -0.2590 -0.1039
18859W        W35120   3.988   4.735   5.752  0.2141 -0.1187 -0.3092
18860W        W35121   8.682   9.984  12.404 -0.0945  0.5687  0.0233
18861W        W35122   4.463  15.563   1.042  0.1140  0.1128 -0.0501
18862W        W35123   2.151   3.330  12.992 -0.2568  0.0850 -0.2192
18863W        W35124   4.485  10.783  14.504  0.1928 -0.0617 -0.1192
18864W        W35125  11.606   8.880   2.332  0.1432  0.2152  0.2385
18865W        W35126  17.344   0.225   3.960  0.1107 -0.1202  0.0947
18866W        W35127  10.243  16.087  12.709  0.1879 -0.0006  0.0564
18867W        W35128   6.032   6.888  15.415  0.0396  0.0352  0.0361
18868W        W35129   6.920   2.707   2.356  0.1955  0.2960  0.0116
18869W        W35130   7.359   6.906  14.644 -0.1220  0.4289 -0.0716
18870W        W35131  14.043   3.130   3.241  0.1845 -0.1136 -0.0732
18871W        W35132  15.781  10.102   0.642 -0.0004  0.0668 -0.3496
18872W        W35133   6.376   8.067  13.780 -0.0097 -0.1274 -0.1209
18873W        W35134  16.724  10.714   3.340 -0.3997 -0.0315 -0.1979
18874W        W35135   5.115   9.295  12.892  0.1841  0.1749 -0.0583
18875W        W35136  17.874   0.340   1.179 -0.4080 -0.3007  0.1067
18876W        W35137   8.526   2.119   2.269  0.2762  0.4326  0.0034
18877W        W35138  13.897  10.509   4.017 -0.0629 -0.0223 -0.4197
18878W        W35139  14.370  14.598  14.972  0.0411  0.2247  0.0349
18879W        W35140  14.901  15.986  13.198 -0.1366 -0.1435  0.0540
18880W        W35141   2.599   8.375   5.182  0.1631 -0.0127 -0.1553
18881W        W35142  14.684   0.555  15.204  0.0034 -0.1643  0.4620
18882W        W35143   4.826  11.079   5.467 -0.1767  0.3474 -0.0473
18883W        W35144   8.344  13.631  15.833 -0.0393  0.0017  0.1066
18884W        W35145   6.876  16.480  12.479 -0.1428  0.2215  0.0405
18885W        W35146   2.057   4.138   0.436  0.0879  0.2474  0.0726
18886W        W35147  10.350   9.591  12.929 -0.1312 -0.1510  0.2881
18887W        W35148   0.872   5.833   3.612  0.0926 -0.1214  0.0913
18888W        W35149   9.443  12.126  12.859 -0.0105 -0.3900  0.2804
18889W        W35150  11.927   9.683   0.460  0.0845  0.2160 -0.1581
18890W        W35151  11.432   7.338  15.226  0.0533  0.0987  0.0495
18891W        W35152  18.194   3.408   1.990  0.1787  0.1613  0.0411
18892W        W35153   9.853  10.495   0.833  0.2010  0.0181  0.0011
18893W        W35154  14.388   6.192   2.054 -0.1726  0.0976  0.0281
18894W        W35155   4.865   9.886   2.182  0.0683  0.0160 -0.1891
18895W        W35156  15.996   4.574   2.980  0.0193  0.0223 -0.2193
18896W        W35157  13.859   5.812   6.025 -0.0268 -0.2580 -0.2529
18897W        W35158   1.829   1.312  13.223  0.0949  0.0660  0.1492
18898W        W35159   8.430  12.235   0.080  0.0887  0.0056  0.1745
18899W        W35160  14.816  15.442   2.832 -0.2503 -0.0519 -0.1115
18900W        W35161   5.237  10.306   4.684 -0.1383 -0.0081  0.1432
18901W        W35162  13.203   9.437   4.988 -0.2802  0.1427 -0.3459
18902W        W35163  13.444   0.801   4.113  0.2635 -0.2743  0.1377
18903W        W35164   8.450   7.877   4.041  0.1904 -0.2207  0.0577
18904W        W35165   1.475   3.060   0.435 -0.3044  0.0721 -0.0756
18905W        W35166   3.934  14.963  13.237 -0.2057 -0.2669 -0.0379
18906W        W35167   1.832  12.128   3.807 -0.1937 -0.0915  0.0139
18907W        W35168   6.838  17.395   1.896 -0.5174 -0.1470  0.1884
18908W        W35169   4.865   1.977   5.081 -0.0497 -0.0844 -0.1239
18909W        W35170   7.394   4.571   1.283  0.0078  0.1791 -0.0427
18910W        W35171  12.838   4.182  12.537 -0.0576 -0.2320 -0.0569
18911W        W35172  11.370   4.840  13.342 -0.1717 -0.1178 -0.2005
18912W        W35173  16.178  13.481  12.880  0.3386  0.1463  0.0906
18913W        W35174   1.592  17.546   1.956  0.0998 -0.0555 -0.2011
18914W        W35175  14.286   3.663   1.863 -0.0289 -0.0764  0.1559
18915W        W35176  14.885  18.330   5.139 -0.2022  0.0406  0.3660
18916W        W35177   7.557  17.944  12.503 -0.2700  0.2025 -0.3109
18917W        W35178   2.865   5.733  14.606  0.0203  0.4014  0.0311
18918W        W35179   1.800  12.966   4.400 -0.0203 -0.1356  0.0924
18919W        W35180  14.605   4.668   4.506  0.2708  0.0659 -0.3508
18920W        W35181   2.315   3.111   2.382 -0.0169 -0.1888 -0.1840
18921W        W35182   7.145   6.185  15.300 -0.0282 -0.2058 -0.0413
18922W        W35183   4.586   6.688   4.248  0.1376 -0.1099  0.1802
18923W        W35184   1.799  17.334   3.573  0.2295 -0.0287  0.4891
18924W        W35185   4.581   3.360  13.400  0.0376 -0.1432  0.1990
18925W        W35186  18.008   7.164  13.248  0.3496  0.0899  0.0003
18926W        W35187  18.375  17.635  15.716  0.1327  0.1801 -0.1447
18927W        W35188   7.075  10.093  15.699  0.1670 -0.0169 -0.3489
18928W        W35189  10.250   1.955   5.826 -0.0391 -0.3480 -0.1616
18929W        W35190   2.135  16.965  11.839  0.0796 -0.0161  0.0476
18930W        W35191  10.281  18.010   4.676 -0.2120  0.1168  0.1521
18931W        W35192  18.308   9.290   3.630 -0.0357 -0.0184  0.0414
18932W        W35193   2.155  11.750  13.129 -0.1089 -0.2341  0.1555
18933W        W35194   7.109   2.755   4.077 -0.2030 -0.1923  0.0630
18934W        W35195  12.852  17.953   2.726 -0.3473 -0.0168  0.2503
18935W        W35196   2.950  14.842  14.679  0.1181 -0.4803  0.0317
18936W        W35197   2.560   0.897  12.873  0.1343 -0.1840 -0.0563
18937W        W35198  14.953  16.486  12.950 -0.0558 -0.1236 -0.1015
18938W        W35199  11.950   3.833  14.209 -0.2527  0.1005 -0.0351
18939W        W35200  17.352   8.860   2.587  0.2095 -0.0542 -0.1335
18940W        W35201   8.934   7.416  14.066  0.3577  0.1420  0.0252
18941W        W35202  17.990   5.517  12.113 -0.1530  0.0283  0.1806
18942W        W35203  14.687  17.640   3.630  0.1247  0.0134  0.0936
18943W        W35204   8.285  12.978   5.091  0.0488  0.3701  0.0571
18944W        W35205   6.617   7.928  14.574  0.0613 -0.4942 -0.3881
18945W        W35206  11.570   4.065   3.636 -0.2437 -0.1216 -0.2153
18946W        W35207   5.142  17.371   3.203 -0.0753  0.1640 -0.2745
18947W        W35208   5.087  16.175  12.942 -0.0281 -0.0507 -0.1145
18948W        W35209  13.241   4.331   3.272  0.1610  0.1087 -0.1301
18949W        W35210   0.491   0.259  13.475 -0.1320 -0.1116 -0.3933
18950W        W35211   1.281  13.100  15.252  0.0357  0.6968  0.2703
18951W        W35212   2.915   1.428   3.376  0.4013 -0.2880  0.0359
18952W        W35213  14.985   5.391   0.623  0.1227  0.0654  0.2188
18953W        W35214  16.346   0.349   4.066  0.3008  0.0200 -0.1806
18954W        W35215   5.195   5.911  13.124 -0.0631  0.0659  0.1754
18955W        W35216  12.233  11.889  16.235 -0.0641  0.0130  0.1176
18956W        W35217   5.493   6.474  13.291  0.0330  0.0828 -0.0312
18957W        W35218  10.729   2.638  11.612 -0.0852  0.1149  0.3600
18958W        W35219  12.475   6.945   5.272 -0.4736  0.0938  0.0379
18959W        W35220  15.341   4.026   0.373  0.0811 -0.3929  0.1420
18960W        W35221  18.090   6.874  11.085  0.1292 -0.0691 -0.3756
18961W        W35222  10.529  15.655   6.054  0.1858  0.3174 -0.1430
18962W        W35223   3.857   4.726  13.155 -0.2953 -0.2810 -0.1260
18963W        W35224  14.814   1.770   1.645  0.0205  0.0317 -0.2687
18964W        W35225  18.321  15.818  15.026  0.3516  0.3762 -0.1047
18965W        W35226   0.916  15.054   3.735  0.3064 -0.0978  0.2322
18966W        W35227   7.768   0.529   1.434 -0.1063  0.0884 -0.3856
18967W        W35228  18.030  12.763   3.568  0.0983 -0.0381 -0.0341
18968W        W35229   0.403  13.714   6.194  0.0107 -0.1146  0.3479
18969W        W35230  17.458  16.976  14.251  0.0273  0.0720 -0.0353
18970W        W35231   9.000   0.493  14.596 -0.0565  0.1541 -0.1793
18971W        W35232  18.348   8.627   1.781  0.1884  0.4016 -0.3407
18972W        W35233  10.844  11.656   1.218  0.2321  0.1125  0.1800
18973W        W35234  17.739   9.115   2.476 -0.2843  0.0076  0.1627
18974W        W35235   8.872   4.323   5.197  0.0726  0.2574  0.0622
18975W        W35236  16.419   9.537   2.296 -0.2238  0.4288  0.2176
18976W        W35237  14.047   0.015   0.406  0.1405  0.1842  0.1852
18977W        W35238  15.787   8.044  16.269 -0.0209  0.1536 -0.0804
18978W        W35239  11.067   2.928  13.375 -0.1416 -0.2854 -0.0676
18979W        W35240   9.828   6.448   3.239  0.3437  0.0160  0.1649
18980W        W35241   0.761   7.239  12.915 -0.0833  0.1161 -0.0858
18981W        W35242   2.051  16.168  15.330  0.1910  0.0583 -0.1029
18982W        W35243  14.171  11.052  11.315 -0.0198  0.0409  0.0287
18983W        W35244  13.087   0.492  12.408 -0.1074  0.1413 -0.2523
18984W        W35245  12.817   8.404   1.644  0.1015 -0.1660 -0.0206
18985W        W35246  17.571   5.524  13.493  0.3237 -0.0141 -0.3553
18986W        W35247   6.962   7.035   3.548  0.2716  0.1688  0.0426
18987W        W35248  11.705   7.624   1.813  0.1813 -0.1611 -0.1438
18988W        W35249  10.865   7.322  15.346 -0.1535  0.3184 -0.1222
18989W        W35250   0.582   3.816  13.936 -0.0654 -0.1284 -0.1431
18990W        W35251   1.543  15.822   2.779  0.3135 -0.0576  0.0497
18991W        W35252  12.334   8.765   5.452 -0.1030  0.1782  0.1092
18992W        W35253  12.860  14.479  12.207  0.1724 -0.1908  0.2631
18993W        W35254   4.304   5.221   0.947  0.1971 -0.0496  0.0458
18994W        W35255   1.660  14.104   4.857  0.0567  0.0459  0.1523
18995W        W35256  15.547  16.313   1.137 -0.0152  0.1795  0.0244
18996W        W35257  17.187   8.475  14.970  0.1032 -0.0064 -0.0823
18997W        W35258   3.357   0.938  14.171 -0.2240 -0.2146 -0.2490
18998W        W35259  16.925  15.872  14.529  0.1545  0.0477  0.3435
18999W        W35260  15.038  17.150  12.293 -0.0253 -0.0174  0.0152
19000W        W35261   0.930   8.160  14.420  0.1819  0.2037  0.0391
19001W        W35262   9.466  14.111   2.193  0.2140  0.1870  0.2557
19002W        W35263  11.401  15.520   1.601 -0.1331  0.0141  0.2880
19003W        W35264   9.488   1.101   2.912 -0.1921 -0.2965  0.1663
19004W        W35265  14.290   0.488  14.914  0.2812  0.0220  0.0459
19005W        W35266   7.680   1.527   3.886 -0.2842  0.0826  0.0926
19006W        W35267   7.601  11.478  13.120 -0.3050  0.2037  0.2556
19007W        W35268   2.855   6.592  15.680  0.1356 -0.0061 -0.1306
19008W        W35269  12.989  17.934   3.804  0.1610 -0.0575  0.1933
19009W        W35270   1.272   2.813  12.496 -0.0386 -0.0657  0.3474
19010W        W35271   0.987   4.564   2.135  0.0868 -0.0408  0.0463
19011W        W35272   4.201  17.858  11.332  0.0441 -0.0631 -0.2639
19012W        W35273   7.711   0.176  13.301  0.1282  0.1005 -0.0776
19013W        W35274   1.825  16.059   3.103 -0.0897  0.0202  0.0757
19014W        W35275  10.962   3.980   2.255  0.0355 -0.1023  0.0815
19015W        W35276  17.513   5.987   5.476 -0.2101 -0.0485  0.1525
19016W        W35277  12.787  18.011   5.171  0.0764 -0.3159  0.0962
19017W        W35278   3.424  11.535  14.171  0.1078 -0.3414  0.1634
19018W        W35279  16.723  11.308   1.611  0.2812 -0.0258  0.2348
19019W        W35280  12.042  13.374  12.306 -0.1336  0.2370 -0.0444
19020W        W35281   0.107   8.438  15.259 -0.2065  0.1183  0.0600
19021W        W35282   3.183   3.614   2.419  0.0818  0.2062  0.2259
19022W        W35283   0.306   3.027  14.452  0.2835 -0.1202  0.0830
19023W        W35284   5.848   2.000   3.420 -0.2888  0.2950  0.1469
19024W        W35285   3.631   0.803   1.474  0.0851  0.1094 -0.0837
19025W        W35286  16.754   5.055   1.008  0.1145  0.1876  0.1186
19026W        W35287  15.006   7.653  13.659 -0.1551  0.0058  0.1493
19027W        W35288   2.646  15.492   2.052 -0.1397  0.1465  0.0497
19028W        W35289   5.730  15.497   0.141  0.2583 -0.0148 -0.2465
19029W        W35290  17.182  13.009  12.665 -0.4908  0.0022 -0.0655
19030W        W35291   6.590   5.657  14.328  0.0274  0.1073  0.0689
19031W        W35292  12.422   0.334   1.526 -0.2762  0.3299  0.0639
19032W        W35293  13.679   7.719   5.390  0.3192 -0.3064 -0.2151
19033W        W35294  14.128  11.285  15.724 -0.2560 -0.1255  0.1045
19034W        W35295   6.666  12.015  14.018  0.2017  0.0496  0.1879
19035W        W35296  14.185  17.408   2.780  0.0521  0.3796 -0.0860
19036W        W35297   3.193  13.852   4.456 -0.0852  0.0293 -0.2458
19037W        W35298   6.548  15.270   1.540 -0.2036  0.0571 -0.2495
19038W        W35299  18.125  10.693  16.000  0.1422 -0.0404 -0.0917
19039W        W35300  14.666  16.262   0.918  0.0981 -0.0705  0.3128
19040W        W35301   6.699  14.141   1.006  0.1111 -0.1014 -0.0239
19041W        W35302  17.335  13.811  14.074  0.1982  0.0690 -0.1778
19042W        W35303   0.816   5.538   1.769  0.2813 -0.2004 -0.1513
19043W        W35304   1.373  14.980  15.233  0.0386 -0.3235  0.3384
19044W        W35305   4.351  14.009  11.033  0.2378  0.0660  0.0398
19045W        W35306  16.158   2.683  12.142 -0.0321 -0.0874 -0.1789
19046W        W35307  16.632   2.677   5.903  0.4859  0.1319 -0.1185
19047W        W35308   3.290   9.765   1.202 -0.4106 -0.1057  0.0323
19048W        W35309   6.913  12.184   2.098  0.1628  0.2709 -0.1548
19049W        W35310   5.149  15.321  12.158  0.0791 -0.1824 -0.0209
19050W        W35311   8.617   5.613   4.660  0.1110 -0.2061  0.2525
19051W        W35312   9.402   3.679  14.867  0.0848 -0.0440 -0.3553
19052W        W35313   6.781   6.349   2.726  0.0114 -0.1540 -0.2257
19053W        W35314  17.021  16.231  13.937  0.1597 -0.1049  0.1533
19054W        W35315   8.277   4.296   0.897 -0.0302 -0.1518 -0.1388
19055W        W35316   2.267  14.977  12.255 -0.0070 -0.2188 -0.0229
19056W        W35317   7.512  15.383   3.491 -0.2618 -0.1397 -0.0440
19057W        W35318   2.506  16.880  10.839  0.0414 -0.0365 -0.1696
19058W        W35319  15.652  10.466  11.577 -0.2705  0.0943 -0.1261
19059W        W35320   1.355  14.049  11.362  0.3990  0.0024 -0.0441
19060W        W35321   8.814   4.496   4.314 -0.2020  0.2742 -0.4033
19061W        W35322   7.999   6.233  13.035 -0.1867  0.4419  0.1001
19062W        W35323   5.360   6.557  13.723 -0.0626  0.1174  0.0701
19063W        W35324   2.663   8.048   1.507 -0.3521  0.3293  0.3266
19064W        W35325  14.658  17.898  15.513 -0.1009 -0.0144 -0.1688
19065W        W35326   3.155   3.759  12.406 -0.2121 -0.1829  0.0405
19066W        W35327  15.257   3.356   4.381  0.4021  0.3961 -0.1083
19067W        W35328   4.721   6.433   2.322 -0.1582 -0.0457 -0.0416
19068W        W35329   1.886  13.558   4.924 -0.2269 -0.2237 -0.0240
19069W        W35330  15.623   3.922   3.737  0.1941 -0.1155 -0.2094
19070W        W35331   2.668  14.856   2.757  0.0112 -0.3326 -0.0465
19071W        W35332  18.241   9.943   2.505 -0.1856  0.1667 -0.1621
19072W        W35333   0.668   6.832  13.738 -0.2462 -0.2870  0.2683
19073W        W35334  11.110  18.106   0.697 -0.0588  0.2025  0.0917
19074W        W35335   6.565  11.823  11.989 -0.1809 -0.2418  0.3207
19075W        W35336   8.806  17.251  12.272  0.2893 -0.0099  0.2989
19076W        W35337   2.668  10.414   5.841 -0.1195 -0.0996 -0.4052
19077W        W35338   8.715   2.131  11.850 -0.0176  0.1446 -0.2402
19078W        W35339   2.092  17.320   1.922 -0.1138 -0.0746  0.0809
19079W        W35340  14.931   1.907  13.097 -0.2890  0.2113 -0.0310
19080W        W35341   1.532   1.877  12.537 -0.2579  0.3126  0.4802
19081W        W35342  15.811   5.468   4.106 -0.0398  0.0829 -0.1162
19082W        W35343   5.196  10.675   1.167 -0.0610 -0.2998 -0.3593
19083W        W35344  18.330   3.025  12.181 -0.0676 -0.0771  0.0928
19084W        W35345   1.893   1.631  14.006 -0.1021 -0.1025 -0.0536
19085W        W35346  15.527  15.131   2.341 -0.0092 -0.0470  0.1786
19086W        W35347   0.687  10.823   4.377  0.0496 -0.2816  0.1407
19087W        W35348  15.445  13.448  15.804  0.0504 -0.2411 -0.0249
19088W        W35349  11.539   5.929  15.320  0.2008  0.2232 -0.1316
19089W        W35350   5.996  14.731   1.047 -0.0062  0.1772 -0.1973
19090W        W35351   2.103   1.443   3.845  0.5525 -0.2951 -0.1652
19091W        W35352   5.219  11.637  11.254  0.2019 -0.1595 -0.1941
19092W        W35353   8.071   1.735   3.592  0.0380  0.1478  0.2099
19093W        W35354  15.843   9.675   3.119  0.2569 -0.2039 -0.0310
19094W        W35355   1.099   9.360   3.066 -0.0438  0.1799  0.1128
19095W        W35356  10.060  16.290   0.944  0.1672 -0.2743 -0.1555
19096W        W35357  17.339   5.783   3.974  0.0868 -0.2431 -0.1154
19097W        W35358  14.341  15.530   0.230 -0.0454  0.0174  0.0553
19098W        W35359  16.385   2.789   3.170 -0.1082  0.3651 -0.1836
19099W        W35360  14.717   7.572   2.907 -0.2805  0.4669  0.1177
19100W        W35361  12.157   0.396  11.898 -0.1854  0.0978  0.0072
19101W        W35362  16.120  10.256   4.743  0.2160 -0.0224 -0.1426
19102W        W35363   1.357   5.449   2.912 -0.0134  0.2619 -0.4876
19103W        W35364   0.208  17.258   5.590  0.0790 -0.0200  0.1544
19104W        W35365   2.343  11.409  12.387 -0.4104 -0.2010 -0.2091
19105W        W35366   0.216  13.247  14.168  0.0985 -0.1242 -0.1020
19106W        W35367  11.083   7.944  13.271  0.0837  0.6111  0.1427
19107W        W35368   8.647   7.178   9.665 -0.1191 -0.1336 -0.1030
19108W        W35369   4.208  12.904  12.261 -0.0074  0.0868 -0.2018
19109W        W35370   7.449  15.624  15.239 -0.1662  0.2661  0.1562
19110W        W35371  11.728   8.349  15.211  0.0761  0.1366 -0.1279
19111W        W35372  10.543   3.186  12.956 -0.2502 -0.0924 -0.2022
19112W        W35373   3.196  11.975   4.980  0.1630  0.2126 -0.3781
19113W        W35374   1.133   3.552   1.561 -0.0339 -0.0177 -0.1435
19114W        W35375   6.468  14.596   1.121 -0.1985  0.1281 -0.1275
19115W        W35376  10.534   3.635  10.867  0.2037  0.0092 -0.1477
19116W        W35377  17.092   1.505  14.962 -0.2068 -0.1112 -0.0895
19117W        W35378   3.073  16.440   0.799 -0.3036 -0.0126  0.3424
19118W        W35379   3.908   9.136   0.990  0.1062 -0.0190  0.5422
19119W        W35380  11.419   7.826   1.466  0.2584 -0.1256  0.1418
19120W        W35381  12.838   0.930   5.366 -0.1000 -0.0231 -0.1425
19121W        W35382   0.154   9.527   2.221 -0.5365 -0.0256 -0.0026
19122W        W35383  16.896  16.022   0.833 -0.2202 -0.0828  0.3787
19123W        W35384   9.308  11.294   4.907 -0.0348  0.5528  0.1746
19124W        W35385   4.930   7.049  14.343 -0.2012  0.2306  0.0476
19125W        W35386   3.946  12.880  14.642 -0.2432  0.0646  0.0313
19126W        W35387  13.379   2.926  11.644  0.1750  0.0348 -0.2637
19127W        W35388   1.268  16.789  14.356  0.0278 -0.0616 -0.4371
19128W        W35389  17.271   6.246   2.413 -0.0818 -0.1315 -0.1407
19129W        W35390   8.043  17.617  11.821 -0.0567  0.0686 -0.3225
19130W        W35391  16.469  12.652   0.415 -0.1040  0.0045  0.1651
19131W        W35392   9.628  14.106   5.825  0.0794 -0.2558 -0.0438
19132W        W35393   7.641  10.895  11.857 -0.1552 -0.3461 -0.0555
19133W        W35394  12.337  10.523   9.737  0.0142  0.0650  0.1469
19134W        W35395  10.116  15.246  13.133 -0.1860  0.1066  0.1953
19135W        W35396   2.027   1.742   3.222  0.2153  0.0082  0.0416
19136W        W35397  18.092  16.194  13.128  0.0026  0.0123 -0.3310
19137W        W35398   8.196  15.541  14.248 -0.1948  0.0186  0.1083
19138W        W35399  13.757  18.351  13.642 -0.1959 -0.0973  0.2981
19139W        W35400  12.323  16.454   3.075  0.3957 -0.0187 -0.2668
19140W        W35401   4.372   9.736  16.289  0.0948  0.2550 -0.2439
19141W        W35402   4.688  13.887  12.479 -0.0912 -0.2455  0.1603
19142W        W35403   2.985   5.763   1.337 -0.0611  0.1633 -0.0342
19143W        W35404   2.306   0.870   0.695 -0.0540 -0.0699 -0.0410
19144W        W35405   5.098  15.564   4.310  0.0542  0.0363  0.2277
19145W        W35406  11.203   7.119   4.674 -0.1296  0.1756 -0.0637
19146W        W35407  12.384   6.052   2.925 -0.0413  0.2055 -0.1273
19147W        W35408  13.763  15.573   4.745  0.5430  0.1163  0.2327
19148W        W35409   7.513   3.245   5.291  0.0053 -0.1771  0.0648
19149W        W35410  13.434  16.594   4.862  0.1086  0.1192  0.1826
19150W        W35411   7.189  17.409   5.116  0.0589  0.1141  0.0559
19151W        W35412   0.031   2.464   4.229 -0.0047  0.0755  0.2356
19152W        W35413  10.327   2.994  11.648 -0.1410 -0.2845  0.3411
19153W        W35414   7.420  16.254  13.037  0.1512 -0.0073  0.3191
19154W        W35415  16.035  15.298  14.555 -0.0625 -0.0672  0.0271
19155W        W35416   7.467   6.310   4.606  0.1596  0.1012 -0.1173
19156W        W35417   3.302  15.695   3.798 -0.2558  0.0591 -0.2158
19157W        W35418  11.128  15.221  13.742 -0.3116  0.0231  0.0314
19158W        W35419  17.494  18.196   3.701 -0.0424  0.1607  0.0394
19159W        W35420  17.310   8.351  14.279  0.1561  0.3905 -0.3572
19160W        W35421  16.705   0.346   0.643 -0.0690 -0.0926 -0.0861
19161W        W35422  14.204   8.503  11.851  0.0698 -0.2328  0.1701
19162W        W35423   7.910   7.832  12.118 -0.0296  0.2170 -0.2660
19163W        W35424  14.482  13.924   2.981  0.0441  0.0528 -0.2459
19164W        W35425  11.949   7.685   4.709 -0.1424 -0.2201  0.1364
19165W        W35426   3.582  16.502   5.147 -0.1418 -0.1143  0.0360
19166W        W35427   4.656   9.968  12.706  0.0380 -0.1742 -0.3253
19167W        W35428   7.967  16.730  13.786 -0.3892  0.0165 -0.2694
19168W        W35429  10.140  17.008  13.904 -0.2500  0.2983  0.0167
19169W        W35430  11.135  16.411  14.550 -0.1172 -0.0622  0.3888
19170W        W35431   9.786   6.941   3.166  0.2420 -0.0564 -0.0647
19171W        W35432  13.417   6.749   0.746  0.4263  0.0664 -0.0637
19172W        W35433   1.228  16.114  14.786  0.0242  0.1037  0.3743
19173W        W35434  13.340   1.006  15.594  0.1434  0.2450 -0.2048
19174W        W35435   4.906  10.265   4.253 -0.1022 -0.0878  0.0803
19175W        W35436   9.568  13.814  14.053 -0.0346  0.2017  0.3533
19176W        W35437   7.916  14.349  13.185 -0.2302 -0.3899  0.0382
19177W        W35438  17.934   5.476   2.642 -0.0051  0.2702  0.0229
19178W        W35439   9.219   0.716   5.405  0.1142 -0.0578 -0.0584
19179W        W35440  16.622  13.778  16.282  0.3357 -0.1253  0.0533
19180W        W35441   7.229  18.086  13.908  0.0570  0.2365  0.0916
19181W        W35442   9.722   7.971  15.045  0.0929 -0.0163 -0.0862
19182W        W35443  16.840   0.645  11.836  0.1085 -0.0962 -0.0211
19183W        W35444   8.454  11.612   2.344  0.3776 -0.2170 -0.0406
19184W        W35445   3.762  13.300   4.734 -0.0660  0.1735  0.2290
19185W        W35446   2.856   7.597  13.468 -0.1210  0.4221 -0.2855
19186W        W35447   0.317   1.979   2.521  0.3668  0.3118  0.0653
19187W        W35448   2.804   9.568   4.401  0.0183 -0.1215 -0.0026
19188W        W35449   0.472   9.569  11.337 -0.2623 -0.1267  0.0248
19189W        W35450  10.552   3.374  15.762 -0.2008 -0.0554 -0.0245
19190W        W35451   4.554   7.127  16.110 -0.0822 -0.1471  0.2133
19191W        W35452   8.249   4.766   2.414 -0.1955 -0.1632 -0.0694
19192W        W35453  13.393   5.884  13.718  0.0690  0.1360 -0.0134
19193W        W35454   8.781  18.111  12.091 -0.0279 -0.0306  0.0191
19194W        W35455  10.972   5.285  11.937 -0.0176  0.0800  0.1138
19195W        W35456   9.306   0.445  15.682 -0.2246  0.1904  0.1750
19196W        W35457   7.651   1.448  13.202  0.2246  0.1625 -0.1562
19197W        W35458   7.696   7.687   2.593 -0.0051  0.0161 -0.3334
19198W        W35459  15.358   3.165   5.326 -0.0284 -0.2168  0.1273
19199W        W35460   2.567  15.860  15.288  0.2017 -0.0640  0.2010
19200W        W35461  17.419  17.354  11.617  0.0071 -0.0350  0.0094
19201W        W35462   4.521   0.161   0.130 -0.1191 -0.0418  0.0632
19202W        W35463   4.501  12.417   4.614  0.0344 -0.0033  0.2078
19203W        W35464  16.915   0.498   2.161  0.0793  0.0671 -0.3361
19204W        W35465   8.464   2.413  11.150  0.0635 -0.0164 -0.2495
19205W        W35466   3.552   7.020  13.799 -0.0985 -0.2122  0.0091
19206W        W35467   3.473  11.558   3.497  0.1984 -0.3793 -0.2590
19207W        W35468   0.697  17.598  11.381  0.0057  0.1577 -0.0491
19208W        W35469  11.275  11.373   2.332  0.3234 -0.0396  0.0447
19209W        W35470  16.261   8.685  14.408 -0.0366  0.0078 -0.1013
19210W        W35471   0.136   5.315  11.774  0.1700 -0.0559 -0.3119
19211W        W35472   6.836   7.004   2.783 -0.3069 -0.0707  0.1674
19212W        W35473   7.398   8.657  13.783  0.1518  0.0002  0.1784
19213W        W35474   0.976  10.964  15.751  0.0063 -0.0553 -0.1682
19214W        W35475   9.554   2.246   0.454 -0.0393 -0.2667  0.0345
19215W        W35476  16.256   0.138   4.880 -0.1929 -0.1258  0.1745
19216W        W35477   4.011  18.178   4.943 -0.0281  0.1979 -0.2268
19217W        W35478   8.687  12.049  11.369 -0.2667 -0.1516 -0.2254
19218W        W35479   3.960   8.977  14.113  0.0977  0.2111  0.3762
19219W        W35480  16.093   9.522  14.845  0.0283  0.1032 -0.1971
19220W        W35481   3.607  10.304  13.356 -0.3028  0.0809 -0.1120
19221W        W35482   2.107  14.400  11.417 -0.1015  0.1568  0.0078
19222W        W35483  14.874  11.766   2.963  0.0150 -0.0427  0.0319
19223W        W35484  12.831  17.358   2.765  0.0398  0.1382 -0.0513
19224W        W35485   0.850   4.487   3.370 -0.3817 -0.0263  0.2636
19225W        W35486  13.004   6.308   5.019 -0.2463 -0.0224 -0.0235
19226W        W35487   9.196   2.715  16.094 -0.4063  0.0507  0.1426
19227W        W35488  16.453   9.789  12.842  0.1712 -0.4730 -0.1376
19228W        W35489   7.788  10.123  16.184 -0.0953 -0.3152 -0.1176
19229W        W35490  11.207   9.451   5.121 -0.2075  0.5090 -0.0692
19230W        W35491  14.644   5.601   0.286  0.0721  0.1217  0.0713
19231W        W35492  17.000   4.300  16.195 -0.3131  0.1010  0.2196
19232W        W35493  16.063   2.172   3.162 -0.0037  0.1599  0.1380
19233W        W35494  15.203  10.523   1.622  0.1266  0.1610  0.3161
19234W        W35495   6.945  12.915  15.963  0.0732 -0.0460  0.0826
19235W        W35496  12.760  13.467  13.962  0.0413 -0.0718  0.3743
19236W        W35497   5.996  14.095   2.455  0.0485 -0.1968  0.2414
19237W        W35498  14.624   1.520  13.839 -0.2159  0.0375  0.1153
19238W        W35499   1.592   4.539  15.181  0.3257  0.0163  0.1709
19239W        W35500  10.588   4.577  13.773  0.0893  0.0591 -0.0884
19240W        W35501   9.123   3.486  12.448  0.1749 -0.0288 -0.1599
19241W        W35502   4.027  17.711   4.641 -0.1108  0.0438  0.1853
19242W        W35503   5.411   6.600  11.435  0.0434  0.0160  0.0622
19243W        W35504   1.952   1.802  12.967  0.1554  0.1562 -0.0465
19244W        W35505   2.948  12.972  14.787 -0.1280  0.3107  0.1408
19245W        W35506  14.773  15.601   3.340 -0.4177 -0.0378 -0.1294
19246W        W35507   1.486   8.082   1.473  0.1529 -0.1309 -0.0495
19247W        W35508  10.258  16.731   2.371  0.0923 -0.2896  0.0964
19248W        W35509   6.072   8.724  14.407  0.1521  0.2616 -0.2213
19249W        W35510   1.342   0.004   5.727 -0.3544  0.0191 -0.1840
19250W        W35511   7.442   7.345  15.477 -0.2042 -0.0198  0.2079
19251W        W35512   7.342   1.826   3.687  0.1162 -0.0605 -0.0974
19252W        W35513   1.331   5.029  13.436 -0.2580  0.1263 -0.1547
19253W        W35514   9.678   4.723   4.649  0.1004  0.0308  0.0315
19254W        W35515  17.367   3.708  15.448  0.2063 -0.1735  0.0797
19255W        W35516   3.853  11.258  11.823  0.0304  0.1871  0.2345
19256W        W35517   9.099   9.632   0.234 -0.2099  0.1546 -0.3037
19257W        W35518  17.093  14.374   1.057 -0.1143  0.2237  0.0066
19258W        W35519   4.654  15.309   1.518  0.1204  0.0410  0.1365
19259W        W35520  14.913   8.226   4.813  0.0209  0.1732  0.0196
19260W        W35521   9.495   9.795   1.979 -0.3237  0.0534 -0.0421
19261W        W35522   0.518   9.322  16.209 -0.1284  0.0631 -0.1990
19262W        W35523  17.682   3.205  16.014  0.0811  0.3271  0.1533
19263W        W35524  16.860  16.575   3.861 -0.1641 -0.1048  0.0100
19264W        W35525  15.843  17.542   6.081 -0.1095  0.2017 -0.0815
19265W        W35526   4.910   9.984  12.118 -0.2370  0.0555 -0.0225
19266W        W35527   7.471   0.236   5.486  0.0139  0.0145  0.0663
19267W        W35528  14.062   4.292  16.228 -0.1908 -0.0001 -0.1524
19268W        W35529   4.279   2.343  15.254 -0.0606 -0.0389 -0.1231
19269W        W35530   9.545   7.120  14.517 -0.1665 -0.1362  0.3504
19270W        W35531   5.015   9.996   3.474 -0.1195  0.2576  0.1009
19271W        W35532   3.979  10.242   0.587  0.1668 -0.2123 -0.0396
19272W        W35533  15.908  13.988   3.503  0.0820  0.0516  0.1874
19273W        W35534   7.050   0.611  10.652 -0.0632  0.1477 -0.1765
19274W        W35535  11.121  15.993   1.799  0.1383 -0.3606 -0.0006
19275W        W35536   6.667  17.211   0.074 -0.4242  0.1135  0.0489
19276W        W35537  12.349   8.287   0.319 -0.0322 -0.1206 -0.1254
19277W        W35538  11.953   7.027  13.150  0.0615  0.1582  0.0037
19278W        W35539   0.491  15.426  13.530  0.1587 -0.1530 -0.0215
19279W        W35540  12.644   6.877   4.799  0.1762  0.3338 -0.1562
19280W        W35541  10.491  13.214   5.959 -0.0996  0.0347  0.1536
19281W        W35542   9.455   5.284   0.762  0.1101  0.3647 -0.0712
19282W        W35543   7.927   8.294  14.947 -0.1497  0.2675 -0.3927
19283W        W35544   6.212   9.789   3.245 -0.1162  0.2239 -0.0946
19284W        W35545  11.656   4.556  16.187 -0.3010 -0.0457 -0.0849
19285W        W35546   3.510  11.858  14.567 -0.1468 -0.1827 -0.0150
19286W        W35547   8.340  11.733  11.200 -0.2028  0.0096 -0.1282
19287W        W35548   4.900  15.820  11.024 -0.0785 -0.0647  0.1544
19288W        W35549  12.278   1.229   5.571  0.1484  0.0308 -0.0816
19289W        W35550  16.426  11.800   1.431  0.0079  0.0938 -0.2722
19290W        W35551   5.511   2.140   3.061 -0.0552 -0.3194  0.1466
19291W        W35552  15.776  13.359   2.792  0.3737 -0.0584 -0.1195
19292W        W35553   2.996  11.864  11.749 -0.1965  0.2849 -0.1161
19293W        W35554  10.996  13.045   2.089 -0.0356  0.0032 -0.1782
19294W        W35555  13.026   7.616  10.529  0.1011  0.3362 -0.0223
19295W        W35556  11.022  11.057   4.996  0.2120 -0.0642  0.0777
19296W        W35557  13.895   6.568  15.668 -0.1883 -0.3584  0.0430
19297W        W35558   6.415  14.253  16.020 -0.0991  0.0883  0.0369
19298W        W35559   6.182  17.275  13.946  0.0770  0.0977  0.2311
19299W        W35560  12.481   1.078   3.787 -0.2781  0.4056  0.0260
19300W        W35561  16.333  10.561  15.177  0.1863 -0.1227 -0.2947
19301W        W35562  11.489   9.025   4.697 -0.2239 -0.1359 -0.3313
19302W        W35563   5.863   9.361  15.603  0.2144 -0.1684 -0.0479
19303W        W35564   8.839  17.350   0.423 -0.1765  0.2980  0.1334
19304W        W35565   5.255  16.776  14.332 -0.1638 -0.3425  0.4959
19305W        W35566   8.950  12.552  10.401 -0.1628  0.1012  0.1899
19306W        W35567  15.143  13.109  14.137 -0.0247 -0.1544  0.3115
19307W        W35568   1.504   3.981   1.890  0.0847 -0.4551 -0.3620
19308W        W35569   1.631   4.880  14.379  0.2752 -0.0282  0.1776
19309W        W35570   0.064  14.930  14.997 -0.0102 -0.0064  0.1293
19310W        W35571   4.717   9.326  13.300  0.2201 -0.2406 -0.1312
19311W        W35572   6.372   5.595   1.448  0.0768 -0.2522 -0.0279
19312W        W35573   3.339  11.609   1.669  0.3019 -0.0052  0.0038
19313W        W35574   2.852  15.487   2.764  0.1237  0.0803 -0.1758
19314W        W35575   0.744   9.258   1.784 -0.0030 -0.0125 -0.1281
19315W        W35576  18.207  16.382  15.113 -0.0193 -0.1491 -0.1771
19316W        W35577   5.097   2.457  13.669  0.2105  0.0079 -0.0767
19317W        W35578  15.821   4.594   1.810 -0.0568  0.1410 -0.0615
19318W        W35579  15.988  16.316   3.566  0.2857 -0.1092  0.0400
19319W        W35580  13.870   0.247  14.110  0.0495  0.1335  0.4596
19320W        W35581  14.419   9.414   3.850  0.1892 -0.1900 -0.5673
19321W        W35582  10.849  11.810   3.921 -0.1884  0.0925 -0.0759
19322W        W35583   5.514  12.648  12.586 -0.0876 -0.0914  0.0763
19323W        W35584   2.144   5.797  12.690 -0.0442 -0.0016 -0.2988
19324W        W35585  18.256   1.973   3.894  0.2171 -0.4099 -0.1776
19325W        W35586   0.536  10.484   1.653 -0.2463  0.0298  0.2074
19326W        W35587   9.244   5.274  14.701 -0.0095  0.0292  0.0824
19327W        W35588   3.930   5.638  14.911  0.3888  0.2148 -0.1127
19328W        W35589   0.117  15.035   2.964  0.0050  0.0702  0.1629
19329W        W35590   4.599  15.886   3.347  0.3055  0.2723  0.1644
19330W        W35591  10.198   0.080  11.075  0.3029 -0.1358 -0.1198
19331W        W35592   3.234  11.401  12.968 -0.1379  0.1376  0.0035
19332W        W35593   3.129  11.262  15.979  0.5683  0.2080 -0.2599
19333W        W35594  18.386  11.716   0.187  0.0582 -0.0324 -0.4371
19334W        W35595   7.181   6.744  13.436 -0.2333 -0.2998 -0.2436
19335W        W35596  13.710   1.507   3.040 -0.1815  0.1466 -0.1848
19336W        W35597   2.157   3.837  12.286  0.1240 -0.2632  0.2365
19337W        W35598   5.580   8.882  10.213 -0.1217  0.1527  0.3345
19338W        W35599  10.819  14.749  12.139  0.1724 -0.2612 -0.1381
19339W        W35600   3.834   5.506  11.296  0.1256  0.2897  0.1699
19340W        W35601  13.659  15.264   0.544  0.1552  0.0784 -0.1115
19341W        W35602   5.149   4.330   5.118 -0.3495 -0.0773 -0.1792
19342W        W35603  13.806   1.570  12.285  0.1385  0.1781 -0.0124
19343W        W35604  12.421  17.022  13.965 -0.0330  0.2698  0.1298
19344W        W35605  14.886   5.489  14.566  0.0553 -0.3132  0.3716
19345W        W35606  16.245  13.542   6.028 -0.0897  0.1835  0.0990
19346W        W35607  17.708  16.534  15.162  0.2005 -0.0081  0.0656
19347W        W35608   2.238   8.091  14.639  0.1406 -0.4484  0.0275
19348W        W35609   7.198  12.062  16.000 -0.2688  0.0663  0.0011
19349W        W35610  17.091   3.847   6.373  0.0000 -0.1733 -0.0227
19350W        W35611   2.178   6.224   6.290  0.0732 -0.0138 -0.1557
19351W        W35612  17.828   2.309  13.375  0.1386 -0.1373 -0.0557
19352W        W35613  18.066   0.014   4.023  0.0808 -0.3751  0.2136
19353W        W35614   3.428   0.812  11.898  0.6440  0.1263 -0.1846
19354W        W35615   5.297  12.035   1.013  0.0929  0.2617 -0.3269
19355W        W35616  14.532   0.936  14.928 -0.1611  0.1236  0.1733
19356W        W35617  13.260   5.571  14.686 -0.0176 -0.0450 -0.0658
19357W        W35618  12.094   3.291  15.383 -0.0665  0.2078  0.1041
19358W        W35619   1.630  11.343   5.329  0.0216  0.2707 -0.2232
19359W        W35620   4.109   2.182   2.935  0.1287  0.0556 -0.0572
19360W        W35621   3.947  13.071   5.138 -0.0146  0.3906 -0.0140
19361W        W35622  18.329   5.081   1.613  0.0815  0.1266 -0.0655
19362W        W35623   0.932  11.717  13.435  0.0908 -0.6518  0.2831
19363W        W35624   9.082   2.933   0.220  0.1383  0.1490 -0.1854
19364W        W35625  17.119   2.838  15.102 -0.3574 -0.4215  0.2972
19365W        W35626   8.028  10.864   0.631 -0.0456  0.0046 -0.1043
19366W        W35627   8.415  16.759  11.511 -0.1178 -0.3580 -0.0427
19367W        W35628  10.299   9.730   0.776  0.2988  0.0473 -0.0655
19368W        W35629  15.662   3.740   4.210  0.0752 -0.0691 -0.0850
19369W        W35630   9.506   1.677   3.469  0.1879  0.2985  0.3747
19370W        W35631   0.068   5.467   4.368 -0.1273 -0.1312  0.2841
19371W        W35632   8.560   6.284   3.069 -0.3947  0.2497 -0.2757
19372W        W35633   9.512   2.686   3.509 -0.0704 -0.1129  0.2139
19373W        W35634   8.594   0.549   2.354  0.1074 -0.0299  0.2528
19374W        W35635   0.410  15.565   0.499  0.0293  0.1137  0.0677
19375W        W35636   4.177   7.273  15.189 -0.1518 -0.1801 -0.2135
19376W        W35637  16.260   7.032  11.336 -0.1269 -0.1569  0.2759
19377W        W35638  10.847   1.045   0.489 -0.2085  0.3218 -0.1397
19378W        W35639   4.736   1.499   0.012  0.1115 -0.1763 -0.2055
19379W        W35640  10.291  11.215  11.178  0.1609 -0.0664 -0.1439
19380W        W35641  16.475   5.603  13.639 -0.1491 -0.0772  0.0300
19381W        W35642  10.466  10.718  10.381  0.1004 -0.2899 -0.2349
19382W        W35643  15.472   6.101  13.307 -0.0868 -0.3382 -0.3879
19383W        W35644  14.518  16.882   1.954 -0.0780  0.0577  0.0236
19384W        W35645   4.067   6.087   4.687 -0.2096  0.1201 -0.2095
19385W        W35646  17.805   9.654  16.126  0.0104  0.3134  0.1222
19386W        W35647   9.610  11.313  16.012 -0.2188 -0.1821 -0.1840
19387W        W35648  16.006  17.390  16.093  0.0037  0.2617  0.0288
19388W        W35649   1.131   3.921   0.816 -0.3451 -0.1363 -0.0674
19389W        W35650   6.095  10.134  15.577 -0.2359  0.1114 -0.2575
19390W        W35651  14.339  11.049   0.113 -0.1163  0.1880  0.3688
19391W        W35652   1.718   0.580   6.344 -0.2567 -0.2532  0.1037
19392W        W35653  12.192   3.809  13.286 -0.1990  0.0454  0.1454
19393W        W35654   1.149  14.957   0.974  0.2471 -0.4061  0.0979
19394W        W35655   6.074   7.568   2.641 -0.2002 -0.2040  0.0135
19395W        W35656  14.871   2.179  12.672  0.1925 -0.1061  0.3440
19396W        W35657   3.589   5.955   1.611 -0.0607  0.3687 -0.1649
19397W        W35658  14.048  14.879  12.843 -0.1411 -0.1534 -0.2093
19398W        W35659   1.576   1.462  15.190 -0.0253 -0.0170  0.1942
19399W        W35660   2.891   4.943   5.143 -0.2067 -0.1010 -0.2245
19400W        W35661  13.476  10.173   5.258  0.3060  0.0390 -0.0364
19401W        W35662  12.676  16.266   0.170  0.0348 -0.0221  0.0656
19402W        W35663  15.769   7.427   2.103 -0.0761  0.2381 -0.1788
19403W        W35664   0.089  11.246   5.289  0.0695  0.1910  0.0658
19404W        W35665   3.991   4.502   3.237 -0.0571 -0.0458  0.0145
19405W        W35666   0.673  14.383  13.285 -0.0811  0.2561  0.1718
19406W        W35667   3.140   1.260   2.525  0.0116 -0.0613  0.1074
19407W        W35668   0.262   6.223   4.290  0.1558  0.1265  0.5066
19408W        W35669  15.099  13.156  16.139 -0.2064 -0.0896 -0.0981
19409W        W35670  15.722  12.438   5.265 -0.2270  0.3241 -0.1629
19410W        W35671  12.371   4.170   2.096  0.1089  0.2074  0.1057
19411W        W35672   6.039   3.866   2.941 -0.0664  0.1189  0.2770
19412W        W35673   9.689   6.797   3.639  0.0577  0.3055 -0.0709
19413W        W35674   3.645   6.501  14.468 -0.1517  0.1777  0.0972
19414W        W35675   5.900  16.567   0.579 -0.2158 -0.2602  0.0139
19415W        W35676   3.454  13.723  11.440  0.0337 -0.0686  0.0659
19416W        W35677  18.050  11.635  15.437  0.2218  0.1672 -0.0266
19417W        W35678  13.295  16.801  12.553 -0.2422 -0.2680 -0.1124
19418W        W35679   1.762  10.232   4.049  0.1528 -0.0132  0.1047
19419W        W35680   3.037   1.223   5.219 -0.0457 -0.0563 -0.0828
19420W        W35681  16.272   8.173   2.347 -0.0735 -0.2857 -0.0467
19421W        W35682   6.004   3.676  15.677  0.1395 -0.2189  0.3445
19422W        W35683   6.482  15.190  12.211  0.0223  0.0543 -0.3944
19423W        W35684  11.614  16.541   4.650  0.2246  0.0210 -0.0914
19424W        W35685   6.621   3.335  13.311  0.0305  0.0458  0.1432
19425W        W35686  12.940  15.080  16.135 -0.0001  0.4191 -0.2085
19426W        W35687   0.655   9.519   1.193 -0.0009 -0.0669  0.1917
19427W        W35688   8.494  15.268  12.041 -0.2684  0.0293  0.1894
19428W        W35689  15.256   5.309  14.861  0.2998  0.0212  0.0573
19429W        W35690   5.717   0.998   5.643  0.1843 -0.3093  0.3897
19430W        W35691  14.370   2.014   1.238  0.1181 -0.1284  0.1796
19431W        W35692  10.652  18.217  14.385  0.3315 -0.2266  0.2586
19432W        W35693   3.382   1.608  14.694 -0.2024 -0.0190 -0.0789
19433W        W35694  12.571   9.671  10.944 -0.0877 -0.3047 -0.0849
19434W        W35695  12.927  18.199  16.015  0.0362 -0.0314  0.1598
19435W        W35696   0.234   7.889   1.907  0.1049 -0.1799  0.0174
19436W        W35697  16.512   3.375  12.360  0.0896  0.0235  0.5247
19437W        W35698  12.693  15.685   1.235 -0.2752 -0.1205 -0.0774
19438W        W35699   6.711  10.055   0.194  0.0755 -0.1717  0.1017
19439W        W35700  11.062   3.958   3.831 -0.0107  0.0269 -0.0204
19440W        W35701  14.857   1.120   5.972  0.1601  0.1270 -0.2083
19441W        W35702  13.332   1.400   0.534  0.1246 -0.3270 -0.0435
19442W        W35703   2.396  15.788  13.428 -0.1579  0.1000 -0.3321
19443W        W35704  16.161  15.676   2.703  0.3177  0.1122 -0.2973
19444W        W35705   8.399  12.698  11.155  0.0634 -0.0420 -0.0707
19445W        W35706  10.759  18.263   2.216  0.4282  0.3654 -0.2143
19446W        W35707   2.068   0.529   0.436  0.0589 -0.1747 -0.0119
19447W        W35708   7.234   3.803   3.242 -0.0648 -0.2091  0.1445
19448W        W35709  17.672   3.618   3.999  0.2604 -0.2009  0.0545
19449W        W35710   9.831   5.882  13.726  0.0633 -0.0813  0.2633
19450W        W35711  15.608  13.013   1.884 -0.1156  0.0311 -0.1177
19451W        W35712  10.470  16.545  13.791 -0.1226 -0.0146  0.0487
19452W        W35713   8.285  10.174   4.396 -0.0201 -0.0273  0.0855
19453W        W35714  14.626  11.207  10.159 -0.1092 -0.0606 -0.0411
19454W        W35715  12.737   9.803   5.079 -0.0035 -0.3701  0.0800
19455W        W35716   0.310  14.493   2.819 -0.3506  0.1454  0.1191
19456W        W35717   4.403  10.359   5.392  0.0354  0.1972 -0.1538
19457W        W35718   8.593  11.356  15.884  0.1449 -0.0870 -0.1997
19458W        W35719  15.826  11.098  14.516 -0.0026  0.0005  0.1258
19459W        W35720   3.256  11.702   2.504  0.0122  0.1347 -0.0144
19460W        W35721  12.224  11.939  13.537  0.0453  0.1287 -0.1122
19461W        W35722   1.261   8.008  15.976  0.1458  0.0304  0.2876
19462W        W35723   1.304  17.943   4.220  0.1467 -0.2476 -0.0622
19463W        W35724  11.848   9.284   3.765 -0.1156  0.0933  0.2430
19464W        W35725  16.545   9.789  13.639 -0.1692 -0.2747 -0.2559
19465W        W35726   4.076  15.882  15.037  0.1784 -0.2367  0.1450
19466W        W35727  14.569   8.119  11.166 -0.0313 -0.0394 -0.0791
19467W        W35728   1.256   6.449   0.374  0.1913 -0.0944 -0.0009
19468W        W35729   5.792  11.024  13.901  0.0042 -0.1778 -0.2005
19469W        W35730  16.862   1.324   2.780  0.0829  0.0905  0.1363
19470W        W35731   1.589  12.588   2.824  0.0542 -0.0150 -0.2586
19471W        W35732  12.228   2.756   4.943  0.2001 -0.1137  0.0671
19472W        W35733   9.494  11.902  13.373 -0.0973 -0.0356  0.1900
19473W        W35734   5.432   0.586   3.291  0.0067  0.1465  0.0580
19474W        W35735  11.098   6.656  10.669  0.0844  0.1537 -0.1690
19475W        W35736  13.105   0.272   5.592 -0.1399  0.1559 -0.4006
19476W        W35737   0.851   3.812   4.607  0.0592 -0.0027  0.2856
19477W        W35738  13.478   9.010   4.832  0.0388  0.1548  0.0643
19478W        W35739   5.842  16.575   1.534  0.0518  0.0576  0.1478
19479W        W35740  15.630   3.611  14.194 -0.0345  0.0912  0.0299
19480W        W35741   8.730   7.143   1.754  0.2282  0.2572 -0.0748
19481W        W35742   0.213   8.212  14.822  0.2351 -0.1725 -0.1156
19482W        W35743  10.750   6.399   5.322  0.2181 -0.2051 -0.0788
19483W        W35744  11.413   5.879  12.622  0.1244  0.0340 -0.0952
19484W        W35745   8.305   9.137   5.458  0.0314 -0.0681 -0.3361
19485W        W35746  12.616  13.236   4.274 -0.0591  0.0449  0.0829
19486W        W35747   8.658   0.707  15.082  0.1750  0.2832 -0.0628
19487W        W35748   8.711  16.041   5.687 -0.1343 -0.1525  0.0527
19488W        W35749   3.035   0.327  12.622 -0.0106  0.0006  0.1282
19489W        W35750   9.666   3.104  15.920 -0.0235  0.0318  0.3232
19490W        W35751  18.144   6.142  12.341  0.0186 -0.2095 -0.2757
19491W        W35752   7.255  18.377  13.385  0.0139 -0.1388  0.3419
19492W        W35753  13.762   9.608  11.314  0.2769  0.0487 -0.1702
19493W        W35754  15.373   3.093   3.531 -0.1177 -0.1971 -0.0886
19494W        W35755   7.535   0.150  12.766 -0.1108 -0.2973  0.0105
19495W        W35756  12.694   3.491   4.404 -0.0315 -0.0284  0.2058
19496W        W35757   2.845   2.678   3.933 -0.0646  0.1852  0.0413
19497W        W35758  16.996   7.017   0.741 -0.1046 -0.1443 -0.1240
19498W        W35759  16.447   2.745   0.469 -0.1136 -0.1411  0.3405
19499W        W35760  16.941   5.338   3.994 -0.0028  0.0307  0.0649
19500W        W35761  10.130   5.721  15.688 -0.1149  0.0463  0.2297
19501W        W35762  15.019  11.992   1.811  0.0195 -0.0713  0.2342
19502W        W35763   2.769   0.115  15.461 -0.0848 -0.1314  0.0982
19503W        W35764  15.963   6.889   3.519 -0.2121 -0.2290 -0.1956
19504W        W35765   7.895  13.137  15.805  0.1429 -0.2278 -0.1277
19505W        W35766   7.312  16.769  14.944 -0.0846  0.1176 -0.2869
19506W        W35767   3.331   1.920   5.519  0.1907  0.2562  0.0153
19507W        W35768  10.726   3.312  16.209  0.0406  0.5616  0.1046
19508W        W35769   4.160   2.655  14.852  0.3250 -0.0632  0.2459
19509W        W35770   4.989   8.754   4.056 -0.0379  0.0010 -0.0804
19510W        W35771   2.473  17.945   5.470 -0.3828  0.2253  0.0264
19511W        W35772   5.172   8.225   1.841 -0.1988 -0.0838  0.2115
19512W        W35773   5.641  13.479  12.658  0.1849  0.1426 -0.1232
19513W        W35774   6.348   2.038   4.925 -0.1701 -0.1444  0.0547
19514W        W35775  14.200  13.897  15.134 -0.2638  0.0561  0.2096
19515W        W35776  15.495  11.320  12.853  0.1649  0.2541 -0.0293
19516W        W35777   1.122  13.755   4.513  0.0214 -0.1666  0.0520
19517W        W35778   6.964  17.202   4.094  0.2893 -0.1095 -0.2972
19518W        W35779   1.174  10.232  11.351 -0.1553  0.0954 -0.3893
19519W        W35780  15.406   9.762   0.531 -0.2795 -0.0738  0.1879
19520W        W35781  17.091  13.071  13.181 -0.1492  0.0400 -0.1601
19521W        W35782  17.102  16.148   2.593 -0.3577  0.0383  0.2355
19522W        W35783   5.314   0.334   2.034  0.0903  0.0327  0.1173
19523W        W35784  10.419   1.231  11.834 -0.0687 -0.4933 -0.1366
19524W        W35785   0.845  18.064   1.367  0.1759  0.1894  0.0641
19525W        W35786   5.606   5.975   1.646 -0.1819  0.0427 -0.0802
19526W        W35787   7.460  12.702   5.788 -0.1670 -0.1643  0.2414
19527W        W35788  16.276   8.756   1.054  0.2057  0.0388  0.2495
19528W        W35789   5.967   5.269  13.199 -0.1685 -0.0556 -0.1888
19529W        W35790   6.779   1.848   1.251 -0.1245 -0.1184  0.0613
19530W        W35791  17.187   9.726   3.665 -0.1608 -0.1313  0.1093
19531W        W35792  11.309   8.423   3.720  0.0444 -0.0057  0.1479
19532W        W35793   4.552   2.472   2.817 -0.2534 -0.0494 -0.0028
19533W        W35794  17.897   1.548   0.849  0.0387  0.2541  0.1746
19534W        W35795  12.702   3.762   2.822 -0.3714  0.0298  0.2579
19535W        W35796   1.598  15.899  15.601  0.0837  0.0021  0.0194
19536W        W35797  14.445   4.739  15.043 -0.0977  0.1955 -0.3581
19537W        W35798   5.618  16.108  13.833  0.1584 -0.0560 -0.4041
19538W        W35799  11.603   3.291   5.742  0.0207 -0.1527 -0.1356
19539W        W35800  14.498  13.632  16.068  0.1361 -0.0997 -0.0040
19540W        W35801   9.293   1.261  13.376  0.1708  0.1889 -0.1233
19541W        W35802   8.495  13.483   2.332 -0.2798  0.1116  0.0352
19542W        W35803  18.367  13.830  15.594  0.3125  0.3756 -0.2284
19543W        W35804   2.578  10.447  15.140 -0.0185 -0.2125 -0.2851
19544W        W35805  15.824   8.747   0.250  0.3005  0.0874  0.1221
19545W        W35806   9.538   6.340  11.382  0.0815 -0.0457  0.3121
19546W        W35807   9.356   7.077   5.224  0.1821 -0.0805  0.1961
19547W        W35808  13.416  12.395   0.682  0.1247 -0.0320 -0.0287
19548W        W35809   7.958  17.013  14.247  0.0217  0.0759 -0.3090
19549W        W35810  14.146   8.038   0.076 -0.0691  0.1727  0.1415
19550W        W35811  12.717  17.970  15.634  0.2818 -0.0542  0.2448
19551W        W35812   2.786  14.656   0.682 -0.1287  0.0712 -0.0969
19552W        W35813  14.656  10.731  11.552  0.0293 -0.0106 -0.2750
19553W        W35814   0.885   7.246   3.003 -0.0261  0.5966 -0.2444
19554W        W35815   5.998   5.820  15.758 -0.1033 -0.0564  0.3156
19555W        W35816  10.321   3.592   2.941 -0.0593  0.2182  0.2985
19556W        W35817   2.012  15.741   4.316 -0.1241 -0.0374  0.0479
19557W        W35818   1.377  12.438  14.001 -0.1504 -0.2282 -0.0218
19558W        W35819  17.187   2.711   0.413  0.0413 -0.3092  0.1046
19559W        W35820  10.387  16.679  14.226 -0.2866 -0.1123 -0.0595
19560W        W35821   2.238  14.917   0.062 -0.3286  0.0604 -0.0972
19561W        W35822   4.256  17.089   3.717  0.1976 -0.1915  0.1607
19562W        W35823  15.473  15.944  13.029  0.2169 -0.0987  0.3793
19563W        W35824   8.419  10.642  12.348  0.2137  0.0897  0.0664
19564W        W35825   6.699  11.694  12.448 -0.2182  0.1082 -0.1265
19565W        W35826   9.141   9.310   5.046  0.0668  0.1799  0.1480
19566W        W35827   2.798  12.686   4.421  0.1342  0.1782  0.1115
19567W        W35828   4.932  10.719  16.017  0.1530 -0.1506  0.2739
19568W        W35829   8.605   0.305  12.792 -0.4048  0.0900 -0.0440
19569W        W35830  15.196   1.370  12.252 -0.4417 -0.0147  0.3668
19570W        W35831   3.271   7.565  14.288 -0.0489 -0.2375  0.1467
19571W        W35832   9.969   5.416   3.607  0.0231  0.1455 -0.1054
19572W        W35833  10.067  14.075  10.497 -0.1502 -0.1208  0.2814
19573W        W35834   9.863  17.415  13.924 -0.1880  0.1561  0.0704
19574W        W35835  14.394   3.110   3.630 -0.2035  0.4092  0.0453
19575W        W35836  11.907   2.291   6.104  0.0888 -0.2330 -0.0399
19576W        W35837  12.756  11.639  14.217  0.1933 -0.1917  0.1105
19577W        W35838  13.686  13.142   3.707  0.0027  0.2758  0.0460
19578W        W35839   3.681   3.981   0.870 -0.1098  0.1079  0.0626
19579W        W35840  17.958   2.373   5.688  0.3555 -0.1997 -0.0566
19580W        W35841   0.044   5.852   0.085 -0.0276 -0.1787 -0.2908
19581W        W35842  16.461  11.189   5.410  0.1352 -0.0501  0.1480
19582W        W35843  13.876  12.199  12.126  0.1664 -0.0665  0.2140
19583W        W35844   1.295   9.041  12.348  0.2568  0.2868 -0.2252
19584W        W35845   0.519   1.119   2.626  0.1234 -0.1091  0.0877
19585W        W35846  16.021   9.958   5.541 -0.1117  0.0077 -0.2441
19586W        W35847   3.175   9.101  14.751 -0.0854  0.1633 -0.0162
19587W        W35848  12.616   1.103  10.578  0.3432 -0.0301 -0.0023
19588W        W35849   9.183   7.887  10.849  0.2924 -0.0420  0.0787
19589W        W35850  12.785   6.844   1.505 -0.2295 -0.1901  0.0019
19590W        W35851   2.929  16.314   4.838  0.1653 -0.3766 -0.2157
19591W        W35852  10.184   2.376  15.913  0.3223  0.0010  0.0751
19592W        W35853  12.694  16.542   3.439 -0.0101  0.1171 -0.3721
19593W        W35854   3.370   0.482  14.581 -0.1826  0.0978 -0.2572
19594W        W35855   1.795   7.349  11.487  0.1307  0.2057  0.2248
19595W        W35856  15.802   6.091   4.330 -0.2025  0.6774  0.0204
19596W        W35857   7.909  17.694   0.622  0.2357 -0.2922 -0.1308
19597W        W35858  12.568   6.172  16.227  0.0643 -0.0932  0.1638
19598W        W35859   0.738  10.750  13.729 -0.2240  0.2190 -0.0291
19599W        W35860  16.544   9.957   4.400  0.0012  0.3219  0.0512
19600W        W35861   7.614   1.062   1.949 -0.0043 -0.3933  0.1572
19601W        W35862  10.036   1.547  13.868 -0.1325  0.0179  0.3454
19602W        W35863   3.082   2.750   4.901  0.0827 -0.0013 -0.2489
19603W        W35864   4.228   0.954   4.447  0.2520 -0.0506  0.4269
19604W        W35865   6.869   2.485   0.316  0.2363 -0.0979  0.0020
19605W        W35866  11.375   7.622  11.741  0.4051  0.0134  0.0733
19606W        W35867   3.630   9.198  16.102 -0.5303  0.0707 -0.0123
19607W        W35868   7.444   5.156   0.596  0.2513  0.1624  0.0292
19608W        W35869   3.270  17.824   5.530 -0.0922  0.0604 -0.0200
19609W        W35870   6.049   8.732   1.593 -0.2491  0.0398 -0.4080
19610W        W35871  16.171   8.136  13.730  0.0402 -0.2450 -0.0456
19611W        W35872   6.503  14.476  14.634 -0.5226  0.1761  0.1589
19612W        W35873   2.868  15.202   4.362  0.0073  0.0851 -0.0748
19613W        W35874  12.849   9.217   4.013 -0.2768 -0.1318  0.0431
19614W        W35875  17.332   1.058   1.627 -0.0701 -0.1109  0.2813
19615W        W35876  14.462   9.885   3.708 -0.1605  0.3174 -0.0001
19616W        W35877   0.077  16.219  15.630 -0.1721 -0.1070 -0.0903
19617W        W35878  17.059   5.505  11.803  0.1973  0.1996 -0.1523
19618W        W35879  13.239   3.926   6.119 -0.0960 -0.0347  0.1096
19619W        W35880   2.205  13.890  11.497  0.1804 -0.2698  0.1735
19620W        W35881  11.733  15.144  15.528  0.0880  0.1740  0.1192
19621W        W35882  10.781   1.038  12.234 -0.0465  0.2855 -0.0581
19622W        W35883   0.793   2.217  15.472 -0.3766 -0.2336  0.1734
19623W        W35884   6.487   7.459  12.660 -0.1458 -0.0889 -0.0074
19624W        W35885  16.204   1.889   0.195 -0.3084 -0.0433 -0.1445
19625W        W35886   5.210  18.154  15.961  0.2953 -0.1869  0.1781
19626W        W35887   1.311  11.019   0.093  0.2471  0.1278 -0.2399
19627W        W35888   8.253   6.969   4.621 -0.4223 -0.0666 -0.1878
19628W        W35889   6.502   2.064  12.253 -0.1418 -0.0195 -0.1732
19629W        W35890  16.240   6.527   1.229 -0.1378  0.1309  0.1258
19630W        W35891  15.147   9.278   4.135 -0.2293  0.1652  0.0735
19631W        W35892   1.064  11.884   2.780  0.0279  0.0607  0.1777
19632W        W35893   8.634  17.629   5.338  0.1676 -0.1265 -0.5013
19633W        W35894   7.269  13.512  16.243 -0.1994 -0.0640 -0.1185
19634W        W35895   3.676   4.702  14.951 -0.0326 -0.0099 -0.0181
19635W        W35896   7.600  13.804  14.525  0.1248 -0.0161  0.1470
19636W        W35897  13.872   5.067   5.124 -0.2541  0.0449  0.4202
19637W        W35898  16.543  14.228   4.189  0.0854 -0.0584  0.0238
19638W        W35899   4.541   4.193  15.339 -0.3351 -0.3044 -0.1855
19639W        W35900  13.404   2.526  14.996  0.0676  0.0396  0.1633
19640W        W35901  10.124  11.479   5.046  0.0813  0.2037 -0.2615
19641W        W35902  13.184  15.801  12.924 -0.1743 -0.2671  0.1154
19642W        W35903  10.867   6.601  13.141  0.0716 -0.1997  0.2776
19643W        W35904   4.235   8.501  13.994  0.1785  0.0722 -0.1181
19644W        W35905   2.467  17.873   3.341  0.0168  0.3002 -0.1873
19645W        W35906   2.314  12.371   3.867  0.0456 -0.0500  0.1013
19646W        W35907   5.642   8.996  14.286  0.1508 -0.2315 -0.0327
19647W        W35908  16.972  12.916   2.029 -0.0514 -0.2194 -0.0581
19648W        W35909  11.369  11.370  14.841  0.0211  0.2731  0.1147
19649W        W35910  15.413   5.973   4.018 -0.2668  0.2540 -0.1730
19650W        W35911   5.127   7.616  11.914  0.0114 -0.1805 -0.2212
19651W        W35912  15.467   6.424   2.947  0.0749 -0.0420  0.1475
19652W        W35913  14.876   5.417   1.993  0.1733 -0.3901  0.3051
19653W        W35914   6.969  17.405   0.527 -0.1704  0.0667 -0.0943
19654W        W35915   3.998   8.476  15.604 -0.4322  0.2593 -0.1245
19655W        W35916   1.955   1.858  15.210  0.1460  0.0088 -0.0648
19656W        W35917   4.196   8.977  11.269 -0.0512  0.1986 -0.1928
19657W        W35918  13.786   6.762   2.850 -0.1232  0.1032 -0.1018
19658W        W35919   2.967   2.613   2.713 -0.0525  0.1424 -0.0345
19659W        W35920   3.960   0.015  13.072 -0.0224 -0.2768  0.2491
19660W        W35921   7.291  11.162  13.448 -0.1814 -0.3022  0.1653
19661W        W35922  14.185   9.438  15.288 -0.3155 -0.2719 -0.1759
19662W        W35923   5.130   7.115   4.711 -0.0169 -0.0695 -0.0996
19663W        W35924   9.112  12.364   2.933  0.3157  0.0358 -0.0004
19664W        W35925   1.175   6.178  13.350 -0.0318 -0.1990 -0.1709
19665W        W35926   6.587  11.576  15.937 -0.1267 -0.1271  0.0861
19666W        W35927   5.805  12.964  13.529 -0.3218  0.0669 -0.0943
19667W        W35928   7.978  17.478   4.830  0.5378 -0.2607 -0.0926
19668W        W35929  17.388   4.318  15.380 -0.2119  0.1622  0.0518
19669W        W35930   8.849  10.499  13.093 -0.2045 -0.0165  0.0122
19670W        W35931  11.614  10.219  13.613  0.0418 -0.2713  0.0746
19671W        W35932   5.715   9.901  11.382 -0.1645  0.1226  0.0760
19672W        W35933  12.436   2.458   4.601 -0.2878 -0.1330  0.0510
19673W        W35934   1.557  10.744   1.790  0.1106 -0.1176  0.2885
19674W        W35935  14.433  10.477  13.392 -0.0027  0.0320  0.1011
19675W        W35936   4.902   1.385  12.499  0.0796  0.0628  0.2001
19676W        W35937  14.177  14.658   4.966 -0.1140  0.0141 -0.1627
19677W        W35938   4.465   2.603   2.200  0.0549  0.1875 -0.1533
19678W        W35939   5.142  12.090  13.747  0.1601 -0.2712  0.0040
19679W        W35940   9.326  10.783   5.100  0.0414  0.1610 -0.1365
19680W        W35941   9.059   9.375   3.305 -0.0504  0.0739  0.0711
19681W        W35942   4.655   9.539   2.483  0.4186 -0.2545  0.1512
19682W        W35943   0.408   4.541   5.099 -0.1248 -0.0680  0.3400
19683W        W35944   5.775   5.387   3.061  0.2482 -0.0672 -0.5437
19684W        W35945  12.389  12.369  14.355 -0.1050  0.1966 -0.0816
19685W        W35946   9.245  13.362  14.202 -0.1724  0.1099 -0.4578
19686W        W35947   1.786  15.543   2.394  0.4545  0.0185  0.1478
19687W        W35948   3.140   2.344  13.739 -0.0375 -0.0632 -0.1190
19688W        W35949  10.647  11.842  15.091  0.1119  0.0189  0.1482
19689W        W35950   2.343  11.437   0.967 -0.2881  0.0769  0.1038
19690W        W35951   3.268  11.552  15.512  0.1494 -0.1160  0.3574
19691W        W35952   6.732   5.233   1.547  0.0572 -0.0154 -0.3175
19692W        W35953  14.606  18.025   4.797  0.1307  0.1109  0.1263
19693W        W35954   1.873  12.290  11.237  0.0588 -0.1372  0.2226
19694W        W35955   0.573   6.630  16.032 -0.2073  0.3007  0.1317
19695W        W35956  17.630  10.133   3.596  0.0655  0.1520 -0.3442
19696W        W35957   0.517   1.901   4.301  0.1600 -0.0181 -0.1439
19697W        W35958  15.096   0.554   4.637 -0.2847  0.0439  0.0115
19698W        W35959  16.420  16.789   1.153 -0.0103  0.0930 -0.4452
19699W        W35960   2.833  16.715   2.270  0.2204 -0.1884 -0.0282
19700W        W35961  17.813   2.477   3.221  0.1416 -0.0523 -0.3737
19701W        W35962   7.339   4.983   4.583 -0.3229  0.1047 -0.2259
19702W        W35963  10.604   8.313   4.188  0.2784  0.1892 -0.0063
19703W        W35964  12.845  16.901   0.977  0.0138  0.0194 -0.0758
19704W        W35965  18.203  11.239   4.829 -0.0067 -0.0290  0.2549
19705W        W35966  17.936  15.202  15.019 -0.1538  0.0503  0.1739
19706W        W35967  15.290   8.167  13.690  0.0971  0.0569  0.0851
19707W        W35968   3.901  12.307   1.064  0.1498 -0.2908 -0.0753
19708W        W35969  15.395   5.993   3.540  0.0583 -0.1248 -0.1282
19709W        W35970  11.030   5.778  13.342 -0.0414 -0.0158 -0.2986
19710W        W35971   4.131  15.690   0.647  0.0294  0.1614 -0.0109
19711W        W35972  13.140  16.603   2.246 -0.0163 -0.0463 -0.2369
19712W        W35973   9.126  17.481   2.340 -0.2382 -0.1512 -0.1944
19713W        W35974   1.021   9.126   3.767 -0.2917  0.0204 -0.0661
19714W        W35975   6.978  12.211  14.986  0.0614  0.0844 -0.0217
19715W        W35976  14.100   1.571  12.882  0.0165  0.0115 -0.2335
19716W        W35977   6.826   4.697  11.098 -0.0816  0.0234 -0.1310
19717W        W35978   7.554  15.863  11.873 -0.2725 -0.2027 -0.1232
19718W        W35979   0.736   2.982  16.240  0.0117  0.0228  0.1313
19719W        W35980   4.589   5.661  14.129 -0.1489  0.2803 -0.3087
19720W        W35981  16.504   9.876  15.801  0.1801  0.1021 -0.1010
19721W        W35982  11.767   5.236   5.240 -0.1251  0.0903  0.0514
19722W        W35983  14.442  11.882   5.869 -0.0781  0.1813  0.0452
19723W        W35984  12.447   8.186  14.037 -0.0071 -0.3416  0.2264
19724W        W35985  11.331  12.276  15.910 -0.2187 -0.1342 -0.1282
19725W        W35986   4.956  10.830   1.636  0.0520 -0.0400 -0.3042
19726W        W35987   7.737   2.782   2.687  0.2991  0.2366  0.0291
19727W        W35988  18.333  12.791  13.970  0.0562  0.3932  0.3395
19728W        W35989  10.598  10.319  16.199  0.0441  0.0509 -0.0111
19729W        W35990  13.438  13.112  14.941  0.1432  0.4145  0.2062
19730W        W35991   9.670   7.579   3.754  0.1010  0.0641  0.2752
19731W        W35992   4.181  16.366  13.820  0.1519  0.1980  0.1851
19732W        W35993   3.113  14.185   5.491  0.1090  0.0608  0.0608
19733W        W35994  10.246   5.054   1.553  0.2291  0.3325 -0.1378
19734W        W35995  14.065   6.816  14.159 -0.1687 -0.1374  0.1734
19735W        W35996   7.915   3.755   2.611  0.2391  0.2267  0.0756
19736W        W35997  10.740  18.236   4.626  0.2244 -0.2022 -0.1231
19737W        W35998   8.105   8.921  15.750 -0.0504  0.0283 -0.1522
19738W        W35999   5.794  16.160  14.668  0.3429 -0.0597 -0.1819
19739W        W36000  15.819   4.934   3.772 -0.2769  0.0192  0.0530
19740W        W36001   9.176  16.745   4.528  0.0103  0.0072 -0.0710
19741W        W36002  14.334  18.295  12.957 -0.0086 -0.2451  0.3932
19742W        W36003  11.120  14.097   5.987  0.1420  0.1988 -0.1075
19743W        W36004  16.685   6.946   2.599 -0.2951 -0.0212 -0.2428
19744W        W36005  17.306   0.211  14.027  0.0694  0.2766  0.0862
19745W        W36006   4.808   5.870  15.095 -0.1220  0.0457  0.4009
19746W        W36007  17.326   6.565  13.609  0.0518 -0.1139 -0.1479
19747W        W36008  11.037  15.655  15.408 -0.1695  0.0323 -0.1021
19748W        W36009  12.879  10.239   2.305  0.0207  0.0367 -0.3173
19749W        W36010   1.492   1.113  12.861 -0.2220  0.1453  0.1493
19750W        W36011   2.495   4.216  15.177  0.1757  0.0761  0.1473
19751W        W36012   8.496   0.232  11.206  0.1718  0.0154 -0.4010
19752W        W36013   1.260   6.000   2.879  0.0400  0.0235 -0.1797
19753W        W36014   8.895  11.006   2.792  0.2174  0.2802  0.4986
19754W        W36015  17.741   5.823   3.138  0.0012  0.3242 -0.0957
19755W        W36016   9.861   1.878  12.119 -0.2331  0.2672  0.0855
19756W        W36017  14.703  14.338  12.550 -0.3055  0.3847 -0.4657
19757W        W36018  11.201  15.209  15.690 -0.0120  0.2955 -0.0095
19758W        W36019   1.994   9.304   2.535  0.0704  0.0737  0.1048
19759W        W36020   6.231  16.130   1.398 -0.1461  0.2247 -0.2750
19760W        W36021   6.237  17.830   2.304  0.0415  0.1065  0.2883
19761W        W36022   4.732   5.226  12.827  0.0056 -0.1390 -0.2233
19762W        W36023  16.546  18.335   2.916  0.1626  0.0875  0.2064
19763W        W36024  10.373  11.425  13.498  0.1591  0.1125  0.0250
19764W        W36025   2.122   1.212   5.308 -0.1650 -0.0715 -0.3083
19765W        W36026  15.286  17.407  12.747  0.2502 -0.3622 -0.0576
19766W        W36027   6.764  13.361   4.500 -0.0256  0.4165 -0.1390
19767W        W36028   3.442   6.982   1.939  0.0400  0.2289  0.0171
19768W        W36029   8.669   7.600  13.722 -0.2482 -0.2227  0.3062
19769W        W36030  12.404   1.590   3.550  0.1584 -0.2182 -0.2508
19770W        W36031   3.752  16.279  14.950 -0.2062  0.3410 -0.0737
19771W        W36032  11.079   7.622   5.131  0.2456 -0.5229  0.1912
19772W        W36033   5.266   3.782  11.316  0.0961 -0.0558 -0.0782
19773W        W36034   5.740   4.189   2.184  0.0917  0.0354 -0.2254
19774W        W36035   9.135  16.293  15.051  0.4340 -0.0511  0.1059
19775W        W36036  15.130   4.667   0.212  0.0256  0.2554  0.3361
19776W        W36037  10.400   4.487  16.222 -0.1259 -0.0157 -0.2026
19777W        W36038  13.111   5.281   2.207  0.1749 -0.2796  0.1758
19778W        W36039   6.281   9.699   4.099  0.4535 -0.3901 -0.2341
19779W        W36040  13.249  15.457   2.884 -0.0731 -0.1892  0.0554
19780W        W36041   4.604  13.164  12.105  0.1069 -0.0703 -0.3027
19781W        W36042   9.951   8.520   4.952 -0.1039 -0.1386 -0.1805
19782W        W36043  15.588  12.154   3.403  0.0550 -0.0004 -0.2064
19783W        W36044  14.874   7.621   1.069  0.0545 -0.0795 -0.0097
19784W        W36045  17.239   6.299  15.953  0.2320 -0.0254  0.1523
19785W        W36046  13.323   2.283   0.899 -0.2164  0.0472  0.2736
19786W        W36047   6.814  17.781  11.727  0.1462  0.1723 -0.0775
19787W        W36048   1.874   1.096   4.201 -0.1601 -0.1279  0.1330
19788W        W36049   0.666   1.673  15.265 -0.1781  0.4029  0.0398
19789W        W36050   4.319   4.460   1.937 -0.1737 -0.1740 -0.2500
19790W        W36051  12.133   3.897   0.453  0.2396 -0.0516 -0.1107
19791W        W36052  13.446  12.142   3.235  0.0170  0.0210  0.1016
19792W        W36053  14.453   8.581   4.080  0.0526 -0.1367  0.0592
19793W        W36054   1.346   5.798   0.612 -0.1037 -0.1745 -0.2012
19794W        W36055   6.866  16.993  15.592 -0.1469  0.2539  0.0929
19795W        W36056  10.609  18.112   3.137  0.1406  0.1563 -0.1048
19796W        W36057   2.515  15.312   3.528  0.2878 -0.0681 -0.0429
19797W        W36058   2.235  14.097  14.333  0.1686 -0.2230 -0.1559
19798W        W36059  10.347   8.682  12.446  0.0465 -0.0046 -0.2138
19799W        W36060  18.106   8.186  14.575  0.1246  0.2111  0.1057
19800W        W36061   0.583  13.228  15.519  0.0296 -0.3012 -0.0875
19801W        W36062   3.372   6.626   5.131 -0.0796 -0.4649  0.2970
19802W        W36063   2.674   0.434  15.032 -0.1328  0.0967  0.1061
19803W        W36064   7.663   5.081   3.084 -0.0392  0.3616 -0.0002
19804W        W36065  12.829   7.106  11.279  0.1159  0.3596  0.2224
19805W        W36066  15.724  16.225   4.918 -0.0929  0.0011  0.0802
19806W        W36067   4.704   0.654   0.328  0.0927 -0.2191 -0.2047
19807W        W36068  16.392   3.083  14.716 -0.3650  0.1557 -0.5013
19808W        W36069  17.497   5.479  15.308 -0.3397 -0.0201 -0.0052
19809W        W36070   0.755  17.632  13.416 -0.0445  0.1816  0.1484
19810W        W36071   7.796  11.806  15.282  0.1265  0.2272  0.1287
19811W        W36072   4.018   6.924   2.871 -0.0184  0.2299  0.2140
19812W        W36073   8.118  10.789  12.011  0.3455 -0.1233 -0.0185
19813W        W36074   6.116  16.034  12.652 -0.0847  0.3962 -0.2757
19814W        W36075  13.109   9.254  14.275  0.2293  0.2456 -0.2276
19815W        W36076   4.531  15.944  12.139 -0.0521 -0.1478  0.0343
19816W        W36077  15.003   3.477  12.659  0.1739  0.2623 -0.1804
19817W        W36078  15.466  11.424   5.737  0.2783 -0.1560  0.0195
19818W        W36079  17.526  13.557   3.865  0.0466  0.0333  0.1378
19819W        W36080  16.216   0.722   5.281 -0.0937 -0.0013  0.1106
19820W        W36081  16.387  12.187   0.462 -0.1314 -0.1162 -0.1770
19821W        W36082   4.661   4.625   5.117  0.1574  0.0649  0.1325
19822W        W36083   5.643   4.600   2.533 -0.3391  0.0937 -0.2246
19823W        W36084   5.098  13.678  14.402  0.0326  0.2236  0.0857
19824W        W36085  13.053   0.210  12.836 -0.0006 -0.2175  0.0123
19825W        W36086   7.803   2.956  14.021 -0.1742  0.0483  0.0666
19826W        W36087  10.969   7.880  13.995  0.0025 -0.0453  0.1276
19827W        W36088  11.926  10.695  13.811  0.1621  0.0568  0.2721
19828W        W36089  16.844  14.694  15.730  0.0600 -0.0081 -0.0354
19829W        W36090  17.936  10.850   3.057  0.4212 -0.0407  0.1229
19830W        W36091  13.686   1.717  11.758 -0.0906  0.1733  0.0281
19831W        W36092  12.738   4.750  13.253  0.0739 -0.2666  0.1205
19832W        W36093  14.402   5.908  11.361  0.0294  0.0636 -0.2457
19833W        W36094   4.611   4.105   1.492  0.2650  0.1342  0.3057
19834W        W36095  11.887  18.075  11.484  0.1005 -0.0203  0.2945
19835W        W36096   8.316  13.854   3.680  0.0333  0.1059  0.0954
19836W        W36097   1.917   7.458   2.231  0.2685  0.3489 -0.0697
19837W        W36098   9.506   1.514  12.200 -0.0026  0.1058  0.1364
19838W        W36099  11.654   4.821   3.204 -0.2842 -0.3051 -0.0510
19839W        W36100  11.367   6.219   2.249  0.0172  0.3100  0.0067
19840W        W36101  13.973  15.969  14.868  0.0695  0.0251  0.1083
19841W        W36102   6.372   0.904  12.765 -0.0736 -0.1793  0.0452
19842W        W36103  13.611   5.848   0.663 -0.0198  0.1945  0.1642
19843W        W36104   0.708  15.085  14.007 -0.1601 -0.0017 -0.0277
19844W        W36105  12.537   4.098  11.515  0.1187 -0.3358 -0.0939
19845W        W36106   6.858  10.910  13.313 -0.1616  0.2194  0.1499
19846W        W36107  10.028   6.270  15.206  0.1263  0.0924 -0.1491
19847W        W36108  11.806   1.745   0.720  0.1971  0.1045 -0.0616
19848W        W36109   0.144  15.302   4.857  0.0836 -0.2029 -0.0986
19849W        W36110   6.106   3.948   4.114  0.0149 -0.4125 -0.3094
19850W        W36111  15.730   3.692  14.654  0.2859 -0.6167  0.1171
19851W        W36112   3.911  11.548   3.761  0.1338 -0.1156  0.0414
19852W        W36113  10.065   9.451  12.453 -0.0230  0.0801 -0.2383
19853W        W36114   9.519  16.994   4.205  0.0887  0.1500 -0.0163
19854W        W36115   9.761   8.993  13.148 -0.1502  0.1897  0.1787
19855W        W36116  15.019   3.214   3.865  0.0400  0.1269 -0.2461
19856W        W36117   5.943   1.594  14.408  0.2881  0.1928 -0.0795
19857W        W36118   6.914  12.258  14.497  0.1136 -0.3005 -0.0593
19858W        W36119   8.392   4.952  13.156  0.0656 -0.0781 -0.1470
19859W        W36120  17.741  10.080   0.136 -0.0933  0.1197 -0.0214
19860W        W36121  15.564  14.319  11.817 -0.3627 -0.1277 -0.0802
19861W        W36122  18.338  14.775   1.795 -0.4324  0.0103 -0.0154
19862W        W36123  16.711   8.616   0.001 -0.1817  0.1594  0.1104
19863W        W36124   6.651   2.440   1.255 -0.1820 -0.0392  0.4443
19864W        W36125   4.470  11.422   4.513 -0.1843 -0.0095  0.3152
19865W        W36126   4.166  10.087   3.507  0.2669  0.0297 -0.2541
19866W        W36127   0.530  11.227   5.495  0.0854 -0.3395  0.1450
19867W        W36128   3.399   0.582   4.948 -0.2313 -0.0274 -0.0929
19868W        W36129   3.859   6.183   3.853 -0.0705  0.3142  0.0738
19869W        W36130   5.529   6.681   2.380 -0.0882  0.1851 -0.1163
19870W        W36131   6.513  11.972  11.150  0.0519 -0.0096 -0.2374
19871W        W36132  11.643   8.433  13.213 -0.1108  0.1543 -0.1759
19872W        W36133   4.880   2.773   2.599 -0.1530  0.2253 -0.0248
19873W        W36134   7.954  18.322   2.506  0.0524  0.1456  0.3097
19874W        W36135  14.806  15.419  13.318 -0.3531  0.0796 -0.3308
19875W        W36136  16.840   2.790  12.937 -0.2236 -0.0241 -0.0273
19876W        W36137   2.187  17.540   5.439  0.2942 -0.1223  0.0662
19877W        W36138  10.404  13.978  15.297  0.1857  0.2944  0.1267
19878W        W36139   4.596   3.492   3.360 -0.2531  0.0646 -0.2984
19879W        W36140   8.759  18.079   5.543 -0.0110 -0.3138 -0.2447
19880W        W36141   7.690  12.025   1.041  0.2719 -0.0457 -0.2880
19881W        W36142   1.152   5.404   2.131  0.4214 -0.0355  0.1205
19882W        W36143   0.466  10.402   5.797 -0.0610  0.0716 -0.2841
19883W        W36144  15.013   9.902  15.047  0.0121 -0.2962  0.2394
19884W        W36145  14.936  11.823   5.077 -0.6081  0.0943 -0.1025
19885W        W36146   8.078  11.367  16.100 -0.0987  0.2569  0.1216
19886W        W36147   8.236   7.821  13.940 -0.0034 -0.0704  0.3315
19887W        W36148   6.045   4.529  15.050  0.0816 -0.2755 -0.0908
19888W        W36149   5.807   3.344   2.286  0.1491  0.2326 -0.1470
19889W        W36150   1.064   8.893   2.016  0.3234  0.0837  0.1409
19890W        W36151   5.951  13.973   2.917 -0.0738 -0.3582 -0.3573
19891W        W36152   9.757  13.456   5.303 -0.0629 -0.4312 -0.2715
19892W        W36153   7.473  16.501   3.652  0.0188 -0.2136 -0.2108
19893W        W36154   7.302   0.399  11.878  0.0954 -0.1470  0.1787
19894W        W36155  11.677   5.375   4.149 -0.0617  0.2126  0.1834
19895W        W36156   1.971  14.626  13.719  0.1309  0.2811  0.0995
19896W        W36157   1.550   8.559  11.756 -0.2174 -0.0961 -0.2277
19897W        W36158   1.460  15.303   4.954  0.2454  0.0981 -0.1909
19898W        W36159   2.572  10.292  13.443 -0.0093 -0.0587 -0.0041
19899W        W36160   7.662  15.938  14.300  0.1329 -0.0151 -0.2858
19900W        W36161   3.241   3.566  15.527  0.2386  0.0056  0.0624
19901W        W36162   0.468   0.046  15.055  0.1756 -0.1783  0.0564
19902W        W36163   1.253  16.593  14.808 -0.1492 -0.0887  0.0217
19903W        W36164  11.024   6.730   4.998  0.3776 -0.1720 -0.1795
19904W        W36165   1.697  15.638   6.357  0.1954  0.1811  0.0036
19905W        W36166   8.246  15.488  16.176  0.0142 -0.0747 -0.1060
19906W        W36167   7.593  13.963  13.179 -0.2100 -0.0022 -0.2492
19907W        W36168   2.440  11.282  11.451 -0.3565 -0.1992  0.1323
19908W        W36169  14.730  11.419  14.018 -0.2419 -0.0554 -0.0346
19909W        W36170   4.511  15.037  15.618 -0.0850 -0.2104 -0.1853
19910W        W36171   6.565   0.957  13.265  0.0264  0.0127  0.3162
19911W        W36172  14.871   8.117  16.165 -0.0339 -0.2952  0.1148
19912W        W36173  13.707   7.569  13.973 -0.1868  0.0862  0.0137
19913W        W36174   5.211   8.046  16.205  0.2253 -0.1815  0.3502
19914W        W36175  11.346  14.440  14.469  0.2629  0.2015 -0.1704
19915W        W36176   1.507   7.138   3.446 -0.0657  0.0329 -0.1380
19916W        W36177   7.587  14.740  14.585 -0.0148  0.1200  0.1881
19917W        W36178   4.583   8.458  15.127 -0.2863 -0.2200 -0.0211
19918W        W36179   1.895   4.975   2.542  0.0606  0.1408 -0.0861
19919W        W36180   9.061  15.047   5.243  0.0210 -0.2859 -0.1989
19920W        W36181   2.793   3.761  14.004  0.1527  0.1096  0.0446
19921W        W36182  10.633  14.056   0.621 -0.1708  0.2591 -0.2717
19922W        W36183   5.865   4.425  11.813 -0.2254 -0.0556  0.3546
19923W        W36184   6.376  12.310   3.610 -0.3866  0.0253  0.0140
19924W        W36185   6.569   1.724   0.592 -0.0046  0.0790 -0.1253
19925W        W36186   3.492   4.297   4.590 -0.1736 -0.2084  0.2063
19926W        W36187   2.776   6.877   4.283 -0.2424 -0.0615 -0.1385
19927W        W36188   3.466  14.886   5.535 -0.0095 -0.2407 -0.1225
19928W        W36189   8.850  14.887  12.129  0.0577 -0.1116 -0.1575
19929W        W36190   0.117  17.768  15.088 -0.1039 -0.0647  0.0196
19930W        W36191  13.129   5.491  11.269  0.0600  0.3314  0.0358
19931W        W36192  17.613   3.820  14.516 -0.0946 -0.0071  0.1582
19932W        W36193   6.932   0.047   2.784 -0.3262  0.0336  0.1272
19933W        W36194  11.467  13.190   3.234  0.2849  0.3722 -0.0407
19934W        W36195   2.074   4.089   5.009 -0.3288 -0.2217 -0.1511
19935W        W36196  18.317   4.231   3.629 -0.0395  0.0193 -0.0265
19936W        W36197  11.379   9.283   3.719  0.1854  0.2858 -0.2803
19937W        W36198  11.349   6.248  13.428  0.3594 -0.0281  0.0284
19938W        W36199   8.477  16.494  12.876  0.0337  0.0588 -0.1436
19939W        W36200  11.902   9.714  14.260  0.1570  0.0083 -0.3141
19940W        W36201  12.517  17.764   3.616  0.1649  0.1818  0.1002
19941W        W36202  10.915  14.680   4.828  0.0384 -0.0319  0.1869
19942W        W36203  17.907  18.023   5.112  0.0250 -0.0393 -0.0522
19943W        W36204   6.825   0.242   5.674 -0.0748 -0.1017  0.1374
19944W        W36205  10.399  16.274   2.560 -0.0670 -0.0141 -0.2974
19945W        W36206  13.419   1.931   3.636 -0.2156 -0.1568 -0.3259
19946W        W36207  13.730  12.656   3.166  0.0086  0.1335  0.1641
19947W        W36208  13.712   7.331   2.980 -0.0401 -0.0535 -0.1791
19948W        W36209  14.471   3.933  16.213 -0.2083  0.1267  0.1176
19949W        W36210  10.513  17.600  13.220  0.4836  0.3365  0.0094
19950W        W36211  13.215   7.702  15.728 -0.0119  0.1088  0.1394
19951W        W36212   8.416   9.403   0.920  0.1282  0.1494 -0.0314
19952W        W36213  11.448   4.944   0.904 -0.0709  0.1370  0.2854
19953W        W36214  16.738   1.215  13.349  0.2757 -0.3464 -0.1423
19954W        W36215   8.818  14.161   4.694  0.1807  0.1766  0.0724
19955W        W36216  13.246   2.705   0.692 -0.0710  0.0021  0.1658
19956W        W36217   3.495  15.063   5.001 -0.2647  0.0989 -0.0999
19957W        W36218  10.032   2.215   1.284 -0.0482  0.1917  0.0935
19958W        W36219   3.653   3.425  11.574 -0.0551  0.0779  0.2542
19959W        W36220   1.958   8.284  15.424  0.0238 -0.2165 -0.2016
19960W        W36221  13.481   4.264   4.822 -0.1696  0.0708 -0.0030
19961W        W36222   7.673  10.981   3.220 -0.1172 -0.0006 -0.0178
19962W        W36223  13.420   9.816  16.295  0.0752 -0.1334  0.0428
19963W        W36224   1.231  18.291  13.717  0.0943  0.1218 -0.1374
19964W        W36225   9.946  13.738  14.396  0.1340  0.2752 -0.2784
19965W        W36226  10.945  17.584   3.037 -0.0630  0.0591 -0.0668
19966W        W36227   0.596   1.833  13.032  0.2839 -0.0060  0.0264
19967W        W36228  13.497   7.332  16.084  0.0089  0.0684 -0.2328
19968W        W36229  17.540  14.488   2.117 -0.0491 -0.3304  0.0383
19969W        W36230  13.612  15.993  13.677 -0.1852 -0.0177 -0.1672
19970W        W36231  10.068  18.078   3.771 -0.0718  0.1547 -0.0234
19971W        W36232  14.407  17.369  15.752  0.0077  0.0766  0.0929
19972W        W36233   2.107   2.291  14.527  0.0557  0.1971  0.0419
19973W        W36234   4.750  12.791   2.073  0.1665 -0.2928  0.1731
19974W        W36235  14.093  17.996  12.669 -0.1371  0.2578  0.1726
19975W        W36236   3.182  10.260  12.522 -0.0659 -0.2043 -0.1800
19976W        W36237   6.192   0.861   2.116 -0.0988 -0.1156 -0.3137
19977W        W36238  14.201   9.672   0.238  0.0461 -0.1034 -0.3729
19978W        W36239  14.670  10.103  12.766  0.0497  0.3341  0.0103
19979W        W36240  12.578   7.107  15.893  0.3071 -0.2120 -0.0699
19980W        W36241  11.970  17.127  15.866 -0.1024  0.1674  0.0179
19981W        W36242   6.822  13.949  12.240  0.2635 -0.1181 -0.1974
19982W        W36243   4.926   7.316   2.113 -0.0070  0.3471 -0.2029
19983W        W36244   6.853   4.432   2.044  0.1991  0.0459 -0.1692
19984W        W36245  13.887   9.570   3.080  0.0902  0.2265  0.0003
19985W        W36246   0.763   9.235   0.377 -0.0188 -0.1166  0.2657
19986W        W36247  17.954  11.885  13.682 -0.0729 -0.0631 -0.1823
19987W        W36248   6.857   4.100   3.026 -0.0235 -0.0432  0.1342
19988W        W36249  15.385   9.830   4.902 -0.2895 -0.1597 -0.2326
19989W        W36250   4.361   5.288   4.792  0.2405 -0.0449 -0.1129
19990W        W36251  13.730  15.072  10.915 -0.4189 -0.0451  0.0123
19991W        W36252  10.082   9.915  13.438 -0.2889 -0.0242 -0.3458
19992W        W36253   8.183   4.456  11.917  0.2199  0.0865  0.3234
19993W        W36254   7.094  13.034  14.271 -0.2961 -0.0091 -0.0563
19994W        W36255  17.123  16.574  11.949  0.0728 -0.1005 -0.1039
19995W        W36256  13.220   0.709   3.236 -0.0446  0.1001 -0.5727
19996W        W36257  11.261  16.449   5.258  0.1243 -0.3574 -0.1955
19997W        W36258   6.564  10.598   4.431 -0.1819 -0.1845  0.3213
19998W        W36259   7.649   5.160  10.630  0.1154 -0.0010 -0.2911
19999W        W36260   7.642  15.382   6.124  0.0781  0.1266  0.2511
20000W        W36261   3.962   9.300   2.496  0.0832 -0.2965 -0.0947
20001W        W36262   8.134   1.206   2.019 -0.0801  0.0862 -0.1576
20002W        W36263   6.311  11.415  14.580 -0.1345 -0.0101  0.0750
20003W        W36264  12.153   7.747  13.917 -0.1580 -0.0836  0.1522
20004W        W36265   6.176   5.936  15.288  0.2579  0.0948 -0.1949
20005W        W36266   4.925   0.636  15.765  0.0756 -0.0602  0.1826
20006W        W36267  11.495   0.895  12.888  0.3065 -0.0238  0.1680
20007W        W36268  17.888  17.281   3.923 -0.0431 -0.2978 -0.1322
20008W        W36269  16.329  17.336  12.734  0.0711  0.0944 -0.4106
20009W        W36270  14.148   1.990   4.143 -0.0765 -0.0701 -0.2865
20010W        W36271   0.222   7.203   0.274  0.1233  0.0918  0.4518
20011W        W36272   5.731  10.136  13.399 -0.2837 -0.1656 -0.1080
20012W        W36273  11.929   3.998   1.773  0.1340 -0.2178 -0.5160
20013W        W36274  16.865   4.593  11.526  0.1782  0.1446 -0.1992
20014W        W36275   5.197   5.899   5.710 -0.1907  0.1325  0.1876
20015W        W36276  14.508   6.462  13.446 -0.0294  0.0013 -0.1847
20016W        W36277   4.169   0.675   3.213 -0.1874  0.1951  0.1705
20017W        W36278   1.796   4.474   3.366 -0.0069 -0.0084 -0.1442
20018W        W36279   3.950   6.115   2.253  0.2040  0.4939 -0.1573
20019W        W36280   0.482  11.957   4.827 -0.1353 -0.0685  0.1722
20020W        W36281   0.401   0.581  15.855 -0.0497  0.1437 -0.1024
20021W        W36282   5.421  15.631   1.967  0.2005 -0.1749 -0.0568
20022W        W36283  10.810   9.392  16.055 -0.1459  0.2334  0.1173
20023W        W36284   3.417   7.206   3.129 -0.0520  0.1842 -0.0479
20024W        W36285   4.813   1.683  14.779 -0.2516  0.2565 -0.0801
20025W        W36286   7.153   9.765  11.693  0.2017  0.0755 -0.0913
20026W        W36287  18.128   4.624   4.412  0.0157  0.2940  0.3643
20027W        W36288  12.412   5.881   1.855  0.0689 -0.0767  0.0038
20028W        W36289   4.576  10.969   3.320  0.2563 -0.1414 -0.2598
20029W        W36290   5.137  18.335  11.866  0.5193  0.1517 -0.2047
20030W        W36291  16.514  14.213  13.876  0.2481 -0.2182  0.0764
20031W        W36292   1.238   1.967   3.580  0.1670  0.1398 -0.1472
20032W        W36293  10.623   8.842  15.551  0.0343 -0.1176  0.3371
20033W        W36294  15.538   5.680   4.453  0.0843 -0.2592 -0.0541
20034W        W36295  14.125   9.437  14.030  0.0300 -0.1914  0.0896
20035W        W36296  12.158  11.120  12.259 -0.2246  0.1472 -0.3659
20036W        W36297   5.599   7.259   4.566  0.1248 -0.0929 -0.0578
20037W        W36298  18.066  16.033  11.817 -0.2238 -0.1371  0.3381
20038W        W36299  11.811   0.065  15.485 -0.0638  0.3748 -0.0429
20039W        W36300   9.292  18.272   3.398  0.2593  0.1414  0.2809
20040W        W36301   6.126   9.369  11.609  0.0528  0.2898 -0.2575
20041W        W36302   7.725  14.097  12.414 -0.1077 -0.0074 -0.1223
20042W        W36303  13.590  15.356  15.941 -0.0425  0.0623 -0.3419
20043W        W36304   7.753  14.177   4.899 -0.1816 -0.4387  0.2310
20044W        W36305   8.618   8.622   4.701 -0.1543 -0.2381  0.2325
20045W        W36306  13.795   4.194   3.378 -0.0904 -0.1773 -0.0494
20046W        W36307  14.949  17.120   1.693 -0.2313 -0.0763 -0.2985
20047W        W36308  11.253  14.469   3.072  0.1952 -0.2387  0.2297
20048W        W36309   8.473  12.001  14.644  0.0406  0.0902 -0.1824
20049W        W36310   0.487   5.911  12.441  0.3291 -0.0043 -0.2172
20050W        W36311  14.511   3.135   4.714  0.1364  0.0843  0.3611
20051W        W36312   6.864   1.248   3.234  0.0980  0.0022  0.5705
20052W        W36313   0.250   0.632   5.553  0.1492 -0.0188  0.2193
20053W        W36314   3.349   3.121  11.753  0.0648  0.1854 -0.0160
20054W        W36315   9.726   8.448   4.123  0.0284  0.1948  0.2647
20055W        W36316  13.730   7.673  15.684 -0.0490 -0.2493 -0.0287
20056W        W36317  16.685   3.410   2.103  0.0413  0.2326  0.0024
20057W        W36318   3.998   2.410   1.484  0.1879 -0.1961 -0.0190
20058W        W36319  10.218  10.025  14.644 -0.1876 -0.1122 -0.2468
20059W        W36320   6.438   9.038   4.889  0.2056  0.2243 -0.0818
20060W        W36321  18.162  18.239  10.500 -0.1359  0.2510  0.0356
20061W        W36322   1.061  18.049  15.693 -0.0307  0.1886 -0.1150
20062W        W36323  10.081   9.774  14.241 -0.0454 -0.1393  0.0156
20063W        W36324  12.168   1.878  16.091  0.0345  0.4334 -0.1202
20064W        W36325  17.319   2.668   4.159  0.1462 -0.1823 -0.2311
20065W        W36326   8.053  12.233  12.683  0.2412 -0.0908 -0.0351
20066W        W36327  16.187   3.324   4.741  0.0849  0.3772 -0.1516
20067W        W36328   1.211  14.480   1.213 -0.1703 -0.0223  0.0632
20068W        W36329  12.027   2.529  13.745 -0.0596 -0.0123  0.1881
20069W        W36330  16.882   2.371   3.214 -0.1355  0.0274 -0.1474
20070W        W36331  17.244   5.297  12.802 -0.0755  0.0152 -0.3132
20071W        W36332   3.139   4.692   2.580  0.0934  0.0313  0.1334
20072W        W36333  15.745  15.187  15.411  0.1054 -0.0397  0.0011
20073W        W36334   1.497   5.345  14.484 -0.3091 -0.2519  0.0122
20074W        W36335   7.912   3.987  12.672 -0.1276  0.0839 -0.0228
20075W        W36336   9.463   3.473   1.886  0.1095 -0.2367  0.0083
20076W        W36337  13.083  15.967   2.932 -0.2364  0.1744 -0.0323
20077W        W36338   7.066   6.622  14.257 -0.0811  0.0310 -0.3228
20078W        W36339   5.930  12.588  14.155  0.0307 -0.1122  0.0132
20079W        W36340   0.238   5.133   2.057 -0.0495 -0.2045  0.0010
20080W        W36341  11.581  13.703  12.403  0.0491 -0.1561 -0.1585
20081W        W36342   0.335   6.061   2.445 -0.0259  0.0038 -0.0217
20082W        W36343  16.123  15.325   3.034 -0.1685 -0.4354 -0.0446
20083W        W36344  14.952   2.966   4.473  0.1276 -0.2111 -0.2777
20084W        W36345   0.784   0.505   0.843 -0.0093  0.1544 -0.0247
20085W        W36346   8.704   9.911   0.120 -0.0129 -0.1149 -0.1528
20086W        W36347  13.963   3.508  13.193 -0.3201 -0.1653 -0.0877
20087W        W36348   9.925   9.005  12.644  0.0672  0.0508  0.2385
20088W        W36349  10.660   0.507  15.502 -0.1884 -0.2616  0.0686
20089W        W36350  17.063  12.083   3.922 -0.0244  0.1810 -0.1445
20090W        W36351   8.960  11.403  16.159  0.0856 -0.3334 -0.2750
20091W        W36352  13.450   1.021  15.139  0.0432 -0.3669  0.1580
20092W        W36353  11.934   3.836   4.235  0.0350 -0.0237 -0.2268
20093W        W36354   5.191  11.601   3.175 -0.1256  0.0935  0.0907
20094W        W36355   8.984  16.881  11.127  0.0611 -0.2053  0.0856
20095W        W36356   1.578  17.761  13.055  0.2866 -0.1971  0.2382
20096W        W36357  15.856   6.952   5.674 -0.3274  0.0014  0.2237
20097W        W36358  11.112  13.091   0.352  0.4495  0.1353  0.0593
20098W        W36359  16.610   7.235   2.191 -0.2192  0.0303  0.0851
20099W        W36360  11.571   5.914  10.698  0.1667  0.1981 -0.0607
20100W        W36361   0.505  11.547  14.793  0.2786 -0.2261  0.0468
20101W        W36362  13.463   4.752  14.166  0.0457 -0.0786 -0.0584
20102W        W36363  18.097  16.623   2.591  0.2773 -0.2194  0.1422
20103W        W36364  12.547  10.694   2.476  0.0412 -0.2531  0.2930
20104W        W36365   6.904   8.860  11.436  0.0904  0.2126  0.0414
20105W        W36366   9.284   8.656   3.868  0.0867  0.0547  0.3241
20106W        W36367   5.298   6.305   3.388  0.2368  0.0158 -0.1909
20107W        W36368  12.170   9.000  14.576  0.0295 -0.4207  0.0631
20108W        W36369   4.285   8.534   4.729  0.0843 -0.4452 -0.2349
20109W        W36370   5.458  18.238   2.249 -0.0380  0.2926 -0.0239
20110W        W36371   8.601  15.396   3.774 -0.1114  0.4995 -0.0720
20111W        W36372   9.715   9.412   4.040  0.1128 -0.1153 -0.2609
20112W        W36373   6.682   2.995   1.175  0.1250 -0.0749 -0.2143
20113W        W36374   2.071  16.437  14.234 -0.0972 -0.0840 -0.0139
20114W        W36375  10.408  15.670   1.456 -0.2155 -0.1570 -0.0040
20115W        W36376   8.285   7.748  11.713 -0.2311 -0.1002 -0.1227
20116W        W36377  16.250  18.244   6.351  0.0496 -0.3821 -0.1254
20117W        W36378  15.800  14.725  15.915  0.1421  0.0376 -0.1189
20118W        W36379   1.453   6.591   3.489 -0.1182 -0.0376 -0.1921
20119W        W36380   1.063  14.531  13.000  0.1037 -0.0825 -0.0776
20120W        W36381   0.718   3.518   6.500 -0.5553  0.2616  0.0606
20121W        W36382   3.789   3.699  13.109 -0.2510 -0.1439  0.0278
20122W        W36383   2.709  15.825  16.185  0.2112 -0.2819 -0.0520
20123W        W36384   5.835   0.914   4.105 -0.1283 -0.1596  0.3085
20124W        W36385   7.079   0.329   3.240  0.1107 -0.0674 -0.1669
20125W        W36386   4.948   6.865   3.381  0.1851 -0.0730 -0.1303
20126W        W36387   3.135   2.032  14.169  0.1986  0.3437 -0.1755
20127W        W36388  15.073   3.583   1.270 -0.0836 -0.0150  0.0090
20128W        W36389   6.426   4.047   1.709 -0.3299  0.1119  0.1774
20129W        W36390  13.167   1.268   0.993  0.0139  0.0461  0.0204
20130W        W36391  17.324  12.363   4.787 -0.1277 -0.1370 -0.0292
20131W        W36392   9.000  14.594  10.898  0.2758 -0.1674 -0.0464
20132W        W36393   6.539  10.164   2.523  0.0156 -0.1335 -0.1102
20133W        W36394   4.341  18.015   3.908 -0.0548 -0.2944 -0.3261
20134W        W36395   8.333   9.282  12.673 -0.1849  0.2483 -0.0238
20135W        W36396  12.630   8.704   3.928 -0.4037 -0.1727 -0.0570
20136W        W36397   6.526  10.735   5.892 -0.0849 -0.6790 -0.0213
20137W        W36398  16.311  16.058   4.383  0.3776  0.0997 -0.1966
20138W        W36399   8.291   4.858   1.026  0.3309  0.0320  0.0116
20139W        W36400   5.814   4.214  12.625  0.0094 -0.4250 -0.2532
20140W        W36401  15.449  16.315   0.572 -0.1258 -0.1308  0.0510
20141W        W36402  15.157   8.309   1.551 -0.2506  0.1803  0.0795
20142W        W36403  15.701  15.987  14.206  0.0491 -0.2028  0.0941
20143W        W36404   0.818   9.069  15.929 -0.0512  0.0355  0.1652
20144W        W36405   6.406   0.020   2.977  0.0843 -0.0419  0.1214
20145W        W36406  15.285   4.022  15.912 -0.0087 -0.2863  0.1306
20146W        W36407   2.084   0.413  13.583 -0.0748 -0.0608  0.0126
20147W        W36408   0.285  10.565   4.462 -0.2532 -0.0691  0.2092
20148W        W36409  15.944  16.807   3.437  0.0433 -0.1753 -0.3493
20149W        W36410  11.755   4.910  14.126  0.0847  0.0221 -0.3303
20150W        W36411   2.016  17.187  15.159  0.0590  0.1631  0.4385
20151W        W36412   5.179   4.612  10.886 -0.1581 -0.0093  0.2216
20152W        W36413  13.760   3.850   6.023 -0.4911 -0.1289 -0.1075
20153W        W36414  15.284  12.024  14.367  0.0696 -0.0111  0.0704
20154W        W36415   0.457   8.325   2.910  0.0428  0.0928 -0.0421
20155W        W36416  16.986   0.738   4.559  0.0323  0.1468 -0.0843
20156W        W36417  13.253  11.708   4.963 -0.1026  0.1706 -0.0734
20157W        W36418  13.358  16.932   1.919  0.0444 -0.0358  0.2965
20158W        W36419   7.221   1.552  13.397  0.0636 -0.0323 -0.3135
20159W        W36420   5.741  14.283   0.676  0.0113  0.0759 -0.3087
20160W        W36421  15.506   3.530   1.612  0.1913 -0.3413  0.0326
20161W        W36422   8.007   6.978  12.335 -0.0456  0.0013 -0.1805
20162W        W36423   3.472   4.326  14.421 -0.0487  0.3472 -0.1490
20163W        W36424  17.579   1.833  15.713  0.3359 -0.1091 -0.2073
20164W        W36425  16.311  14.719   4.164  0.1177  0.1137 -0.3461
20165W        W36426   8.657  15.906   2.507  0.1805  0.1209 -0.1255
20166W        W36427   2.093   2.855   5.526 -0.2455  0.3457  0.4902
20167W        W36428   3.856   0.590  12.298 -0.2025 -0.2504  0.0031
20168W        W36429   7.349  12.799   0.944  0.3917 -0.2678 -0.2608
20169W        W36430   7.183   9.175  11.779  0.4391 -0.1259 -0.2169
20170W        W36431   3.992  10.606   5.284 -0.0105 -0.0092  0.0476
20171W        W36432  14.652   5.502  12.254 -0.0563 -0.1685  0.0470
20172W        W36433   9.163   3.862  11.965 -0.1125 -0.4012  0.0592
20173W        W36434   6.103  18.336   3.825 -0.3297  0.0142  0.0278
20174W        W36435  15.723   6.689   2.605 -0.4763 -0.2479  0.0830
20175W        W36436  15.119   6.480  14.373  0.0739  0.0647  0.1455
20176W        W36437   9.096   7.413  15.248 -0.1899  0.1210 -0.2250
20177W        W36438  17.398  14.424   4.814  0.0754 -0.0642 -0.4624
20178W        W36439   7.547   8.412  16.275 -0.2548  0.1063 -0.0606
20179W        W36440  17.028  18.312   1.597  0.1689  0.1381  0.2515
20180W        W36441  16.042   4.581   5.385 -0.1132 -0.1082  0.1550
20181W        W36442   3.066  10.073  11.998  0.1954 -0.1177 -0.1381
20182W        W36443   2.848  15.992  11.885 -0.1835 -0.2280 -0.1955
20183W        W36444   9.150   4.861  16.189  0.2716 -0.0748 -0.1273
20184W        W36445   6.407   2.831  12.531 -0.0106  0.0062  0.0341
20185W        W36446   7.126   3.170   4.963 -0.0374  0.1064  0.2070
20186W        W36447  17.635   2.939   5.433 -0.0767  0.1212  0.2256
20187W        W36448   0.706   3.484   4.233  0.2299  0.0153  0.3671
20188W        W36449  12.821   2.847  12.222  0.2068 -0.1721 -0.1558
20189W        W36450   8.746   2.934  13.095  0.0964  0.1408  0.1280
20190W        W36451  12.261  15.169   0.630  0.7104 -0.3834  0.1569
20191W        W36452   0.764  15.100  11.411  0.1114 -0.0245 -0.0303
20192W        W36453  16.212  11.340  11.640 -0.1379  0.0858 -0.0237
20193W        W36454  13.671   9.817  14.943  0.2405  0.0414 -0.0521
20194W        W36455   0.091  12.270  11.119  0.2425 -0.0694 -0.0330
20195W        W36456   9.791   8.094   1.302 -0.0633  0.1402 -0.0480
20196W        W36457   3.614   0.127   5.311  0.1846 -0.0578 -0.0507
20197W        W36458  13.095   3.800   3.201  0.0058 -0.0113 -0.0781
20198W        W36459  11.037  10.438  15.199  0.1519  0.1092  0.0217
20199W        W36460  10.852  10.526  15.696 -0.3313  0.1127 -0.3240
20200W        W36461  10.588  14.147   1.443  0.0012  0.0181 -0.1073
20201W        W36462  16.170   7.359   0.723 -0.0277  0.0117 -0.0801
20202W        W36463   0.912   3.145  11.826 -0.3653 -0.2527 -0.4014
20203W        W36464  16.080  15.758  11.809  0.1377 -0.3018 -0.0236
20204W        W36465  15.801   2.062  15.153  0.2132 -0.3730 -0.2102
20205W        W36466   7.377   5.545  10.998 -0.2410  0.1041 -0.1499
20206W        W36467  14.576   2.896  13.373 -0.0336 -0.1254  0.1163
20207W        W36468  12.040  14.229   5.238 -0.0450 -0.0894  0.0561
20208W        W36469  11.882  14.159  16.027 -0.1946  0.3493  0.0325
20209W        W36470  15.052   0.550   2.689  0.2329 -0.0580 -0.1788
20210W        W36471   1.890   7.017  12.132 -0.2488  0.4880 -0.1443
20211W        W36472  15.974   8.726  15.242 -0.2894  0.1766  0.0087
20212W        W36473   0.236  13.740   4.820  0.0803  0.2256  0.0615
20213W        W36474   3.644  10.919   1.794  0.1011  0.0446  0.1149
20214W        W36475   3.886   3.947  13.639 -0.1543  0.3620  0.1665
20215W        W36476  11.126   9.279   1.204  0.0765 -0.0267 -0.2841
20216W        W36477  17.862  17.429   2.228  0.1747 -0.0364 -0.2274
20217W        W36478  10.118   8.450  11.532  0.0266 -0.0673 -0.1449
20218W        W36479  14.749   4.879   5.039 -0.2125 -0.2230 -0.2128
20219W        W36480  12.065  17.606  15.890  0.1919  0.0550 -0.1908
20220W        W36481  10.947  10.578  13.556  0.2287 -0.3540 -0.0486
20221W        W36482  16.832   9.939   4.917 -0.1614  0.0422  0.3386
20222W        W36483  17.245   3.903   5.392  0.0621  0.2367 -0.3021
20223W        W36484   6.052   0.331  14.701  0.0735  0.1441  0.4531
20224W        W36485   0.546  12.845  14.149 -0.1509 -0.2426  0.2059
20225W        W36486  12.036   5.890  15.247 -0.1436  0.0236  0.1632
20226W        W36487  13.098   4.368  14.092  0.0003  0.1937 -0.2221
20227W        W36488  14.130   5.304   1.358  0.1521 -0.1003  0.0306
20228W        W36489  11.363   1.675  16.237  0.2615  0.1452  0.0027
20229W        W36490  15.780   9.270  13.143 -0.3791 -0.0459  0.0212
20230W        W36491   1.873   4.173  12.620  0.0366 -0.3336  0.0400
20231W        W36492   3.448   3.749   1.247  0.1598 -0.1943 -0.0141
20232W        W36493  15.611   2.529  14.053  0.1111 -0.0907 -0.1312
20233W        W36494   6.472   1.036  14.975 -0.1577  0.0313  0.2105
20234W        W36495   2.085   2.865   0.151  0.0591  0.1767 -0.1129
20235W        W36496   3.141  16.256  16.103  0.2365 -0.0127 -0.1317
20236W        W36497  10.231   1.492   5.076 -0.1131  0.1283  0.0744
20237W        W36498   2.734  16.334   2.743  0.0291  0.2480  0.3117
20238W        W36499   0.395  10.501  14.527 -0.0192  0.1435 -0.2571
20239W        W36500  10.108  16.624  12.131  0.0086  0.2737  0.2289
20240W        W36501  15.146   5.319   6.156 -0.3344  0.1867 -0.1152
20241W        W36502   9.972  15.864  13.911  0.2295 -0.1244 -0.1801
20242W        W36503  15.268   7.841   5.700 -0.0888  0.0121  0.2482
20243W        W36504  10.264   0.458   2.834 -0.0810 -0.0083  0.0073
20244W        W36505   6.911  13.918   4.994  0.1371 -0.0357  0.3118
20245W        W36506  13.727   8.130   1.889  0.0066  0.0810 -0.0671
20246W        W36507   7.305  12.848  13.851 -0.0279  0.2797  0.3015
20247W        W36508  13.886   3.234   0.199  0.0342 -0.0629 -0.1435
20248W        W36509   3.111   6.060   0.364  0.2009 -0.2289 -0.1916
20249W        W36510  14.664   3.425  13.878  0.1554 -0.2800  0.2479
20250W        W36511  17.386   6.543   0.082  0.0411 -0.0671 -0.0192
20251W        W36512   8.932  14.227  11.263 -0.0467 -0.2919 -0.1643
20252W        W36513   6.544   2.420  16.113  0.0701 -0.0515 -0.1756
20253W        W36514  16.417   9.460   3.053 -0.1271 -0.0235 -0.0596
20254W        W36515   6.205  18.178  14.382  0.4151  0.1701  0.0871
20255W        W36516   4.315   7.639   2.054  0.0986 -0.1664 -0.0419
20256W        W36517   8.556  10.561   2.811 -0.1752 -0.0478  0.1594
20257W        W36518   2.855  13.782   4.859 -0.3991 -0.3439 -0.3268
20258W        W36519   0.628   1.106  14.070 -0.0421 -0.3087  0.1068
20259W        W36520   8.846   9.918   1.397 -0.2354 -0.2136  0.1621
20260W        W36521  14.485   8.282  13.468  0.3106  0.1419 -0.1725
20261W        W36522   3.117  13.765  13.138 -0.0960 -0.0692  0.0483
20262W        W36523   9.262   3.944   2.219  0.1224  0.0356  0.1328
20263W        W36524   0.895  16.181   0.861  0.2527 -0.1802 -0.0012
20264W        W36525  12.995   3.561   0.226  0.1309  0.1180  0.1344
20265W        W36526  12.574  12.262   0.925  0.0132  0.0377  0.0737
20266W        W36527   9.575  18.351   2.272  0.2019  0.0038 -0.1440
20267W        W36528  17.733   8.169   0.369  0.3541 -0.0481 -0.0343
20268W        W36529   5.276  12.221  12.060  0.1161 -0.2127  0.1131
20269W        W36530   7.842   4.554   1.052 -0.5170 -0.2451  0.0149
20270W        W36531  17.260  10.561   3.443 -0.0113  0.1745 -0.4765
20271W        W36532   7.152   0.346   5.098  0.1186  0.1616 -0.0219
20272W        W36533  10.647  11.985   0.941 -0.0329  0.0337  0.4029
20273W        W36534   9.843   6.316   2.639  0.2762  0.1669  0.1196
20274W        W36535   3.526   5.536  15.391 -0.1566 -0.1260 -0.2375
20275W        W36536  12.557  17.133  12.749  0.1516  0.4871  0.1986
20276W        W36537   4.240   6.208   4.193  0.1090 -0.1302 -0.0966
20277W        W36538   0.805   7.836   3.823  0.1998  0.0712  0.1546
20278W        W36539   7.204   8.764  15.234  0.0103  0.1158  0.0059
20279W        W36540  12.287   0.649   2.970  0.0741  0.2393 -0.2809
20280W        W36541   9.355  11.728  16.232  0.1363  0.1185  0.0962
20281W        W36542   5.881   5.793   0.279  0.1908  0.0729  0.1051
20282W        W36543   2.462  15.541  15.880  0.0356 -0.3509 -0.2418
20283W        W36544  14.255  13.051   4.932  0.3068 -0.1817 -0.3501
20284W        W36545   0.867   2.225   5.026 -0.1356 -0.2406 -0.1696
20285W        W36546   6.083  15.587  11.313 -0.0325 -0.1315 -0.2596
20286W        W36547   6.337   1.186  10.898 -0.2047  0.1757  0.1813
20287W        W36548   0.127  10.535  12.304 -0.1462  0.3034 -0.1701
20288W        W36549  11.272   3.989   1.512 -0.0368  0.0877 -0.2397
20289W        W36550  16.743  14.834  11.801 -0.1549  0.1227 -0.0387
20290W        W36551   6.480   3.481  15.574 -0.0588  0.5816 -0.0849
20291W        W36552  13.064   6.618  11.342  0.1530  0.1025 -0.2284
20292W        W36553   1.349  13.039  12.572 -0.2093 -0.2564  0.1437
20293W        W36554  15.270   2.139  15.041  0.0929 -0.1970  0.1865
20294W        W36555   9.538  13.632   4.884 -0.1929 -0.0089 -0.2377
20295W        W36556   2.716  16.492  12.044 -0.1073  0.2905 -0.0918
20296W        W36557  14.226   2.643  11.660 -0.3041  0.1748  0.2130
20297W        W36558   6.317   4.018  15.406  0.3362  0.1081 -0.2981
20298W        W36559  14.036   1.569   5.660 -0.0528 -0.1011 -0.1384
20299W        W36560   5.129  17.560   2.174 -0.2080  0.2683  0.2417
20300W        W36561   6.639  17.396  11.470  0.1917  0.3968 -0.1834
20301W        W36562  16.632   2.154   4.564  0.0503  0.0728  0.0478
20302W        W36563  10.199   8.409   3.376  0.1455  0.2878  0.1359
20303W        W36564  13.727   9.259   3.445  0.2096  0.1284  0.4976
20304W        W36565   9.649  11.498  12.137  0.0093  0.1502  0.4209
20305W        W36566  18.111  16.562  16.222 -0.0633  0.1235  0.1300
20306W        W36567  12.316   3.360   3.665  0.2328 -0.0885  0.1171
20307W        W36568   0.042  13.094  12.342 -0.1558 -0.1009 -0.1617
20308W        W36569  13.465   0.394  15.330  0.0207  0.1766 -0.0537
20309W        W36570   7.876  14.847   3.622 -0.2148 -0.2130  0.0341
20310W        W36571  11.405  14.356   5.630 -0.1040 -0.2274 -0.3289
20311W        W36572   5.432  15.956   3.165 -0.1815 -0.1713  0.1547
20312W        W36573  12.674  16.387  15.507  0.0394 -0.1947 -0.2914
20313W        W36574  16.778  12.954  12.290 -0.5811  0.2397 -0.1005
20314W        W36575  17.941  12.143  14.647  0.0513 -0.2772 -0.0843
20315W        W36576   4.840  16.670   0.623 -0.0521 -0.4099 -0.0303
20316W        W36577   2.679   4.722   4.740 -0.1657  0.0918 -0.0375
20317W        W36578  12.760   4.244  13.063 -0.2080  0.2496 -0.0046
20318W        W36579  11.904  13.572   4.579 -0.0479  0.1701  0.1373
20319W        W36580   3.337  17.707  11.913 -0.0857 -0.1452  0.1386
20320W        W36581   2.691  14.407  13.171 -0.1488  0.0881 -0.0702
20321W        W36582   4.484   5.980   3.155  0.1269  0.1480  0.3113
20322W        W36583  17.257  15.647  12.681 -0.2154  0.1135 -0.0256
20323W        W36584   2.717  12.175   2.084  0.0084 -0.1148 -0.1448
20324W        W36585   7.006  10.848   4.372  0.0152  0.0403 -0.0159
20325W        W36586  17.992  14.104   4.487 -0.0052  0.2824 -0.0607
20326W        W36587   5.365  10.268   2.716  0.1494 -0.1598  0.3853
20327W        W36588   4.111   7.247  16.300  0.1000 -0.0955 -0.0415
20328W        W36589   8.057   0.793  11.627  0.0423  0.1807  0.0681
20329W        W36590  11.239   1.999  15.291  0.0709 -0.3386 -0.4942
20330W        W36591  13.209  10.041  12.695 -0.2335  0.1365  0.2011
20331W        W36592  16.283   8.928  15.877 -0.1979  0.0606 -0.2125
20332W        W36593   5.208   5.437  12.891  0.1003 -0.0626 -0.0576
20333W        W36594   7.127  12.465  11.264 -0.2001 -0.0582 -0.1126
20334W        W36595   2.683   2.289  12.495 -0.0332  0.0348 -0.2530
20335W        W36596   6.326  16.853  11.574  0.3751 -0.0934 -0.0677
20336W        W36597  14.216   5.331   4.873  0.1464  0.1243  0.1664
20337W        W36598  10.308  15.500   3.440 -0.0352 -0.2816 -0.0824
20338W        W36599  12.051   8.783   3.823 -0.2887 -0.0686 -0.0598
20339W        W36600   0.209  15.801   1.363  0.0064 -0.0369  0.1689
20340W        W36601   7.875   7.162  11.074 -0.2714  0.1198  0.4281
20341W        W36602   4.306   3.421   2.915  0.1959 -0.3498 -0.0908
20342W        W36603   5.429   0.837   4.318 -0.1496  0.1059 -0.2008
20343W        W36604  10.206   3.392  14.320  0.0386  0.3465  0.3825
20344W        W36605   7.143   7.970   0.675  0.2692 -0.2372 -0.1958
20345W        W36606   7.862   9.992   1.229  0.1490  0.0905  0.4170
20346W        W36607   6.273   7.849   5.162 -0.0523 -0.1166  0.0685
20347W        W36608   7.295   4.498  12.254 -0.0579  0.2457 -0.4915
20348W        W36609  10.216   0.718  14.504  0.0269  0.0698 -0.0238
20349W        W36610  13.181   9.938   4.799 -0.1351 -0.1181  0.0326
20350W        W36611   1.070   9.381   2.148 -0.1636 -0.1617  0.0061
20351W        W36612   5.264  11.886   5.259  0.1405  0.2645  0.2754
20352W        W36613  10.699   9.659   4.511 -0.1052 -0.1806  0.0268
20353W        W36614  15.121  13.491  13.183  0.0192 -0.1881  0.0200
20354W        W36615  17.126   2.848   5.532  0.2107 -0.1904 -0.2134
20355W        W36616   2.188   9.277  11.446  0.1621 -0.3814 -0.1898
20356W        W36617   7.898   2.949  14.575  0.1684 -0.0823  0.0055
20357W        W36618   0.658  12.804   3.751 -0.0611  0.4169  0.3102
20358W        W36619  15.754   3.185   4.471  0.0305  0.1714 -0.2975
20359W        W36620   8.362   6.114  11.172  0.1243  0.1334 -0.0316
20360W        W36621   6.137   3.006   2.185  0.1585  0.0123 -0.2838
20361W        W36622   2.871   0.289  14.121 -0.3261  0.2549  0.1341
20362W        W36623  14.428  17.763   4.294 -0.3244  0.0097 -0.2596
20363W        W36624   2.504  10.568  15.972 -0.1166 -0.1983 -0.0329
20364W        W36625  16.239   4.459  13.989  0.0467  0.0284  0.0834
20365W        W36626  15.501  11.489  14.742  0.2217  0.1368  0.1401
20366W        W36627   1.247  15.444   5.519  0.2050  0.2785  0.0715
20367W        W36628  11.056  11.135   1.419  0.0601 -0.3177  0.3424
20368W        W36629  18.031  17.688   4.781  0.2897  0.2092  0.0220
20369W        W36630   5.748   4.867   4.337 -0.1523  0.4227  0.0944
20370W        W36631  14.466   3.767  13.390 -0.1627 -0.5064 -0.3046
20371W        W36632  12.953   4.943   2.720 -0.1121  0.0035 -0.0439
20372W        W36633  12.949  13.351   4.626  0.2829 -0.1070 -0.0540
20373W        W36634   3.087  10.814   5.569 -0.0335  0.0315 -0.0913
20374W        W36635   2.106   7.835   3.573  0.0530 -0.0302 -0.2000
20375W        W36636  13.224   0.744   4.662  0.0994 -0.1927  0.1205
20376W        W36637  15.969   2.031  12.873  0.1949 -0.0039 -0.1103
20377W        W36638   4.677  13.943  14.065 -0.0657 -0.2828 -0.0432
20378W        W36639  16.862   3.069  15.851 -0.3606 -0.0643  0.0825
20379W        W36640   1.465   1.440  15.863  0.0250  0.0283 -0.1794
20380W        W36641  13.674  13.102  15.679  0.1280  0.0497  0.1568
20381W        W36642   3.257  15.053  14.169 -0.1460  0.1605 -0.3547
20382W        W36643   3.044   1.719   5.063  0.0175  0.1037  0.0371
20383W        W36644   8.749  13.088  13.660 -0.0311  0.1174  0.0665
20384W        W36645   2.157   6.044   1.254  0.2396 -0.0830 -0.0314
20385W        W36646   8.927  15.797   1.430  0.4189  0.0312 -0.0128
20386W        W36647  11.570   3.031  16.042  0.0906 -0.0677  0.1964
20387W        W36648   5.729   1.912  14.768 -0.0643 -0.2500 -0.2707
20388W        W36649   7.631   5.125   4.111 -0.1578  0.0390  0.0316
20389W        W36650   6.853   3.060  11.321  0.2187 -0.1208  0.2233
20390W        W36651   7.882   5.667  10.816 -0.0284  0.1248 -0.1025
20391W        W36652  17.863  13.069   4.905  0.0735  0.0713  0.3392
20392W        W36653  17.143  11.654   0.822 -0.0588  0.0900  0.4075
20393W        W36654   4.371  13.885   0.859 -0.3178  0.0925  0.0019
20394W        W36655  11.834  16.889   1.460  0.3711 -0.2033  0.3455
20395W        W36656   2.363  17.167   4.533 -0.0939  0.3363 -0.0208
20396W        W36657   1.782   5.784  11.449  0.1012  0.1157  0.3045
20397W        W36658   6.360   0.289   0.756  0.0547 -0.0966  0.3714
20398W        W36659   3.595   5.267   3.760 -0.0528 -0.0542  0.2325
20399W        W36660  17.898   0.645  14.744 -0.1652  0.0756 -0.2290
20400W        W36661  10.138  16.412   3.872 -0.0361 -0.2048 -0.0083
20401W        W36662   0.473  11.093  15.839  0.0001  0.1402 -0.0507
20402W        W36663   8.846   3.301  13.444  0.1299 -0.2504  0.1884
20403W        W36664  16.809  18.269  13.709  0.0862 -0.2117  0.1436
20404W        W36665   2.416   1.213   4.793 -0.3459 -0.0238  0.3017
20405W        W36666   4.715   1.837  11.072  0.3358  0.3135 -0.0660
20406W        W36667  11.398   4.323  13.452 -0.0099 -0.0932  0.0077
20407W        W36668   1.485  14.116   2.222  0.0066  0.1516 -0.1337
20408W        W36669  17.581   7.422  12.662  0.3376 -0.1641 -0.0727
20409W        W36670  14.691   3.064  15.285  0.1006 -0.2445 -0.1262
20410W        W36671  10.772   3.633  11.942  0.2500  0.1658  0.0497
20411W        W36672  11.794  10.175   3.531 -0.3214 -0.1204  0.2901
20412W        W36673   4.045   4.238  15.639 -0.0676  0.2747  0.0158
20413W        W36674  14.207  16.468   5.765 -0.0138  0.0852  0.1586
20414W        W36675  11.428   6.352   3.165 -0.3550 -0.1536 -0.1269
20415W        W36676  11.277  18.166  12.823 -0.0548  0.2655 -0.1596
20416W        W36677  12.615  15.663   3.540 -0.0230  0.0188 -0.3331
20417W        W36678   4.434   7.473  13.141 -0.0296 -0.0579 -0.0170
20418W        W36679   8.457  10.254  13.370 -0.2460 -0.2195  0.1010
20419W        W36680  14.277  15.477  13.617 -0.3982  0.3019 -0.1362
20420W        W36681  17.517  15.864  11.544 -0.0049  0.1380 -0.0685
20421W        W36682   5.986  16.510  13.894  0.1315  0.1582 -0.0297
20422W        W36683  18.269   0.538   0.941 -0.3240 -0.2164 -0.2750
20423W        W36684   5.736   5.808  13.210 -0.3194 -0.3072 -0.2226
20424W        W36685   9.280   9.698  12.303  0.5130  0.1066  0.1447
20425W        W36686  13.377  14.702   2.328  0.0534 -0.0050  0.0200
20426W        W36687  14.215   9.811   2.108  0.0968  0.1191  0.1739
20427W        W36688   1.064   2.766   0.640 -0.0018 -0.0764  0.3932
20428W        W36689  18.129   0.565   1.585 -0.2253  0.2785 -0.0480
20429W        W36690   8.124  15.856   2.678  0.0444  0.0643 -0.1448
20430W        W36691   3.903  14.467  14.352  0.1100 -0.1405 -0.1127
20431W        W36692  14.961  10.109   4.363 -0.0647  0.2012  0.0344
20432W        W36693   0.284  13.948   5.689  0.1461 -0.1492  0.1831
20433W        W36694  10.963   2.991  12.624 -0.3208 -0.0181  0.3212
20434W        W36695   2.622  16.585   5.233 -0.2051 -0.1802 -0.3300
20435W        W36696   2.628  11.243   2.164  0.1065  0.2672  0.0266
20436W        W36697   7.276  10.693   5.193 -0.2199  0.1265  0.1979
20437W        W36698   0.394   9.237  14.924 -0.3320 -0.1474  0.1943
20438W        W36699   3.865  18.144   2.799  0.0282 -0.0326  0.0188
20439W        W36700  16.382  15.051  12.243  0.1730  0.4671 -0.0140
20440W        W36701   0.525   1.835   0.064 -0.1767 -0.3547  0.1845
20441W        W36702  17.206  18.171  16.063 -0.0126 -0.0213 -0.0864
20442W        W36703   8.924  12.789   0.367 -0.3147 -0.0280 -0.0912
20443W        W36704   8.655   4.750  16.024 -0.2249  0.0293  0.0539
20444W        W36705   1.456   5.653   4.728  0.0447  0.1364 -0.1878
20445W        W36706  12.964   6.499   3.113  0.0202 -0.2692 -0.1267
20446W        W36707   4.745   5.244   5.061 -0.2460 -0.0249  0.1233
20447W        W36708   4.705  17.313   3.475  0.0545  0.2356  0.0302
20448W        W36709   9.300   7.085  12.050  0.0084  0.1776  0.1776
20449W        W36710  11.999  18.305  14.895  0.0007 -0.4316  0.2602
20450W        W36711  13.695  18.297   1.961  0.1756 -0.2931 -0.0195
20451W        W36712  17.666  14.891   0.043 -0.0230  0.0903 -0.1098
20452W        W36713   2.925  14.808   1.741 -0.1724 -0.1281 -0.2545
20453W        W36714  13.848   2.210  11.786 -0.2644 -0.1302  0.0487
20454W        W36715  18.102  15.826   4.186 -0.0161 -0.2044  0.2308
20455W        W36716   1.634   9.797   3.761  0.1998 -0.2815 -0.1925
20456W        W36717  11.935   7.041   4.076 -0.4089 -0.2620  0.1369
20457W        W36718  11.038  11.973   5.204  0.2580  0.2514 -0.2462
20458W        W36719   1.912   6.642   3.661 -0.1324 -0.3127 -0.2046
20459W        W36720   9.716   2.686   2.535 -0.0517 -0.0834  0.3360
20460W        W36721   7.916   1.790  12.470  0.1752  0.2268  0.1816
20461W        W36722  12.517  11.892   2.911  0.1772 -0.0514  0.1463
20462W        W36723   5.442  14.862   2.104 -0.0658 -0.1328  0.0205
20463W        W36724  11.953  16.091   2.968  0.3166 -0.0226 -0.2187
20464W        W36725   4.940  12.241  15.676 -0.0999 -0.0050 -0.0743
20465W        W36726   1.632   7.564   4.240  0.3203  0.0055  0.3240
20466W        W36727  11.348   3.221   2.649  0.2228 -0.2150  0.0331
20467W        W36728   2.644   1.718   4.554 -0.0593  0.1199  0.0252
20468W        W36729  17.371   7.377  16.125 -0.1197 -0.2063  0.0306
20469W        W36730  18.337   1.535   1.648  0.0963  0.0605 -0.0003
20470W        W36731  14.070  17.507   0.908  0.2043  0.1914  0.0399
20471W        W36732   0.110   1.669   2.147 -0.2750 -0.0764  0.0961
20472W        W36733  14.918  17.498  15.662  0.0654  0.1242 -0.0170
20473W        W36734  15.010   9.832   0.789 -0.1235 -0.1777 -0.1483
20474W        W36735   7.381   3.024   4.456  0.0831 -0.1368  0.1050
20475W        W36736   7.079   1.732  11.296 -0.1020  0.1061  0.0616
20476W        W36737  15.681  12.971  12.237  0.3317  0.1918  0.0204
20477W        W36738   6.047   7.441  12.414  0.2516 -0.0347 -0.1334
20478W        W36739   5.868  13.554  11.744 -0.0250  0.1404  0.0759
20479W        W36740   2.046  16.979  15.690 -0.0663 -0.0739 -0.1681
20480W        W36741   7.843   7.988  16.216  0.0499 -0.0603 -0.1056
20481W        W36742  16.254  15.541   1.773 -0.0998  0.0506  0.1013
20482W        W36743   3.411  12.221   1.703 -0.0093  0.2066  0.2088
20483W        W36744   4.841  11.980  11.278  0.0455 -0.1843 -0.4066
20484W        W36745   8.676  12.264   3.194  0.0131  0.1000 -0.0794
20485W        W36746   3.781   1.424  15.879 -0.1607  0.2213 -0.1152
20486W        W36747  14.807  10.040  15.652  0.0198  0.0236  0.3843
20487W        W36748   9.917  16.401   2.455  0.1324  0.1552  0.1173
20488W        W36749  16.258  13.286   2.654  0.2159 -0.1160  0.2165
20489W        W36750  10.320  17.615   3.836  0.3732  0.0532 -0.2685
20490W        W36751   6.403  16.317  12.370 -0.1374  0.2245  0.2011
20491W        W36752   7.059  18.280   5.382  0.0298  0.1296 -0.2484
20492W        W36753   6.868   6.091   3.308 -0.2451  0.0599 -0.2668
20493W        W36754   0.227  16.264  13.077  0.3829  0.0464  0.0121
20494W        W36755  17.580   7.456  14.758  0.2334 -0.1962  0.1469
20495W        W36756   6.518  13.955  15.430 -0.0674 -0.1281 -0.1214
20496W        W36757   2.061  16.865   4.845  0.2915 -0.0276  0.0057
20497W        W36758   2.824   7.316  15.403 -0.0554  0.0750  0.0484
20498W        W36759  12.479  15.102  14.653  0.0090  0.1992  0.0113
20499W        W36760   9.176  12.222  16.168 -0.0068  0.0115  0.0150
20500W        W36761   3.371   5.067   1.977 -0.2251  0.0299 -0.2640
20501W        W36762  13.291  10.833  15.071 -0.0021  0.1474 -0.0492
20502W        W36763   5.586  17.280  15.286  0.1453 -0.4418 -0.0262
20503W        W36764   7.375  17.741  14.293 -0.1672 -0.0786 -0.3780
20504W        W36765   3.712   6.587   2.128 -0.0617 -0.1214 -0.2212
20505W        W36766   2.105   2.297   3.746  0.4543 -0.0976 -0.1500
20506W        W36767   6.822   2.603  15.770  0.3018  0.0005  0.2467
20507W        W36768  12.101   3.150   1.467 -0.0784 -0.0732  0.4413
20508W        W36769  11.198   4.787  15.423  0.1042 -0.0703  0.1226
20509W        W36770   3.895  18.318   3.845  0.1545  0.0640  0.0803
20510W        W36771  11.265   2.351   5.137 -0.2115  0.0037 -0.3547
20511W        W36772   9.102   1.373   1.098 -0.0306  0.1346 -0.0256
20512W        W36773   6.374   5.032  13.047 -0.3373 -0.0038 -0.2927
20513W        W36774  12.917   2.097   5.300 -0.0568 -0.1898 -0.2555
20514W        W36775  14.574   6.082   4.400  0.0882  0.0145 -0.0272
20515W        W36776  16.403  18.173  13.453  0.3405 -0.0568  0.0898
20516W        W36777   3.886   2.958  12.360 -0.0543 -0.1198  0.2675
20517W        W36778   0.629   7.435   5.194 -0.1252 -0.2215 -0.5117
20518W        W36779  10.859   3.400   3.498 -0.0468  0.4726 -0.4046
20519W        W36780   8.636  14.217   0.382  0.2280 -0.0186 -0.3384
20520W        W36781   9.746  11.009   0.843  0.1570  0.3070  0.2523
20521W        W36782   8.912   9.483  15.879  0.2597 -0.0275 -0.1174
20522W        W36783  12.772   9.377  11.330  0.1902 -0.2402 -0.0582
20523W        W36784  14.862   2.876   2.497  0.1103  0.1346  0.1477
20524W        W36785   5.476   7.638  16.177 -0.1980  0.3414 -0.1514
20525W        W36786   8.768   9.203  12.913  0.0412 -0.2400  0.2000
20526W        W36787  10.288   5.583  13.801 -0.0348 -0.2678 -0.1368
20527W        W36788  12.970   6.030  12.000 -0.3006 -0.2795 -0.1073
20528W        W36789  12.084  12.137   1.643 -0.2288 -0.3192 -0.2801
20529W        W36790   1.477   8.315  15.557 -0.0617  0.0957  0.0542
20530W        W36791  15.154  10.597   4.432  0.0309 -0.2233  0.1824
20531W        W36792  13.296   4.302   4.296  0.3335 -0.2229 -0.1657
20532W        W36793   0.772   6.490  15.032  0.1069  0.4049 -0.0372
20533W        W36794  10.528   3.043   3.846  0.0763 -0.1848  0.3253
20534W        W36795   9.157  16.655   3.986  0.1434  0.1437 -0.1302
20535W        W36796   1.345  17.048  13.237 -0.3342 -0.1640 -0.2021
20536W        W36797  17.826   6.374   2.910  0.1852 -0.1526  0.3595
20537W        W36798   7.115  13.010   0.143 -0.0930 -0.0788  0.1941
20538W        W36799  12.940  14.957   2.794  0.0316  0.0410  0.0900
20539W        W36800   3.673  17.135   1.317  0.2111 -0.2196 -0.2265
20540W        W36801  10.938   1.013   4.893 -0.0696  0.0141 -0.1717
20541W        W36802  11.945   8.867  13.965  0.1260  0.2643 -0.0733
20542W        W36803  12.117  13.210  13.093 -0.1015  0.1020  0.2285
20543W        W36804   3.023   6.358  13.269  0.3101  0.1786 -0.0351
20544W        W36805   2.484   9.092   2.504 -0.2264 -0.1442 -0.0305
20545W        W36806   9.935  17.242  15.836 -0.0555 -0.2246 -0.4345
20546W        W36807  12.423  16.258  12.788  0.3303  0.1025  0.0356
20547W        W36808  13.940   0.001   1.080 -0.3254  0.1490 -0.3735
20548W        W36809  10.707   2.350  15.103 -0.3197 -0.1479 -0.1407
20549W        W36810   2.998   5.803   5.481 -0.1693  0.0248  0.0444
20550W        W36811   5.390  10.049  13.846 -0.0304  0.0019  0.1502
20551W        W36812   5.264   4.847  15.545  0.1686 -0.0114  0.2091
20552W        W36813   4.109  14.225   1.349  0.0731 -0.0976  0.2959
20553W        W36814  10.919  12.836  11.996 -0.0862 -0.0163 -0.0037
20554W        W36815  11.797  16.633   3.391 -0.1147 -0.1398  0.2524
20555W        W36816  11.575  15.362   5.243 -0.1373  0.0752 -0.2197
20556W        W36817   0.967  13.265   4.474  0.0219  0.0451 -0.0207
20557W        W36818   8.738  16.360  14.053 -0.4078 -0.3417 -0.3558
20558W        W36819   4.509  10.404   0.841  0.0481  0.1867  0.0802
20559W        W36820   4.241   0.551   0.203  0.3373 -0.2416 -0.0208
20560W        W36821   0.546   7.415   4.210 -0.1995  0.0541 -0.3176
20561W        W36822  14.602   0.077  11.952 -0.0086 -0.1269 -0.0122
20562W        W36823   5.816  17.918   1.364 -0.0000  0.1411 -0.5869
20563W        W36824  16.781   5.207   0.514  0.0619  0.2631 -0.1007
20564W        W36825   3.094   7.063  15.824  0.1071  0.3537 -0.1645
20565W        W36826  13.747   4.635   4.667  0.3542  0.1410  0.1714
20566W        W36827   3.481   3.183   3.071  0.0301 -0.0905 -0.0233
20567W        W36828   2.460  15.827  12.869  0.0230 -0.1830  0.1019
20568W        W36829  13.212  15.554   1.766 -0.3761 -0.0882  0.2269
20569W        W36830  13.797   2.983  15.623  0.1036 -0.0794  0.0787
20570W        W36831  13.671   4.194   1.165 -0.0381 -0.0216 -0.1255
20571W        W36832   8.909   2.240   1.333 -0.1261 -0.3008  0.1761
20572W        W36833  12.414   8.856   4.939 -0.0608  0.1242 -0.0446
20573W        W36834  15.847   7.766   0.517  0.1213  0.1466  0.0559
20574W        W36835   3.352   4.901   1.056 -0.1100  0.2879  0.0142
20575W        W36836  10.100   7.722   4.425  0.0666 -0.2554 -0.2080
20576W        W36837  15.393  14.430  13.477  0.0717 -0.2666  0.0328
20577W        W36838   7.818   4.256  15.643 -0.0945  0.1032 -0.2733
20578W        W36839   0.220   4.924   4.823  0.1209 -0.0177 -0.0465
20579W        W36840   7.555   4.068   4.077  0.2798 -0.4175  0.0308
20580W        W36841   6.161   0.904   5.378  0.1014 -0.0039 -0.0005
20581W        W36842  17.822   6.469  12.099 -0.3215 -0.0736 -0.1811
20582W        W36843   5.807  17.572   5.321  0.0128  0.0237  0.1247
20583W        W36844  10.047   4.939   4.880  0.0442 -0.1152  0.0186
20584W        W36845  11.474   2.568   2.240  0.2625 -0.0705  0.1337
20585W        W36846  17.311  16.006   0.243 -0.0682  0.0974  0.1817
20586W        W36847   1.257   9.334   6.012  0.0092 -0.1066 -0.1492
20587W        W36848  13.117  12.647  11.790  0.1223 -0.1548  0.2014
20588W        W36849   9.099   4.219  15.268 -0.0914  0.0575  0.1600
20589W        W36850   8.329   9.728   4.681  0.0484 -0.1571 -0.0176
20590W        W36851  15.861  16.466  13.797  0.1697  0.1077 -0.1895
20591W        W36852  15.546   8.330  14.413  0.1595 -0.2058  0.0212
20592W        W36853  13.251   4.582  15.881  0.3108 -0.0685 -0.2244
20593W        W36854   3.783  14.468   2.152  0.0291  0.0777 -0.0026
20594W        W36855   4.912   2.143   5.622 -0.1997  0.4533 -0.2835
20595W        W36856   6.259  16.322  16.249 -0.0365  0.0051 -0.0074
20596W        W36857   0.378   9.380  12.245  0.0723 -0.2832 -0.1033
20597W        W36858  13.929   9.805   4.399 -0.2598  0.0833 -0.1093
20598W        W36859  16.150   5.761   1.951 -0.0270  0.2908  0.1813
20599W        W36860  16.279   7.396  13.911 -0.1289  0.0995 -0.2614
20600W        W36861   0.161   7.043   2.897 -0.1689 -0.0422  0.0917
20601W        W36862  15.828   0.675   0.233 -0.1073  0.2201  0.1403
20602W        W36863   1.968   4.705   0.206 -0.0726 -0.0618  0.3346
20603W        W36864  11.365   0.983   5.255  0.0029 -0.3295  0.1315
20604W        W36865   7.276   9.560  14.620 -0.0386  0.0669  0.4467
20605W        W36866   0.253   1.987   1.742 -0.0498  0.1491  0.0700
20606W        W36867  15.050   5.089   2.692  0.3100  0.0892 -0.2781
20607W        W36868   5.112   5.249  15.837 -0.2823  0.0591  0.0984
20608W        W36869   4.735   0.021  15.948 -0.0523 -0.0183 -0.0222
20609W        W36870   0.049  17.100  14.019 -0.0128  0.1782  0.1690
20610W        W36871   1.753  12.144  13.179  0.1282 -0.0189 -0.3475
20611W        W36872   4.957   0.362  12.749 -0.6664  0.0272 -0.1885
20612W        W36873   9.319  16.432  15.558  0.0057 -0.0875  0.1506
20613W        W36874   2.323  14.413   3.449  0.0949  0.0496 -0.0393
20614W        W36875  14.587  17.315  12.612  0.1606 -0.0423 -0.3210
20615W        W36876  12.239   9.843   2.234 -0.0343 -0.1524  0.0893
20616W        W36877   2.645   7.194   1.051  0.0115  0.1675 -0.3963
20617W        W36878  14.154   7.882   5.115  0.2204 -0.3803 -0.0400
20618W        W36879  10.635   9.161  14.559  0.0973 -0.0301 -0.2729
20619W        W36880  10.574  14.839   5.806  0.1401 -0.2488 -0.1348
20620W        W36881   4.874  17.830  15.641 -0.2177  0.3266 -0.2103
20621W        W36882   6.399   1.858  12.704 -0.2036  0.0094  0.0031
20622W        W36883   3.004   4.399   4.512  0.1162 -0.2777  0.1886
20623W        W36884   6.721   3.633   1.680 -0.0484 -0.0671 -0.0769
20624W        W36885   2.179   8.786  14.756  0.0273  0.2437 -0.1025
20625W        W36886  12.227  18.039   0.902  0.0454 -0.1647  0.1802
20626W        W36887   2.394  12.590   1.588 -0.0494  0.3894  0.2557
20627W        W36888   1.013   9.916   4.840 -0.3917  0.1752  0.1980
20628W        W36889   8.303   0.124   5.367  0.0185 -0.1333 -0.0839
20629W        W36890   6.344   8.161   2.276 -0.2120  0.0851 -0.0624
20630W        W36891  17.818  16.133  15.447 -0.1931 -0.1345  0.2028
20631W        W36892  16.986  18.273   3.159 -0.0500  0.0044 -0.0111
20632W        W36893   9.831   5.360  14.455 -0.1790  0.1935  0.1203
20633W        W36894  14.271   5.359  14.174 -0.0989  0.1576 -0.0342
20634W        W36895  14.539  17.106  10.846  0.0830  0.0034 -0.0349
20635W        W36896   8.705   6.398   4.981  0.2960 -0.0312 -0.0109
20636W        W36897  13.366  16.227   4.590 -0.2981  0.4241  0.1003
20637W        W36898   6.678   3.131  15.936  0.2498 -0.0920  0.1902
20638W        W36899  15.395   7.721   2.303 -0.1795  0.1765 -0.1110
20639W        W36900  15.047  13.511  14.446  0.1158 -0.2801  0.0593
20640W        W36901   7.001   6.970  11.468 -0.0746  0.1580  0.0483
20641W        W36902   8.203   6.000  13.958 -0.1683  0.0183  0.1681
20642W        W36903   5.026  16.154   0.508  0.0788  0.2715  0.0499
20643W        W36904   0.772   0.833  14.756  0.0151 -0.3544 -0.2132
20644W        W36905   0.108  13.200   2.194 -0.0484  0.1206  0.1679
20645W        W36906  15.123  16.827   5.370 -0.3228 -0.0284  0.0858
20646W        W36907  17.831  14.990   4.329 -0.0069 -0.0140  0.3936
20647W        W36908   8.492   9.210  13.786 -0.3926 -0.1564  0.0531
20648W        W36909  13.164   5.738  13.245 -0.2147  0.0497  0.1672
20649W        W36910   2.685   2.605  12.836 -0.3570 -0.0692 -0.1195
20650W        W36911  14.846  16.448   6.452  0.0875 -0.0359 -0.2128
20651W        W36912  11.765   7.181   4.616  0.1205  0.0216  0.1931
20652W        W36913   7.730  12.448  14.483 -0.0150  0.0702  0.3872
20653W        W36914   0.004  15.712   5.059 -0.4002 -0.0159 -0.1851
20654W        W36915  13.829   4.805   3.945  0.0781  0.2924 -0.2339
20655W        W36916   3.375   9.200   2.099  0.0585  0.1902 -0.1163
20656W        W36917   9.359   6.570  14.414  0.0734  0.0358  0.2503
20657W        W36918  14.082  17.082   1.180  0.1786  0.1378 -0.0952
20658W        W36919   5.825   0.691   4.622 -0.2192 -0.4457 -0.2834
20659W        W36920   8.594   4.554  12.171  0.0319  0.2778 -0.0207
20660W        W36921   0.548  13.408  11.774 -0.0561  0.1059  0.1177
20661W        W36922  11.027   5.837  11.927 -0.0422  0.1252 -0.1018
20662W        W36923  14.881   9.925   0.269 -0.1559  0.1974  0.0762
20663W        W36924   1.241   6.794  15.943  0.0402 -0.0979 -0.3645
20664W        W36925   7.643   1.590   3.241  0.2146 -0.1815 -0.1402
20665W        W36926  16.478   4.987   3.461 -0.5907 -0.1596 -0.0831
20666W        W36927   8.946  14.446   4.297  0.2111 -0.0554  0.1431
20667W        W36928  16.994   3.075  14.130 -0.1406  0.0983 -0.1447
20668W        W36929  10.278   5.038  16.299  0.1351 -0.0012  0.0460
20669W        W36930   7.647   2.982   0.324  0.1216 -0.2348 -0.1095
20670W        W36931   5.353  11.645   1.931 -0.1943  0.1789 -0.0241
20671W        W36932  14.146   4.296   1.136 -0.0419 -0.2192  0.2021
20672W        W36933  14.334  17.056  14.587 -0.0439  0.0163 -0.0119
20673W        W36934   7.749  10.620  13.504  0.0380 -0.3192 -0.0409
20674W        W36935  17.815  16.897  15.925  0.1491  0.1081 -0.2930
20675W        W36936  11.098   8.053   4.859  0.2066 -0.1497  0.3457
20676W        W36937  17.446  16.661  12.300  0.0497 -0.2203  0.3506
20677W        W36938  16.785  11.031   0.792 -0.0819  0.1027  0.1004
20678W        W36939  17.551  16.040  13.386  0.0196  0.0668  0.2758
20679W        W36940   0.757  16.726   0.145  0.2132  0.0561 -0.0892
20680W        W36941   6.681   5.360   3.635  0.0320  0.0575  0.1564
20681W        W36942   6.017  17.588   3.718 -0.1528  0.0053  0.2511
20682W        W36943  18.101   4.477  12.015 -0.2678 -0.4285 -0.0681
20683W        W36944  16.370  16.814  12.868 -0.2166 -0.2482 -0.0643
20684W        W36945   1.158   2.825   4.758  0.0410  0.2418 -0.1338
20685W        W36946  11.204   5.344   3.415 -0.3416 -0.0072 -0.2216
20686W        W36947  10.740   5.672  12.827 -0.0144 -0.1727  0.4279
20687W        W36948  10.004   0.758  13.491  0.1891 -0.0838 -0.1391
20688W        W36949  11.913   6.755   1.686  0.0350  0.0029  0.0037
20689W        W36950   0.986   1.959  11.768 -0.0842 -0.0473  0.1536
20690W        W36951   7.250  10.274   2.871  0.3396 -0.0352 -0.0021
20691W        W36952  11.901  10.701   2.235 -0.1779  0.1136  0.1918
20692W        W36953  13.044  18.132  12.517  0.1579 -0.1699  0.2468
20693W        W36954   1.682   2.117   0.312  0.0949  0.1558  0.0166
20694W        W36955  12.907   8.287  15.051 -0.2551 -0.1949 -0.1477
20695W        W36956  18.278  14.516   4.993  0.2469  0.2686 -0.1624
20696W        W36957   7.519   4.546   0.620 -0.0454 -0.3508 -0.0933
20697W        W36958  17.497   6.423  13.050  0.0474  0.1225  0.1190
20698W        W36959  12.357   4.055  14.800 -0.1056 -0.2935 -0.2800
20699W        W36960  10.914   5.136   2.186  0.0162 -0.1152  0.1657
20700W        W36961   5.305   9.971   1.327  0.1173  0.2877  0.0262
20701W        W36962  15.238   7.573   3.611 -0.0397  0.5222 -0.1379
20702W        W36963  12.050  14.912  11.682  0.1232  0.4131 -0.1212
20703W        W36964   0.999  12.755  16.101  0.3530 -0.3032  0.2102
20704W        W36965   1.521   9.998   5.171 -0.2052  0.0822  0.0587
20705W        W36966  14.550   3.298  12.478 -0.0672  0.1420 -0.5103
20706W        W36967   1.515   2.004  11.803  0.0964 -0.2653 -0.2872
20707W        W36968   9.260  15.131   2.086 -0.1947 -0.0456  0.2989
20708W        W36969   6.850   4.121   4.451 -0.0283 -0.2019  0.0916
20709W        W36970  12.142   0.359  14.367  0.1771  0.1757 -0.0119
20710W        W36971  11.733  17.128   3.319 -0.0428  0.2385 -0.0792
20711W        W36972  17.819  16.075   3.850 -0.1896  0.0653  0.1810
20712W        W36973   3.006  12.288  13.302  0.2549 -0.1092  0.3989
20713W        W36974   6.027   3.549  12.269  0.2860 -0.1834  0.0623
20714W        W36975  11.845  11.794   5.987 -0.1880  0.1336 -0.1492
20715W        W36976  14.175  10.016  11.912  0.1263 -0.1075 -0.1943
20716W        W36977   0.436  11.857   4.314  0.1661  0.0079  0.1030
20717W        W36978   9.731   7.600  14.596  0.2598 -0.0085  0.1032
20718W        W36979   4.896  15.022  14.242  0.0089  0.1022 -0.1709
20719W        W36980  10.984  10.038   4.970 -0.1320 -0.1893 -0.3254
20720W        W36981   7.200  15.736   5.069  0.4624 -0.1062 -0.0638
20721W        W36982   0.484  18.193   3.818  0.2688  0.1096 -0.0813
20722W        W36983   6.532   9.582  15.424 -0.1283 -0.1256 -0.2198
20723W        W36984  15.686   9.236  15.000 -0.0451  0.2920 -0.2704
20724W        W36985  12.044   8.106   4.488  0.2052 -0.1687  0.1268
20725W        W36986   7.777   7.837  14.935 -0.1794  0.0621 -0.0500
20726W        W36987   7.884  10.479  15.472  0.1223  0.3184  0.1706
20727W        W36988   8.302  14.897   3.016 -0.1224 -0.0443  0.2869
20728W        W36989   3.787   7.564  15.909  0.1231 -0.0929 -0.3345
20729W        W36990   7.435  15.776  13.775  0.0202 -0.0920  0.0329
20730W        W36991  13.472  15.584   2.359  0.4088 -0.1549 -0.1668
20731W        W36992   9.503  14.235   9.792  0.0605 -0.0889 -0.3009
20732W        W36993   2.448   5.164  14.345  0.3058  0.2492  0.1210
20733W        W36994  18.189   2.995  12.712  0.0147  0.0056  0.1123
20734W        W36995  17.592   1.521  13.839  0.0674 -0.1116 -0.2275
20735W        W36996  15.187   6.681  11.971 -0.0185 -0.1546  0.0187
20736W        W36997  11.879   0.278   3.286 -0.0155 -0.0176 -0.1452
20737W        W36998  12.522   4.351   3.721  0.0989 -0.0838  0.0708
20738W        W36999  11.730   8.535  16.096 -0.0894 -0.1069 -0.0224
20739W        W37000   4.190   5.850  12.609 -0.0739  0.0204 -0.1182
20740W        W37001   7.585  16.436   1.298 -0.0161 -0.0629  0.0882
20741W        W37002   5.086   8.475   3.654 -0.0045  0.0193 -0.1420
20742W        W37003   1.543  12.796  14.305 -0.1311 -0.0203  0.2235
20743W        W37004  12.109   1.631   2.554 -0.3073  0.0312  0.3483
20744W        W37005   7.678  12.527   4.000  0.2200 -0.0267  0.0910
20745W        W37006   5.502   6.830   3.294 -0.0440  0.2368  0.0862
20746W        W37007  14.112  15.375   3.919  0.0294  0.2039 -0.0924
20747W        W37008   2.892   2.488  15.513 -0.0174  0.4004  0.2814
20748W        W37009   0.562  12.506  11.866 -0.4924  0.0858 -0.1073
20749W        W37010  16.148   4.611   3.469  0.1468 -0.2698 -0.0848
20750W        W37011  17.473  13.121   0.354  0.0699  0.3306  0.0571
20751W        W37012  14.898  15.040  12.133 -0.2553 -0.0886 -0.0132
20752W        W37013  13.324  17.965   3.030  0.0904  0.2069 -0.1350
20753W        W37014  11.916  15.691   5.035 -0.0136 -0.0189 -0.1452
20754W        W37015   4.246   9.763   0.489 -0.0674  0.0850  0.1114
20755W        W37016   1.070   1.135   2.599 -0.0496  0.0763  0.2217
20756W        W37017   2.535  17.752  12.566  0.2316  0.0696 -0.0166
20757W        W37018   3.635  16.213  13.662 -0.0509  0.2229 -0.1344
20758W        W37019   3.578   6.708  11.411  0.0946 -0.1190 -0.0044
20759W        W37020   7.395  15.757   1.583  0.0741 -0.1622  0.0869
20760W        W37021  11.186   7.165  14.431  0.3813 -0.0235 -0.0464
20761W        W37022  12.138   5.036   3.128 -0.1700  0.0726 -0.3183
20762W        W37023   2.653   0.691  12.334 -0.0646 -0.1967  0.1732
20763W        W37024   0.831  16.324  13.823  0.0140 -0.0464  0.5392
20764W        W37025   6.480  17.202  11.890 -0.2626 -0.3160  0.3798
20765W        W37026  17.917   0.484  12.565 -0.2389 -0.1216 -0.0556
20766W        W37027  11.214  13.993   4.390 -0.2177 -0.0332  0.1295
20767W        W37028   1.135  11.917   4.859  0.0294 -0.0963 -0.2849
20768W        W37029   4.357   5.206  15.488  0.2758 -0.1727 -0.2225
20769W        W37030   0.612  15.693  15.097 -0.1998 -0.0419  0.0614
20770W        W37031  15.167  11.335   1.554  0.0027  0.0217  0.0692
20771W        W37032   3.839   7.211  11.681  0.0745 -0.0443 -0.2536
20772W        W37033  10.786   2.394  15.649 -0.0270 -0.1331 -0.1639
20773W        W37034   9.148  12.198   0.392  0.1177  0.1140  0.0326
20774W        W37035  12.168  12.091   3.621  0.0135 -0.1396 -0.1071
20775W        W37036   0.077  13.068   3.990  0.2921  0.0563  0.1856
20776W        W37037  18.115  10.036   3.526  0.3650  0.0355  0.0703
20777W        W37038  14.253   3.804   2.422  0.4598  0.1574  0.4893
20778W        W37039   7.974  14.160   2.345  0.4340 -0.0897  0.1226
20779W        W37040   2.585  11.292   4.856 -0.0005 -0.3250 -0.0034
20780W        W37041  17.323   3.790   0.534  0.0101 -0.3006 -0.2651
20781W        W37042   7.924   3.740  15.720  0.1096 -0.1060 -0.1191
20782W        W37043  14.944   8.328   2.568 -0.0043  0.0032  0.4769
20783W        W37044   8.334   6.591   1.032 -0.0162 -0.0362  0.1822
20784W        W37045  16.505  12.371  16.269  0.1236 -0.2638 -0.0592
20785W        W37046   2.364  12.118  13.882  0.0629  0.0949 -0.1711
20786W        W37047   7.746   5.934  11.256 -0.3089 -0.0612 -0.0431
20787W        W37048   3.536   4.888   4.530 -0.0208  0.2457 -0.1048
20788W        W37049  10.431  18.068  15.946 -0.3264  0.1041 -0.2733
20789W        W37050   7.360   3.986  11.993  0.1028 -0.3265 -0.1103
20790W        W37051  11.840   0.281   1.974 -0.0367  0.1540  0.0623
20791W        W37052  12.238   4.881   2.167 -0.0677 -0.1414 -0.0189
20792W        W37053  13.065   5.294  14.337  0.0240  0.1542  0.1934
20793W        W37054  15.231  16.284   2.190  0.1620  0.0690  0.2857
20794W        W37055  16.789  10.909  12.155  0.1043  0.0948 -0.3100
20795W        W37056  10.526   7.869  13.246 -0.0374  0.0459  0.1068
20796W        W37057   6.468   0.822   4.770  0.0517  0.1353 -0.0454
20797W        W37058  17.937   4.603   2.576  0.0520  0.0273 -0.1584
20798W        W37059   3.456   0.434   4.468 -0.2011 -0.3187  0.1992
20799W        W37060  16.016   0.409  13.007  0.0636 -0.0780  0.0074
20800W        W37061  17.055   7.663   5.590  0.0099 -0.1872  0.0682
20801W        W37062  17.002   9.719  15.254  0.2307 -0.0493  0.0848
20802W        W37063  13.483   9.702   3.392 -0.2775  0.0779 -0.1015
20803W        W37064   3.165  16.394   3.162 -0.4101  0.0653  0.1094
20804W        W37065  16.758   8.353   5.796 -0.1116 -0.0040 -0.0819
20805W        W37066   0.710  18.022   0.864 -0.0252  0.0238 -0.1517
20806W        W37067   1.671   3.182   3.654 -0.0017 -0.1117 -0.2664
20807W        W37068  16.948  14.623   2.955  0.1561 -0.0510  0.4314
20808W        W37069   5.188   0.812   4.764 -0.2178  0.3348 -0.1819
20809W        W37070   8.107   9.029  14.960  0.0134  0.4169 -0.1112
20810W        W37071   2.391  14.438   0.410  0.0616  0.0318  0.1903
20811W        W37072   0.135   9.331  10.899 -0.1637 -0.0790  0.0775
20812W        W37073   5.142  16.945   4.613 -0.0299  0.0875  0.1542
20813W        W37074  14.951  14.441   1.829 -0.0697 -0.1597 -0.1293
20814W        W37075  16.918   7.366  13.242  0.1062  0.2171  0.3056
20815W        W37076  12.450  15.711   0.237 -0.2072  0.0199 -0.3323
20816W        W37077   4.174   1.237  13.043 -0.1199 -0.0035 -0.3770
20817W        W37078  13.447  12.902   4.064  0.2086  0.4920  0.0728
20818W        W37079   9.032   7.852  11.592  0.1219 -0.0544  0.3494
20819W        W37080  10.385  10.172   0.314  0.0029 -0.2468 -0.1080
20820W        W37081  14.026   7.414  14.318  0.5027 -0.0320 -0.0114
20821W        W37082  12.893   7.579  11.497  0.0186 -0.3718 -0.2597
20822W        W37083  15.107  15.543   2.449  0.1592 -0.1477  0.0143
20823W        W37084  10.508   4.419  12.442  0.1881  0.3631  0.3309
20824W        W37085   8.878   7.630  12.290  0.3363  0.1613 -0.4621
20825W        W37086   5.458   1.621  11.979 -0.1084  0.2412 -0.0478
20826W        W37087  13.822  10.409   3.106 -0.1468  0.0086  0.0026
20827W        W37088   0.114  15.657  13.813 -0.0120 -0.1096  0.2263
20828W        W37089  11.003  13.625   4.099  0.0800  0.1439 -0.2309
20829W        W37090  10.156  17.250   4.154  0.0109  0.0779 -0.1691
20830W        W37091   8.982   8.560   4.300 -0.1473  0.2755 -0.0895
20831W        W37092   1.552   6.722   2.451  0.0861 -0.0459 -0.2867
20832W        W37093  12.923   9.089  13.793 -0.3331  0.0138  0.1059
20833W        W37094  14.420  11.986   0.626 -0.1992  0.0796 -0.0886
20834W        W37095   3.533  18.142   2.368 -0.1155  0.1420 -0.2092
20835W        W37096   5.431   8.978   5.137  0.1022  0.1754 -0.0805
20836W        W37097   6.528   5.755   3.386 -0.2987 -0.1116  0.1010
20837W        W37098  11.671   3.384  15.121 -0.1871 -0.0974 -0.1674
20838W        W37099   0.831   2.537  12.457 -0.1918 -0.1950  0.0026
20839W        W37100   5.148  13.400  10.607  0.0737 -0.0467  0.0407
20840W        W37101  12.023  17.289   2.312  0.3372  0.0781 -0.0351
20841W        W37102   6.563   9.049  11.738 -0.1595 -0.1508  0.0911
20842W        W37103   8.148  16.257  13.575  0.0529 -0.0734 -0.2848
20843W        W37104   3.601   9.633   3.566  0.0277  0.1096 -0.5034
20844W        W37105   6.817   5.018  16.048 -0.0039 -0.2183 -0.0145
20845W        W37106  15.414   2.617   1.691 -0.2461 -0.3393  0.0814
20846W        W37107  12.732   9.223   1.240 -0.2767 -0.1324  0.0200
20847W        W37108   7.234   1.119  12.291 -0.1905  0.1989 -0.0398
20848W        W37109  17.302  13.148   1.676 -0.0829 -0.0399 -0.2843
20849W        W37110   4.325  15.141   2.340 -0.0849  0.3818  0.3036
20850W        W37111   7.221  11.903   0.699 -0.0380 -0.0299  0.2724
20851W        W37112  17.489  13.684  12.711  0.1510 -0.1789  0.2989
20852W        W37113   1.932   3.677  12.656  0.2394  0.0650 -0.0381
20853W        W37114  16.799  16.895  14.559  0.1622 -0.2856 -0.0018
20854W        W37115   3.673   3.201   4.788 -0.0773  0.0333 -0.2250
20855W        W37116  17.794  11.031   1.462 -0.2647  0.0840  0.0268
20856W        W37117   8.078  16.503  12.520 -0.0039 -0.1327  0.0135
20857W        W37118   0.304   4.907   2.975 -0.0461 -0.0997 -0.1299
20858W        W37119  10.486   2.836  12.536 -0.0077 -0.1151  0.1786
20859W        W37120   5.714   2.584   2.827  0.1552 -0.0504 -0.0461
20860W        W37121  17.421  11.910   4.884 -0.2635 -0.1082 -0.0423
20861W        W37122  10.300   7.623  12.248  0.2400 -0.0443 -0.0520
20862W        W37123  17.978  13.993  12.502 -0.3526  0.0343 -0.0091
20863W        W37124  13.473   3.328  12.611  0.2399 -0.1255  0.2420
20864W        W37125  16.137   1.805   5.565 -0.3965  0.1822  0.0101
20865W        W37126  14.838  12.225  14.553  0.1306  0.0998 -0.4177
20866W        W37127   5.491  13.808  13.990  0.0919 -0.2081  0.1761
20867W        W37128   3.651   2.061   0.565 -0.0493  0.3773  0.1351
20868W        W37129  15.761   2.200   5.763  0.0085 -0.1034  0.2639
20869W        W37130   6.761   1.378  13.495 -0.2467 -0.1113  0.1508
20870W        W37131  16.599   9.181  16.163  0.0358 -0.1495  0.0257
20871W        W37132  15.831  15.051   0.167  0.0879 -0.2314 -0.2621
20872W        W37133   9.058  15.476  12.122 -0.0263  0.0652 -0.1031
20873W        W37134   8.672   8.729  13.805  0.0822 -0.3118  0.4600
20874W        W37135   9.522   6.989  16.130  0.0254  0.0040 -0.0138
20875W        W37136   3.277  17.663   3.450  0.3190 -0.0405 -0.1285
20876W        W37137   1.523  10.613  12.657 -0.0440 -0.2605 -0.1755
20877W        W37138   1.888   4.020  16.031  0.5018 -0.2452 -0.2112
20878W        W37139  16.712  10.428  11.377 -0.2851 -0.0178 -0.0154
20879W        W37140   2.295  10.843  13.915  0.1501 -0.0208  0.1682
20880W        W37141  13.073  16.521   1.776 -0.1240 -0.0178 -0.0318
20881W        W37142  12.144   4.669   0.277  0.0370 -0.1886  0.2053
20882W        W37143  10.046   5.675   4.507  0.2189 -0.1007 -0.2146
20883W        W37144  17.024   3.042   4.849 -0.1439  0.0717  0.3965
20884W        W37145   1.428  11.587   6.430 -0.1828  0.1135  0.0528
20885W        W37146   6.001   4.047  12.178  0.0176 -0.0459  0.1704
20886W        W37147   8.847   1.614   5.419  0.2182  0.1394  0.0842
20887W        W37148   0.923   7.073   4.170 -0.0580 -0.0550 -0.0673
20888W        W37149   6.491   1.646  14.183  0.3191 -0.0884 -0.3045
20889W        W37150   3.452   8.868  14.300  0.3122 -0.1524 -0.4741
20890W        W37151   7.563  13.629  12.190 -0.0153 -0.1723 -0.1996
20891W        W37152   8.995   3.454   5.803  0.2023  0.3013  0.2229
20892W        W37153   0.586  16.934   2.367 -0.0994 -0.0443  0.3182
20893W        W37154  12.720  14.574   3.885  0.1626  0.1306 -0.0825
20894W        W37155   9.775   4.633   2.090  0.1441  0.1985  0.2323
20895W        W37156   8.527   3.691  14.839  0.0490 -0.0783  0.0033
20896W        W37157   4.807   7.796   2.019  0.2121 -0.1171 -0.2721
20897W        W37158   6.164  14.077   1.963  0.2766 -0.0476 -0.0643
20898W        W37159   6.320   8.192   0.875 -0.1372 -0.0865  0.0435
20899W        W37160   1.710   0.438   5.873 -0.2510 -0.1294 -0.1683
20900W        W37161   3.648  12.395  14.395 -0.0127  0.1245  0.0974
20901W        W37162   7.405  18.237   3.666 -0.0459  0.1810 -0.2776
20902W        W37163  16.440   9.535   1.747 -0.1875 -0.0100 -0.0796
20903W        W37164  10.882   9.023   5.414  0.0731 -0.0092  0.1314
20904W        W37165   9.687   2.298  11.634  0.2926  0.0881  0.1225
20905W        W37166  17.137   6.882  15.949  0.1933  0.1103 -0.0690
20906W        W37167   9.671  14.930   3.881  0.0185 -0.1594 -0.2563
20907W        W37168  17.012  11.089  15.432 -0.0087 -0.2203  0.0106
20908W        W37169   0.188   6.681   3.981 -0.3835  0.1601 -0.3306
20909W        W37170   1.276  16.080   5.514  0.1250  0.0961  0.0475
20910W        W37171  11.882   0.809   5.782  0.1179  0.1751 -0.1995
20911W        W37172   7.643  11.198   1.379 -0.2260  0.1483 -0.1630
20912W        W37173   9.711   3.902   1.864 -0.0955 -0.3037  0.0901
20913W        W37174   9.527   8.243  16.292  0.1958 -0.1004  0.0687
20914W        W37175  13.351   9.679  12.292 -0.0831  0.0642 -0.1862
20915W        W37176   1.404  15.571  11.874 -0.0413  0.0909 -0.1605
20916W        W37177   4.451   5.242   1.875 -0.1248 -0.0614 -0.0695
20917W        W37178  13.963  14.469  13.323 -0.1624  0.1265 -0.2172
20918W        W37179   9.954  17.964   2.908 -0.0448  0.1189  0.3562
20919W        W37180  11.827   6.295   4.469  0.0543 -0.4243  0.1763
20920W        W37181  10.092   8.926  13.558  0.0387 -0.0397  0.3201
20921W        W37182   9.178   1.068   4.022 -0.1347 -0.2110  0.1320
20922W        W37183   6.571  11.617   2.846  0.0639 -0.1303 -0.1831
20923W        W37184   7.630  10.540  11.210 -0.0580 -0.1075  0.2293
20924W        W37185  17.900   4.739   1.515 -0.4835  0.0133 -0.1904
20925W        W37186   4.971   8.069   0.398 -0.0374 -0.0853  0.3161
20926W        W37187   9.380   9.127  11.160  0.0456 -0.2062  0.0699
20927W        W37188  17.516  10.244   5.318  0.0293  0.0683 -0.0492
20928W        W37189   4.220  15.419  14.996 -0.2849 -0.1160  0.0892
20929W        W37190  15.897  16.719   1.535  0.1824 -0.1350 -0.1002
20930W        W37191  15.445  15.102  16.066 -0.0741 -0.0408 -0.0797
20931W        W37192  16.954  10.682  13.221 -0.0900  0.1428  0.1751
20932W        W37193  11.692   6.378  11.456  0.0640  0.0078  0.0606
20933W        W37194  13.002   2.125  12.891 -0.2207  0.1962 -0.0627
20934W        W37195  17.152   1.339  13.638 -0.0538  0.0610  0.2117
20935W        W37196   5.405   4.076   9.857 -0.2389 -0.0184 -0.0665
20936W        W37197   2.520   5.894   2.289 -0.0270 -0.0206  0.0095
20937W        W37198  14.918  13.077   1.123 -0.1738  0.2747  0.1363
20938W        W37199  10.336  14.191  16.206  0.0635  0.0264 -0.0867
20939W        W37200   6.383   8.459   0.099  0.0125  0.1013 -0.1596
20940W        W37201   7.974  17.812   2.535  0.0254  0.0582  0.2714
20941W        W37202  10.308   2.600   0.870  0.1128  0.0216 -0.1636
20942W        W37203  18.213  18.035   2.523  0.1864  0.1243  0.0189
20943W        W37204  13.032  11.582  12.701 -0.1609  0.1587  0.0741
20944W        W37205  11.933   6.378   3.138 -0.2660 -0.0075  0.2124
20945W        W37206   6.137   7.207   4.031  0.0388  0.1177 -0.1270
20946W        W37207  13.945   3.524  13.766 -0.1164  0.4292  0.0079
20947W        W37208   9.617   6.895  15.004 -0.3887 -0.2394  0.1436
20948W        W37209  18.111   3.500   4.134  0.3043  0.1894 -0.0402
20949W        W37210   7.576   1.346   4.923  0.1139  0.5206  0.0605
20950W        W37211   2.037  11.000  11.506 -0.1494  0.0036 -0.0097
20951W        W37212   7.172   7.174  15.965 -0.0341  0.4538  0.1691
20952W        W37213  12.357   0.738   2.003  0.1718 -0.0720 -0.1809
20953W        W37214   7.147   7.377  11.795 -0.0595 -0.3897  0.0988
20954W        W37215  13.427   3.536  13.960 -0.0815 -0.0079 -0.2436
20955W        W37216  16.897   0.211   5.658 -0.1323  0.0671  0.4143
20956W        W37217   7.466   7.393  14.384  0.0417  0.1186 -0.4180
20957W        W37218  12.799  10.637  14.054  0.3768 -0.2260 -0.2097
20958W        W37219  16.027  18.307  12.443 -0.0557 -0.0513  0.1564
20959W        W37220  15.770   6.405   0.945 -0.1291  0.6751 -0.0442
20960W        W37221   4.608   5.722   0.110  0.1019 -0.0983  0.0527
20961W        W37222  11.471   9.827   1.744  0.0950  0.1210  0.3406
20962W        W37223   9.802   6.994  15.477 -0.1476  0.1799 -0.1949
20963W        W37224  17.624   4.338   0.570 -0.0437 -0.0815  0.0663
20964W        W37225  17.097   2.411   4.667  0.1272 -0.0821 -0.2575
20965W        W37226   5.677   7.431  14.764  0.1481  0.3145 -0.3334
20966W        W37227   8.062   1.282  11.895  0.1559  0.1209  0.1269
20967W        W37228   2.893   8.809   0.066 -0.0233 -0.0200  0.2614
20968W        W37229   3.225  11.708  15.004  0.0562 -0.1298  0.0460
20969W        W37230  11.950   7.697  14.384 -0.1155 -0.0214 -0.3122
20970W        W37231   8.240   7.509   9.921 -0.2293  0.1337  0.0419
20971W        W37232  10.626   3.767  11.433 -0.1261 -0.2780 -0.0855
20972W        W37233   2.757   7.782  14.487 -0.2423 -0.2940  0.1268
20973W        W37234   2.795   3.924  15.679  0.0009 -0.1315 -0.1566
20974W        W37235   3.871  13.759  14.889 -0.1552 -0.1948  0.2013
20975W        W37236   1.224   2.888   2.916 -0.0575 -0.1098  0.4373
20976W        W37237   5.263   4.860  11.314  0.2311 -0.1030  0.0543
20977W        W37238   1.355   9.019  14.354 -0.0734  0.0037  0.0829
20978W        W37239   8.257   0.272   3.298  0.0990 -0.3254  0.0325
20979W        W37240  14.487  15.035   3.737 -0.0106 -0.0899  0.2354
20980W        W37241   3.578  15.195   4.533  0.2091  0.1794 -0.0772
20981W        W37242   1.892  14.565  12.660 -0.2997  0.0618 -0.2567
20982W        W37243  13.106   6.070  11.470  0.1134  0.2082 -0.3505
20983W        W37244   0.053   3.939  15.912 -0.3070 -0.2130  0.0957
20984W        W37245   1.581  14.057   5.914  0.0341 -0.3662  0.3276
20985W        W37246  10.340   6.063   5.104 -0.1722 -0.3665 -0.0249
20986W        W37247   3.030  11.758   3.685 -0.1023  0.1127 -0.1467
20987W        W37248  16.881   4.511   2.633 -0.0319 -0.2937 -0.0373
20988W        W37249   4.463  18.238  13.172  0.2729  0.1234 -0.2402
20989W        W37250   1.969   1.684   4.301  0.1666 -0.1590 -0.1871
20990W        W37251  10.702   1.443   2.173 -0.0796 -0.1642 -0.0182
20991W        W37252   1.601   1.964  16.048  0.1357  0.1055 -0.0457
20992W        W37253   7.638   2.269   5.259 -0.1523  0.1264 -0.3027
20993W        W37254   6.037  12.925  10.809  0.2679 -0.0356  0.2321
20994W        W37255  17.463  15.635   3.097  0.0656  0.1380 -0.1975
20995W        W37256  12.878   1.146  14.008 -0.1298 -0.0563  0.4539
20996W        W37257   1.285   2.049   5.305  0.0004  0.1475 -0.1784
20997W        W37258   5.885  17.954   1.964 -0.2410 -0.0061  0.1000
20998W        W37259  17.381  12.984   4.662  0.3798 -0.2273 -0.2545
20999W        W37260  10.979  14.985   3.816  0.2550  0.2152  0.1819
21000W        W37261   8.915   2.853  15.330  0.0741 -0.1066  0.0540
21001W        W37262   2.842   0.448   1.216  0.0115  0.0641 -0.2306
21002W        W37263   5.041   3.387   1.326  0.1345  0.1178  0.1099
21003W        W37264  17.749  17.534   3.410 -0.1873 -0.3702 -0.0542
21004W        W37265   5.079  13.403   1.777  0.0595  0.3312 -0.1442
21005W        W37266   3.551   8.207  15.879 -0.0511 -0.1723 -0.1335
21006W        W37267   4.689  12.605   1.255  0.1271 -0.2219  0.0546
21007W        W37268  13.044   3.514   2.089  0.1567 -0.1272 -0.2240
21008W        W37269   5.766  10.552   4.674 -0.0581  0.0228  0.2284
21009W        W37270   0.566   3.448  14.275 -0.1633  0.0743  0.0513
21010W        W37271  13.323   8.351  11.999  0.1784 -0.0882  0.1914
21011W        W37272   2.145  11.673  11.142 -0.1807  0.0646  0.1679
21012W        W37273  10.755   0.837   3.035  0.1962 -0.0479 -0.1024
21013W        W37274   2.625  15.749   5.450 -0.2643 -0.1076 -0.1626
21014W        W37275   3.047   0.272   0.403 -0.1009  0.1113  0.1558
21015W        W37276   4.831   7.267  11.916  0.0138  0.1140 -0.1153
21016W        W37277   8.533  15.968  12.878  0.1858 -0.1328  0.1807
21017W        W37278   1.546  17.485  13.468 -0.1779 -0.1682  0.1125
21018W        W37279  17.734   4.740   2.137  0.4335  0.1085 -0.1346
21019W        W37280  14.343   4.484   2.787  0.1970  0.1820 -0.0693
21020W        W37281   0.351  17.837   0.069 -0.3175  0.2358  0.1446
21021W        W37282   9.445   7.508  14.122 -0.1289 -0.1769  0.0914
21022W        W37283   3.873   5.435   4.442  0.2131  0.0887  0.0494
21023W        W37284  15.144   8.988  14.185  0.0445 -0.1278 -0.0283
21024W        W37285   8.719   4.171   2.458 -0.2701 -0.0448  0.0495
21025W        W37286  15.150  11.511   2.540 -0.0496  0.1386  0.0757
21026W        W37287  14.002  17.064  15.394 -0.3667  0.2241  0.1602
21027W        W37288   3.752  16.652  14.516 -0.4138  0.0879  0.0004
21028W        W37289   4.569  15.839   2.876 -0.1550  0.1564 -0.2768
21029W        W37290  16.791   8.831  15.799 -0.1893 -0.1059 -0.0619
21030W        W37291   4.405   4.365  13.027  0.0566  0.0391 -0.1682
21031W        W37292  11.253  15.632   0.158 -0.0842  0.1862  0.1014
21032W        W37293  16.267  14.879   3.691  0.0014 -0.1645 -0.2056
21033W        W37294   9.501   3.207  12.681  0.2821  0.0163  0.3386
21034W        W37295  12.317  11.513   5.352 -0.0818  0.2101  0.2060
21035W        W37296   0.408   6.468   0.674  0.0347 -0.0792  0.0631
21036W        W37297  16.414   7.778  14.690  0.0949 -0.0048  0.1587
21037W        W37298   7.117   2.469  12.902  0.0533 -0.0282  0.1503
21038W        W37299   4.634  15.477  11.834  0.2661 -0.0429 -0.1142
21039W        W37300   5.380   2.662   1.908 -0.0815 -0.0309  0.1960
21040W        W37301   3.194   9.987   2.101 -0.0491  0.1852 -0.0243
21041W        W37302  15.080  13.712  12.354 -0.0363  0.1346  0.0879
21042W        W37303  12.546   5.270  16.144  0.0620 -0.0780 -0.1345
21043W        W37304  10.915  13.096  12.905  0.0209 -0.1405 -0.1538
21044W        W37305  13.057  10.391  15.159 -0.0230 -0.0718  0.0300
21045W        W37306   7.552  11.516   0.977 -0.2951  0.1985 -0.0710
21046W        W37307   3.702  16.760  15.065  0.1740  0.2091  0.0483
21047W        W37308  12.924  10.956  11.702 -0.1181 -0.1491 -0.2149
21048W        W37309  10.781  11.072   3.475 -0.2939 -0.1844  0.0405
21049W        W37310  10.409   7.547  14.335 -0.0103 -0.4002  0.1250
21050W        W37311  10.849  14.149   3.323  0.4881 -0.0847  0.3065
21051W        W37312   2.343  15.963   0.471 -0.0147  0.3652  0.0410
21052W        W37313  13.669   9.727   4.787 -0.0183  0.1547  0.0011
21053W        W37314   7.821  12.982   1.705 -0.4032 -0.2139  0.1245
21054W        W37315  16.437  15.550  12.142  0.1913  0.4421 -0.1910
21055W        W37316  13.088   5.007  13.861 -0.1295  0.0117  0.0981
21056W        W37317   2.823   8.833   0.981  0.0823 -0.0939  0.0608
21057W        W37318   9.210  15.533   5.064 -0.1347  0.2357  0.0105
21058W        W37319   6.882  12.926   0.648  0.2977  0.0261  0.0875
21059W        W37320   1.542  10.152   2.439  0.0587 -0.1894  0.1019
21060W        W37321   4.437  10.173   2.106  0.0669 -0.0218  0.1412
21061W        W37322   8.188  10.911  13.677  0.0692  0.2562 -0.1150
21062W        W37323   0.793  10.294   3.138  0.0615 -0.0788  0.2816
21063W        W37324  10.101   4.645  13.598  0.1919 -0.0595  0.1093
21064W        W37325   3.861   1.986   2.054  0.2826  0.2522 -0.3375
21065W        W37326   6.674  14.868   3.642  0.2277  0.0463 -0.1605
21066W        W37327   7.260  14.001   4.652  0.1581 -0.0710 -0.0401
21067W        W37328  10.511   2.405   1.834  0.0567 -0.0035 -0.1310
21068W        W37329   9.070   9.009  12.550 -0.0804 -0.1784  0.2310
21069W        W37330  15.434   6.257   5.009 -0.2533  0.0046 -0.0856
21070W        W37331   3.707   9.030  11.175 -0.0845  0.1220  0.0929
21071W        W37332   6.957   2.301  11.142 -0.2975  0.0402 -0.1607
21072W        W37333   3.066  16.288   5.334  0.0311 -0.1013 -0.0591
21073W        W37334  14.225  13.466   2.532  0.0881  0.0783 -0.1173
21074W        W37335  16.511  15.776   3.683 -0.0358  0.0412 -0.1457
21075W        W37336   5.561  16.121  13.357 -0.0332 -0.0850  0.1304
21076W        W37337  15.414  11.165  12.335 -0.7262  0.0377 -0.3403
21077W        W37338  16.759  15.141   2.993  0.1371  0.3063  0.0784
21078W        W37339   8.938  17.230   4.773 -0.2303 -0.1736  0.1961
21079W        W37340   1.580   0.441  12.334  0.0894 -0.1323 -0.0738
21080W        W37341  12.372  10.355  15.921  0.1010  0.3527  0.2590
21081W        W37342  17.952   2.736  13.773  0.1737  0.3871  0.3263
21082W        W37343   9.159  14.693   3.876 -0.2731  0.2662  0.0558
21083W        W37344  14.132   3.828   3.689 -0.0263 -0.1332 -0.2037
21084W        W37345  14.444   9.064   4.758  0.1345 -0.4450 -0.1388
21085W        W37346   2.809  12.787  14.371 -0.2088 -0.0148 -0.1702
21086W        W37347   0.241  13.760  11.742  0.0614  0.0090 -0.2253
21087W        W37348   7.392   9.097  12.924  0.1274  0.2798 -0.0335
21088W        W37349   2.116  16.758  13.131  0.1976  0.0815 -0.1208
21089W        W37350  11.120   3.346  13.067  0.0610  0.2497 -0.2483
21090W        W37351   3.233   0.743  14.974  0.1976 -0.1979 -0.2988
21091W        W37352   6.128   9.520  14.943 -0.0921  0.1762  0.1235
21092W        W37353   9.191   5.589  12.790 -0.0490 -0.1107 -0.1661
21093W        W37354   3.568  12.563  15.346 -0.2712  0.3830  0.1771
21094W        W37355  12.346  10.358   2.152  0.0183  0.0685 -0.4967
21095W        W37356   3.391  13.570   3.636 -0.2955 -0.1460  0.0080
21096W        W37357   7.141  10.948  14.285 -0.0797  0.1474 -0.1764
21097W        W37358   2.465   2.993   4.106 -0.0808  0.2446 -0.3102
21098W        W37359   3.452   0.029   1.021  0.0466  0.2200  0.0713
21099W        W37360  11.309  14.696  15.675  0.0910  0.1670 -0.0974
21100W        W37361  14.885   7.752   3.967  0.0231 -0.0416 -0.5419
21101W        W37362  11.620   5.196  10.997  0.1989 -0.2017  0.1341
21102W        W37363   9.509  11.743  14.638  0.1648 -0.0112 -0.2956
21103W        W37364  12.459  10.551   0.296 -0.0532 -0.1813 -0.2503
21104W        W37365   8.537   6.997   4.216 -0.2018  0.3969 -0.3069
21105W        W37366  11.441  13.277  12.069 -0.1664 -0.1312  0.2828
21106W        W37367   0.562   9.751   3.913 -0.4033  0.3213 -0.1077
21107W        W37368   5.942   6.226   2.870 -0.2119  0.3858 -0.1682
21108W        W37369  16.736   5.914  15.405 -0.1394  0.0175  0.1874
21109W        W37370  11.655   4.109   3.050  0.0818 -0.0651 -0.0592
21110W        W37371   9.461   8.065   1.681 -0.1198 -0.1322  0.1951
21111W        W37372  16.630  14.619  16.284 -0.2332 -0.1119  0.3521
21112W        W37373  17.085   5.230   1.393 -0.4094 -0.1040  0.4474
21113W        W37374   5.808  17.466   1.650 -0.0229 -0.1220 -0.1106
21114W        W37375   4.972  11.716  13.442  0.0435  0.0256 -0.2172
21115W        W37376   5.469  10.257  11.120 -0.1020 -0.0597  0.1888
21116W        W37377  13.373  15.336  11.769  0.2198  0.3516 -0.1438
21117W        W37378   2.190   9.927  11.626  0.1395  0.2291 -0.1127
21118W        W37379  14.356   0.317   2.632 -0.0882  0.2272  0.0306
21119W        W37380   5.102   9.746   0.584 -0.0225 -0.0633  0.2924
21120W        W37381   1.220   0.854  13.700 -0.1039  0.1385  0.0747
21121W        W37382   5.026   4.067   4.333 -0.2581 -0.0916 -0.2803
21122W        W37383   1.194   2.895  14.870 -0.2743  0.2255 -0.1108
21123W        W37384  11.534   1.458  15.026 -0.2168  0.2058  0.0361
21124W        W37385  11.411  10.477   0.406  0.1776  0.1250  0.3090
21125W        W37386   5.391  13.395  14.721  0.3235  0.2685 -0.1836
21126W        W37387  18.377   7.636   1.381 -0.0824  0.1668  0.2605
21127W        W37388   2.874   0.069   4.858  0.1475  0.0493 -0.1201
21128W        W37389  10.547   5.931   0.185  0.1723 -0.0154  0.4135
21129W        W37390   4.472  14.375   3.404  0.0728 -0.2140  0.2337
21130W        W37391   4.334   8.248  13.449 -0.0248 -0.0688  0.0157
21131W        W37392  14.076   9.565   5.252 -0.0571  0.4789 -0.1864
21132W        W37393  13.567  17.897   4.362 -0.0887 -0.0276 -0.2292
21133W        W37394   6.804  10.607  11.561 -0.2312 -0.0566 -0.2140
21134W        W37395  14.458   3.606   0.385  0.2854 -0.2751 -0.3479
21135W        W37396   2.783   6.162   3.776 -0.0523  0.1101  0.0516
21136W        W37397  11.681   6.523  13.014 -0.1688 -0.1282 -0.0735
21137W        W37398  16.905   4.210   1.890  0.0504 -0.3601  0.2928
21138W        W37399   4.171   8.955   4.994  0.2673 -0.0581  0.1807
21139W        W37400  14.208   7.126   0.562  0.1399  0.2346  0.0027
21140W        W37401  11.974   2.517  12.985  0.4169 -0.1640  0.1215
21141W        W37402  11.288  14.268   4.861  0.1738 -0.0662  0.0609
21142W        W37403   1.367   8.930  10.256  0.0385  0.1698  0.2078
21143W        W37404  11.062   4.864   3.453 -0.2471  0.1059  0.1245
21144W        W37405   8.847   4.399  14.769 -0.2067 -0.3748  0.1204
21145W        W37406  12.266   6.227  12.557  0.1387  0.1012 -0.1065
21146W        W37407   9.726   7.298  13.280 -0.0880  0.0901 -0.4390
21147W        W37408   9.436   4.009   3.972  0.4132 -0.3606 -0.1008
21148W        W37409  12.233   2.133  11.575 -0.2941  0.2111 -0.1242
21149W        W37410   4.881   1.427   5.150  0.1258  0.0251 -0.0417
21150W        W37411  17.082  13.409   4.420 -0.1070 -0.1665  0.0586
21151W        W37412  10.723  12.190  14.815  0.0119 -0.0396 -0.0366
21152W        W37413   0.898  18.290  14.098  0.0400 -0.0227 -0.3059
21153W        W37414   5.486  10.767  11.008  0.1693 -0.0618 -0.3187
21154W        W37415   8.762   8.877   5.759  0.0275 -0.0549 -0.1642
21155W        W37416  16.490  14.447  12.126 -0.1893 -0.1090 -0.2549
21156W        W37417   8.874   2.835   2.751 -0.0030 -0.0609 -0.0215
21157W        W37418  17.361   3.112  11.981 -0.2010 -0.0591  0.3145
21158W        W37419   7.521   0.611   1.873  0.1304 -0.0072  0.1201
21159W        W37420  12.300   7.680  11.598 -0.0567 -0.3783 -0.3174
21160W        W37421   9.409   0.544   0.557  0.0028 -0.0738  0.0458
21161W        W37422   9.094  14.291   2.553  0.1403  0.0935 -0.0671
21162W        W37423   9.860  10.615   5.234 -0.0306  0.3230 -0.2514
21163W        W37424   1.554   8.216  11.386  0.0348  0.0535 -0.1291
21164W        W37425   6.222  17.992   2.847  0.3685  0.0928 -0.5145
21165W        W37426   8.336   4.565   1.437 -0.1112  0.0374  0.0279
21166W        W37427  18.017  14.836   3.280  0.4151 -0.0139  0.1586
21167W        W37428   9.028   3.065   0.768 -0.1928  0.0141  0.1151
21168W        W37429  17.679  18.111   4.196 -0.3103 -0.1213 -0.1360
21169W        W37430   9.238   1.912   3.045  0.2706  0.0277 -0.0387
21170W        W37431   0.604  14.918   2.885 -0.3784  0.1707  0.2987
21171W        W37432   2.557   2.925   0.154 -0.0064 -0.0124 -0.2728
21172W        W37433   7.986  12.692  16.253  0.4272 -0.4803 -0.2884
21173W        W37434  17.140   6.989  12.408 -0.0371 -0.2955  0.2079
21174W        W37435   4.615  10.136  14.511 -0.1855  0.0679  0.0672
21175W        W37436   5.260  13.855  14.897  0.0062 -0.0247  0.2125
21176W        W37437  15.301  16.630  15.147  0.1272  0.2111  0.0868
21177W        W37438   6.715   1.258   4.749  0.1887  0.0754  0.2289
21178W        W37439  15.495   4.564  10.670 -0.2896 -0.0148  0.1709
21179W        W37440   5.440  13.493   3.096  0.1193 -0.1627  0.0693
21180W        W37441   9.608  12.196   0.690  0.2838  0.0307  0.0685
21181W        W37442   4.058  10.476  12.107 -0.0263  0.2878  0.1014
21182W        W37443   1.339  16.555  13.517  0.0603 -0.0847  0.2962
21183W        W37444  17.489   2.327  14.437  0.0219  0.0340 -0.3568
21184W        W37445   6.076   8.877   0.241  0.1087  0.0814 -0.3302
21185W        W37446   4.163  17.258   0.585 -0.0243 -0.0025 -0.0529
21186W        W37447   7.478   2.785  13.080 -0.5233 -0.2911 -0.0328
21187W        W37448   0.266  11.996  10.367 -0.1355  0.0175  0.1117
21188W        W37449   3.595  16.565  11.701 -0.2859 -0.1514 -0.0368
21189W        W37450  17.735  16.972   4.287  0.0428  0.1354 -0.1373
21190W        W37451   2.197  11.320   3.559  0.0944  0.0265 -0.0465
21191W        W37452  15.170   7.153   4.785  0.2194 -0.1172 -0.0011
21192W        W37453  16.085  17.871  13.669  0.2226 -0.1487 -0.0645
21193W        W37454   1.187   8.548  14.742  0.0662 -0.0331 -0.0507
21194W        W37455  17.337  11.498  15.398  0.0080  0.1374  0.0396
21195W        W37456   8.265   2.882  13.813 -0.1112  0.1128 -0.1251
21196W        W37457  14.134  12.398  14.943  0.1723  0.1831 -0.1449
21197W        W37458  10.688  15.234   4.583 -0.2255 -0.0021 -0.0701
21198W        W37459   5.016   0.948  16.223  0.1366  0.1902 -0.0407
21199W        W37460  17.074   3.717  14.915  0.0179  0.2462 -0.0002
21200W        W37461   5.927  14.414   4.223  0.1828 -0.1495  0.2768
21201W        W37462   2.461  12.168  11.906 -0.0731  0.1351 -0.1617
21202W        W37463  13.327  13.848  13.219  0.2960  0.0847 -0.2545
21203W        W37464   5.942  11.288   3.306  0.1583 -0.0085 -0.0419
21204W        W37465   3.886   6.455  15.679  0.3119  0.2709  0.3643
21205W        W37466   4.204  10.063   1.010  0.7250 -0.2178 -0.0497
21206W        W37467  14.420  18.250   0.769  0.0540  0.0670 -0.2460
21207W        W37468   4.721   7.640   4.543 -0.0244 -0.0830 -0.1754
21208W        W37469  17.369   2.714   5.104  0.0780 -0.1290  0.1658
21209W        W37470   2.846  11.270  12.180 -0.3219  0.0517  0.1337
21210W        W37471   4.119   6.401  12.284  0.3460 -0.1147  0.0089
21211W        W37472   2.387   9.858   2.083  0.4473  0.3006  0.1014
21212W        W37473   2.209   5.832   2.717  0.3152 -0.1667 -0.0236
21213W        W37474  18.028   8.424   4.457 -0.1654 -0.3426 -0.1001
21214W        W37475  14.823  17.949  13.028 -0.2202  0.2377  0.1803
21215W        W37476   8.669   1.878   3.141 -0.7155  0.0656  0.1326
21216W        W37477   1.874  15.968   0.817  0.1343  0.2146  0.0452
21217W        W37478  17.587   7.924   3.322 -0.1195  0.2101 -0.3470
21218W        W37479   2.714  18.310   3.266  0.4486  0.1410  0.0573
21219W        W37480   6.752   2.841   4.892  0.0429 -0.0451 -0.1699
21220W        W37481   6.845  12.434  13.119  0.1285 -0.0874  0.0281
21221W        W37482  14.879   3.134   0.850 -0.2710 -0.1950 -0.0143
21222W        W37483   6.591   9.141  13.309 -0.1910  0.0842 -0.0413
21223W        W37484   6.519   1.714  15.588  0.3067  0.0923 -0.2105
21224W        W37485  18.236   7.944  15.489 -0.0872  0.1404 -0.2817
21225W        W37486   9.739   5.738  12.888 -0.3361  0.2593 -0.2831
21226W        W37487  10.383  13.956  13.104 -0.0872  0.1298 -0.0070
21227W        W37488  10.214  17.033   0.135 -0.0969 -0.2294  0.4712
21228W        W37489   5.848   4.415  14.513 -0.3892  0.3554  0.0981
21229W        W37490  14.652   2.544   2.030 -0.1298 -0.4264  0.2485
21230W        W37491  13.813   3.331  15.998 -0.0660  0.1271  0.2281
21231W        W37492   9.436  10.185   3.327 -0.0175 -0.1259 -0.1908
21232W        W37493   6.073  14.913  11.904 -0.1538 -0.1061 -0.0768
21233W        W37494   9.822  13.170   4.919  0.0536  0.0972 -0.0934
21234W        W37495   6.874  13.417   0.646 -0.2440 -0.0332  0.0386
21235W        W37496  15.138  10.249  12.870 -0.2992  0.0085 -0.1054
21236W        W37497   0.083   3.513  12.333  0.1033  0.1997 -0.1437
21237W        W37498  10.807  14.203   0.201 -0.0984 -0.0322 -0.2054
21238W        W37499   8.061  14.051   4.519  0.1704 -0.2922  0.0190
21239W        W37500  17.979   8.662   3.259 -0.2279  0.0973 -0.0903
21240W        W37501   9.052  13.382   3.659 -0.2911  0.0127  0.1393
21241W        W37502   2.592   7.507   5.036  0.1958 -0.0204 -0.2969
21242W        W37503   1.732   8.604   5.713  0.0565 -0.0439 -0.0185
21243W        W37504   3.344  10.887   0.701  0.0437  0.0278 -0.1050
21244W        W37505  11.269   1.947  12.801  0.0234  0.0101 -0.3174
21245W        W37506  11.537  16.563   3.831  0.0432  0.3038 -0.2165
21246W        W37507   0.218   8.346  12.290 -0.2130 -0.2610 -0.0307
21247W        W37508   7.743  15.871   3.048 -0.0539  0.0941  0.0140
21248W        W37509   4.345  15.685  12.566 -0.2061 -0.3418 -0.1674
21249W        W37510  16.516   9.119   1.366 -0.1372  0.1176 -0.0487
21250W        W37511  12.866  12.325   4.298  0.2606  0.3053  0.2884
21251W        W37512  12.544  14.965  15.128 -0.0303 -0.0572  0.0725
21252W        W37513  13.889   2.116   3.670 -0.1821  0.1274 -0.0228
21253W        W37514   0.431   1.804   1.356 -0.0341 -0.0978 -0.1855
21254W        W37515   9.614  11.422  14.273  0.2896  0.0773  0.5681
21255W        W37516   7.481   3.132  16.178 -0.1639  0.1182  0.1990
21256W        W37517   0.387   1.417   1.805 -0.1204 -0.1149  0.2414
21257W        W37518  13.097  14.512  14.626 -0.1270 -0.1174 -0.2738
21258W        W37519  18.186  14.956   4.689  0.3808  0.0857  0.1802
21259W        W37520   0.905   0.704  14.087  0.0403  0.1280 -0.1945
21260W        W37521   8.674   2.846   1.264 -0.2459 -0.4704  0.0103
21261W        W37522  12.374   7.403   0.548 -0.2280 -0.1778 -0.1551
21262W        W37523   8.607  15.831   0.963  0.0271  0.2526 -0.0109
21263W        W37524   9.490   2.271   1.238 -0.2731  0.2061 -0.0413
21264W        W37525   7.913   5.105   4.581 -0.3061 -0.1710 -0.1107
21265W        W37526  11.320   2.572   1.318 -0.0255  0.1884  0.2714
21266W        W37527  18.063   8.155   5.458  0.1884 -0.0190  0.0487
21267W        W37528   3.588   3.591  16.139  0.3523 -0.0592 -0.1612
21268W        W37529   7.267   6.938   5.741 -0.1384  0.1305  0.2297
21269W        W37530   2.352   3.011  13.325  0.1720 -0.1318  0.1221
21270W        W37531  14.587  17.982  12.587 -0.0697 -0.0159  0.1042
21271W        W37532   1.043  17.565   0.698 -0.0799  0.2637 -0.0746
21272W        W37533  15.021  16.930   2.760  0.1548  0.3482  0.1960
21273W        W37534   1.520  10.613   2.846 -0.1776 -0.0715 -0.0915
21274W        W37535  18.360  16.185  14.118 -0.1998  0.0452 -0.0513
21275W        W37536  10.090  10.414  12.731  0.0041  0.1257  0.1701
21276W        W37537  17.630   5.014   3.306  0.0260 -0.0030  0.0256
21277W        W37538   1.831   6.303  12.563  0.1891  0.0240 -0.0465
21278W        W37539   2.233   2.738  12.941  0.1802 -0.1457  0.1508
21279W        W37540   8.439   5.438   3.387  0.0617  0.4500 -0.3662
21280W        W37541  17.742   2.681  14.199 -0.1336 -0.0032  0.3044
21281W        W37542  15.846   2.470   1.543  0.3315  0.3252 -0.1041
21282W        W37543  18.082  10.269   1.989 -0.0957 -0.0998  0.2334
21283W        W37544  11.116  11.743   1.664 -0.0605 -0.0447 -0.1197
21284W        W37545  14.808   3.866  15.784  0.1310 -0.2963 -0.0363
21285W        W37546  12.836   0.791   2.736 -0.0987 -0.0601 -0.1887
21286W        W37547  15.425   3.586  12.366 -0.2379 -0.0310  0.0257
21287W        W37548   5.648   5.498   2.552 -0.1183  0.3486 -0.1289
21288W        W37549   0.702   4.455  13.124  0.1521  0.0149  0.1457
21289W        W37550   5.317  17.103   1.979 -0.0027 -0.0657  0.0932
21290W        W37551   0.587  11.989   0.693  0.2710  0.1665 -0.1442
21291W        W37552  14.414   7.621  15.664  0.1113 -0.1363  0.1338
21292W        W37553  17.569   5.560   5.294  0.3319 -0.2051  0.3080
21293W        W37554   4.476  15.288   0.611 -0.0838 -0.1948  0.0807
21294W        W37555  12.518   3.579  15.102  0.1471 -0.1103  0.1456
21295W        W37556   7.296  16.583  13.800 -0.2003 -0.0747 -0.2436
21296W        W37557  17.387   5.369  11.280  0.3319  0.1607 -0.1257
21297W        W37558   3.005   0.763  13.876 -0.5313 -0.1680  0.3761
21298W        W37559   4.759   0.971  11.344  0.6307  0.2407  0.0098
21299W        W37560  11.336  11.334   4.289 -0.0611  0.3251  0.3562
21300W        W37561   5.849  16.146   3.713 -0.1381 -0.2260 -0.0605
21301W        W37562  14.560   6.943  12.520 -0.0181 -0.0203 -0.0279
21302W        W37563  11.796  14.198  11.123  0.0573  0.2684  0.0027
21303W        W37564  15.600   5.703   1.239  0.0673 -0.0243  0.0495
21304W        W37565  16.513  13.281  15.992 -0.3829  0.1493  0.2471
21305W        W37566   9.115  18.112   0.619  0.0272 -0.0004 -0.0385
21306W        W37567   8.369  10.026   2.713  0.0139 -0.0682  0.1890
21307W        W37568   9.565   7.414  14.999 -0.0115 -0.0915  0.2046
21308W        W37569  11.676   6.357   1.281 -0.0802  0.2134  0.0549
21309W        W37570   8.124   5.360   1.053  0.0226 -0.0069 -0.0334
21310W        W37571   6.675  12.319  10.773 -0.0134 -0.2425 -0.0937
21311W        W37572   2.482  14.109  13.561  0.3412 -0.0845 -0.4310
21312W        W37573  13.484   8.211  14.195 -0.1525 -0.1914  0.1402
21313W        W37574  13.739  18.034   2.485 -0.1390  0.1813  0.0315
21314W        W37575  12.469   9.006   0.849  0.1145  0.1326  0.1152
21315W        W37576  12.588   6.842   2.742 -0.1825  0.1524  0.1212
21316W        W37577  18.245  14.632   4.259 -0.1693  0.4228 -0.2039
21317W        W37578   7.710  10.400  11.911 -0.1533  0.2650  0.3252
21318W        W37579   2.116   2.639   6.100 -0.1606  0.4336 -0.1379
21319W        W37580   6.015   3.057  14.380 -0.4271 -0.1491  0.0535
21320W        W37581  13.614   7.824   3.398 -0.0397 -0.1866 -0.1872
21321W        W37582  16.532   6.995   3.088  0.2238 -0.0702 -0.1173
21322W        W37583   0.307   0.911  12.099  0.1488  0.0414 -0.1614
21323W        W37584   1.832  15.125  15.399 -0.1183  0.0012 -0.2362
21324W        W37585  16.069  12.116   3.939 -0.1335 -0.1716 -0.0020
21325W        W37586  13.659   1.011   2.878  0.0132  0.1248 -0.3381
21326W        W37587   7.470  10.282   0.284  0.0178 -0.0581  0.2071
21327W        W37588  15.222   5.137  14.320  0.0773 -0.0880  0.0304
21328W        W37589  15.583   7.015  13.834 -0.3553  0.3292 -0.1730
21329W        W37590  11.301  12.363   2.784 -0.1721 -0.1109  0.1000
21330W        W37591  16.239  16.932   0.030 -0.1749 -0.1172 -0.1946
21331W        W37592   6.507   9.527   4.970 -0.0376  0.1773  0.2587
21332W        W37593   3.719   0.484   3.112  0.0257  0.0993  0.2819
21333W        W37594   4.902   5.577  13.315 -0.1449  0.0070  0.0280
21334W        W37595   5.923  13.642   4.191 -0.0149 -0.1875 -0.0407
21335W        W37596  11.707  14.714  14.602  0.0597 -0.2052 -0.0982
21336W        W37597   2.927  14.512  11.960  0.0488  0.0544 -0.3683
21337W        W37598   3.588  14.971   1.030 -0.3059 -0.0888 -0.0482
21338W        W37599  10.681  16.126   1.472  0.0429  0.1065 -0.4329
21339W        W37600   3.964   2.612  12.738  0.0600 -0.0227 -0.0013
21340W        W37601  16.027  12.191   1.473 -0.1208 -0.3457 -0.0132
21341W        W37602   1.007  13.520   5.349  0.2269  0.1394 -0.0169
21342W        W37603   0.376  17.289  13.367  0.1529 -0.1400 -0.1275
21343W        W37604  17.996   2.921   1.088  0.0964  0.1068 -0.1191
21344W        W37605   1.657  16.841  11.885  0.2222  0.1196 -0.0421
21345W        W37606  12.845   7.107   4.023 -0.1580  0.0466  0.1497
21346W        W37607  15.435   7.877   1.781 -0.2163 -0.1187 -0.0480
21347W        W37608   3.526  11.939  11.906 -0.1972 -0.4650 -0.0716
21348W        W37609   5.972   9.448  12.733 -0.2921  0.1498  0.1080
21349W        W37610  14.961   5.744  11.327  0.0032 -0.0355 -0.0697
21350W        W37611  12.420  13.438  11.885  0.0809  0.0308 -0.0438
21351W        W37612  13.785  15.975   1.220  0.3714 -0.1434 -0.1220
21352W        W37613   4.537  13.979   0.379 -0.1723  0.0125  0.3372
21353W        W37614  14.047  11.842   5.546 -0.0219  0.0857  0.0253
21354W        W37615   0.556   2.442   4.196 -0.0882  0.0236 -0.1348
21355W        W37616   8.243   6.276   2.726  0.1056  0.0698 -0.2371
21356W        W37617   0.148  13.140   1.179 -0.0538 -0.1087 -0.0625
21357W        W37618   4.966  12.380   4.482 -0.0836 -0.0760  0.0138
21358W        W37619   5.133  14.740   3.936  0.2193  0.2506  0.0222
21359W        W37620  17.036  14.292   3.962 -0.1078 -0.1335  0.3527
21360W        W37621   5.330  10.204  14.951 -0.4466  0.0110  0.0845
21361W        W37622  14.678   9.118   3.107  0.1919  0.4836  0.1252
21362W        W37623   9.364  15.748   3.686 -0.0072 -0.0652  0.1963
21363W        W37624   7.317   9.751  11.061  0.0310 -0.0993  0.2188
21364W        W37625  11.089  18.387   3.022  0.0892  0.1402  0.0862
21365W        W37626   7.950   2.435   3.524  0.4273  0.0647 -0.0307
21366W        W37627   9.734  17.342  11.651  0.2669 -0.1460 -0.3031
21367W        W37628   9.320  15.183   3.634 -0.1323  0.0340 -0.1417
21368W        W37629  10.140  10.613  14.298  0.3435 -0.3173  0.0079
21369W        W37630   7.093  10.165   2.224  0.0863 -0.0187  0.1067
21370W        W37631  16.401   8.491  15.071 -0.0290 -0.4730  0.1532
21371W        W37632   0.710  10.546   6.303  0.2133  0.2409 -0.0313
21372W        W37633  11.716   5.038  10.515  0.2620 -0.0451  0.1423
21373W        W37634  13.573   1.961   2.398 -0.0184  0.0085  0.1076
21374W        W37635   9.848   0.572  13.892  0.2395  0.1255  0.0405
21375W        W37636  10.060   1.586  12.991 -0.1064  0.1539  0.1535
21376W        W37637   5.622  11.281   2.085 -0.0758  0.1516  0.1653
21377W        W37638   0.217   7.935   3.166 -0.1749  0.1757  0.0824
21378W        W37639  15.675   9.511   2.389 -0.1140 -0.3316  0.1934
21379W        W37640   8.716  12.800   1.491  0.1429 -0.1263  0.1868
21380W        W37641  11.289  15.977  12.220  0.1203  0.2030 -0.1315
21381W        W37642   4.937   3.931   4.820  0.0147 -0.2248  0.0494
21382W        W37643  16.214  13.423   0.125  0.3972  0.0906 -0.2159
21383W        W37644  16.273  18.140  11.225  0.0270 -0.1285  0.2006
21384W        W37645  13.124  16.067   2.026 -0.0658 -0.0613 -0.0765
21385W        W37646  17.127   2.899   2.796 -0.0120 -0.2627 -0.2712
21386W        W37647  14.679   3.844   4.221  0.3279 -0.0962 -0.2690
21387W        W37648   4.648  12.183   2.179 -0.0542 -0.1677  0.1326
21388W        W37649  15.810   5.493   2.211 -0.0762  0.4539  0.1223
21389W        W37650   1.208  16.242  12.944 -0.1367  0.0512 -0.1374
21390W        W37651   2.581  15.138   4.907  0.0095 -0.2274  0.1200
21391W        W37652  14.883   4.906   0.743 -0.1265  0.3087 -0.2961
21392W        W37653  10.577   9.555   3.268  0.3101  0.1900 -0.1852
21393W        W37654  14.116  10.234   0.819  0.0327  0.2542  0.1013
21394W        W37655  16.574  15.470   2.653 -0.2172  0.0524 -0.3343
21395W        W37656  12.586   4.947  15.049  0.2153  0.1172 -0.1015
21396W        W37657   1.931  10.432  10.629 -0.0842  0.3316  0.2364
21397W        W37658   7.098   8.450   1.227  0.2153 -0.1542  0.0440
21398W        W37659   6.883  15.899   4.744  0.0895 -0.1443  0.0168
21399W        W37660   6.298  17.205   1.641 -0.0372  0.0997 -0.3113
21400W        W37661  12.967  10.107  15.844  0.1148  0.2308  0.1196
21401W        W37662   3.047   5.993   1.790 -0.1854 -0.1895  0.2131
21402W        W37663  12.427   2.978   0.074 -0.1103 -0.2562 -0.1709
21403W        W37664  16.820   8.292   0.885 -0.3020  0.0854  0.0865
21404W        W37665  11.673  12.979  11.399  0.0893 -0.0856 -0.0162
21405W        W37666   4.880   4.397   1.092  0.0865  0.1956  0.0182
21406W        W37667  17.159   1.789  12.933 -0.1984 -0.2241  0.0991
21407W        W37668   3.858  15.258   2.712  0.1128  0.1085 -0.0119
21408W        W37669   6.565   6.431   5.636 -0.1329 -0.1714 -0.1643
21409W        W37670  13.101   4.955  12.512 -0.0301 -0.0420 -0.0780
21410W        W37671  14.530  11.706   5.409  0.0420  0.1310  0.1522
21411W        W37672  11.158  11.314   3.178  0.2746  0.2297 -0.1082
21412W        W37673  13.841  13.288  13.879  0.1269 -0.0491 -0.0526
21413W        W37674   2.717   5.288   0.301 -0.1033  0.1542  0.0809
21414W        W37675  17.292   5.100  13.815 -0.0959  0.0329  0.0735
21415W        W37676   5.862  11.492   3.882 -0.2334  0.1947 -0.1754
21416W        W37677  12.569  15.571  12.335  0.1682 -0.1014  0.1007
21417W        W37678  17.942  12.489  15.542  0.1881 -0.4071  0.1640
21418W        W37679  10.912   3.808  15.532  0.1694  0.0789  0.2819
21419W        W37680   1.102  17.776  11.718  0.1972 -0.0726  0.2170
21420W        W37681   9.480  11.387   1.746 -0.0396  0.1278  0.1780
21421W        W37682  16.237   1.283  11.548  0.5118  0.3452  0.1000
21422W        W37683  13.251   9.250   2.067 -0.1781 -0.1323  0.2252
21423W        W37684   4.001   4.472  16.096 -0.1753 -0.1635 -0.2417
21424W        W37685  17.755  13.149   5.450  0.0191 -0.1688  0.0877
21425W        W37686   0.426   3.336  16.119 -0.3024 -0.2138  0.0506
21426W        W37687  15.609  15.444   4.784  0.2337 -0.0487  0.2815
21427W        W37688   9.226   7.163  11.438 -0.1635 -0.0601  0.0232
21428W        W37689  11.571   8.225  11.883 -0.1825 -0.1805 -0.1060
21429W        W37690  12.804  14.312   2.933 -0.3332  0.1824 -0.2619
21430W        W37691   7.775   1.566   2.030  0.0812 -0.0314 -0.1689
21431W        W37692  16.437  11.526   2.783 -0.3100 -0.0154 -0.0268
21432W        W37693   2.056  11.399   2.693  0.2351  0.1486  0.0030
21433W        W37694   8.952   2.878  14.785  0.0983  0.1255  0.0251
21434W        W37695   2.065   5.088   1.550  0.0623  0.0948  0.1099
21435W        W37696  14.782  11.083   6.123 -0.2864  0.0560  0.0211
21436W        W37697  14.546   5.547  12.826  0.0106  0.1739  0.4770
21437W        W37698   3.099  16.179  12.334  0.0290  0.1875 -0.0907
21438W        W37699   7.944  11.521   0.345 -0.1349  0.0118  0.2226
21439W        W37700  13.152  13.983   3.242 -0.2196  0.0016 -0.1593
21440W        W37701   8.597  16.823   1.923  0.4498  0.2569  0.4703
21441W        W37702  10.980   5.721  10.983 -0.0693 -0.2617 -0.2636
21442W        W37703  15.642  11.552   2.495 -0.1548  0.0760 -0.2873
21443W        W37704  15.078   2.524  13.027 -0.3273  0.0844  0.0570
21444W        W37705   2.997  17.477   6.429 -0.2611  0.1236 -0.0012
21445W        W37706   0.385  17.884   1.447  0.1923  0.0214 -0.1704
21446W        W37707   8.100  11.379   3.100 -0.0597  0.3941  0.0180
21447W        W37708  15.316   5.548  11.830  0.1285 -0.0284  0.1115
21448W        W37709  14.742   4.858  11.265  0.0435 -0.0302 -0.0143
21449W        W37710   3.693  12.648  11.596  0.0950  0.1134  0.0896
21450W        W37711  14.508   2.178   1.740 -0.0823 -0.0088  0.2841
21451W        W37712   0.036  13.900  14.952  0.0517 -0.2686 -0.0010
21452W        W37713   9.011   0.478   6.075 -0.2577 -0.0423  0.0056
21453W        W37714  10.142  16.720   4.917  0.0028  0.4106  0.0210
21454W        W37715   9.349   3.467  14.054 -0.1888  0.0141 -0.1418
21455W        W37716  11.483  14.440   4.352  0.0819 -0.2543 -0.1501
21456W        W37717   6.422   1.855   4.007  0.0202  0.0157  0.0129
21457W        W37718   9.946   3.180   1.748 -0.2931  0.0319 -0.1838
21458W        W37719   4.941  15.209   0.790 -0.1881  0.1655 -0.1478
21459W        W37720  15.472   1.093   0.917  0.2196 -0.1444 -0.1186
21460W        W37721  10.891   1.678  13.080 -0.1582  0.1610 -0.1308
21461W        W37722  11.322   3.489   1.174  0.0772  0.0430  0.3150
21462W        W37723  14.838   1.692  12.638 -0.0078  0.0909  0.0603
21463W        W37724  15.533   6.937   1.104 -0.0474  0.0921 -0.0683
21464W        W37725  13.288  14.641   3.190 -0.1692 -0.0151 -0.0045
21465W        W37726  11.567   6.674  14.383 -0.0551 -0.0191 -0.2237
21466W        W37727   7.883   1.577   0.376 -0.3254 -0.0563 -0.1679
21467W        W37728   1.412  10.876  13.693  0.1109  0.3599 -0.2381
21468W        W37729  16.619   0.358   4.566 -0.0723 -0.4244 -0.1891
21469W        W37730  16.864   9.174   5.629  0.3999  0.2154 -0.0998
21470W        W37731   2.279   1.328  12.909 -0.1113  0.0167  0.2184
21471W        W37732  16.270  15.222  15.600  0.1572  0.1890  0.3011
21472W        W37733   0.875   9.440   4.703  0.2509  0.2223  0.1691
21473W        W37734   0.612  11.054   1.081 -0.2463  0.3467 -0.2218
21474W        W37735  13.707   0.852   4.952  0.1295 -0.1140  0.0367
21475W        W37736   4.518  10.701   2.237  0.0890 -0.0748 -0.2512
21476W        W37737   9.626   6.303  14.895 -0.0074 -0.1098  0.0919
21477W        W37738   4.150  17.501  15.324  0.1672 -0.2166 -0.0823
21478W        W37739  16.499  13.458  12.275 -0.0313 -0.1203  0.3511
21479W        W37740   5.901   6.313   4.392 -0.2669  0.2510  0.0404
21480W        W37741  17.122   7.540  11.777 -0.0822 -0.2787  0.2713
21481W        W37742  10.321   1.147   5.900  0.0354 -0.0711  0.0619
21482W        W37743   0.651   4.474   5.560 -0.0936 -0.0259  0.0441
21483W        W37744  13.334  13.413  14.006  0.2628 -0.0284 -0.0564
21484W        W37745  13.738  17.795   1.944 -0.1846 -0.2728 -0.2204
21485W        W37746  14.074   0.892   0.617  0.0815  0.0526 -0.1570
21486W        W37747   2.820   5.222  15.432  0.0236  0.3826 -0.1690
21487W        W37748   9.905   1.661   2.377  0.1776 -0.1267  0.1657
21488W        W37749   5.860   5.487  13.622  0.0730  0.0232  0.4751
21489W        W37750  16.750   4.813   4.241  0.2963 -0.1619 -0.1985
21490W        W37751   8.497  17.996   6.037  0.1409 -0.0570  0.0728
21491W        W37752  17.092   9.270   3.851  0.2767 -0.0770  0.0496
21492W        W37753   2.730   9.191  13.428  0.0680  0.0666  0.1069
21493W        W37754  14.901  11.266   0.678  0.1884 -0.0253  0.3650
21494W        W37755   4.610  14.921   3.598  0.2327 -0.0414  0.4286
21495W        W37756   8.403  15.143  14.477  0.1519 -0.2181  0.0753
21496W        W37757   3.932  11.223   2.204  0.0462 -0.3197  0.1764
21497W        W37758  18.097  12.285   5.208  0.0875  0.0050 -0.1138
21498W        W37759   9.439   7.758   3.336 -0.0451  0.2452  0.1648
21499W        W37760  11.172  13.391  10.642  0.0225 -0.3239  0.2949
21500W        W37761   0.584  16.531  13.422  0.1328  0.1431  0.1350
21501W        W37762  12.278  10.124   1.658 -0.2397 -0.5166 -0.0470
21502W        W37763   1.586   1.975   2.044 -0.0925 -0.2375 -0.1531
21503W        W37764   7.253   2.236  14.151  0.1439  0.2117 -0.0405
21504W        W37765   1.347   9.460  15.097  0.1115 -0.0245  0.1089
21505W        W37766  14.572  12.722   0.710  0.1157  0.2772  0.3713
21506W        W37767   5.325   2.187   1.701  0.2819 -0.2502  0.0947
21507W        W37768   0.522  16.862  12.220  0.1911 -0.1089  0.0580
21508W        W37769   9.400  16.819  14.496 -0.2390  0.1050 -0.0508
21509W        W37770  16.630  10.898  14.979 -0.0501 -0.3054  0.0678
21510W        W37771   9.562   5.648   3.501  0.0011  0.0821 -0.0545
21511W        W37772  10.226  16.008  15.350  0.1826  0.2786  0.0787
21512W        W37773   9.055   0.752   4.875  0.2368 -0.0756 -0.1243
21513W        W37774   5.222  14.624   2.975  0.3162  0.0003  0.1461
21514W        W37775   8.455  15.485  11.559  0.1742  0.0825  0.0921
21515W        W37776  10.591   6.456  12.531  0.1795 -0.1602 -0.1056
21516W        W37777   0.966  16.787  11.587  0.0257 -0.1154 -0.0033
21517W        W37778  18.082   6.277   4.335 -0.4329 -0.4408  0.0278
21518W        W37779  13.999   9.194  11.781 -0.1023  0.1476  0.0626
21519W        W37780   3.200   9.097  11.514 -0.4743 -0.2073  0.1594
21520W        W37781   5.758   4.226   3.835 -0.0276  0.2769  0.0075
21521W        W37782   5.441  13.528  12.193  0.0976 -0.1048  0.2167
21522W        W37783  17.883  16.353   1.999  0.1871 -0.1451  0.4429
21523W        W37784  13.469  12.690  11.444  0.3087  0.1813 -0.0302
21524W        W37785   7.989  11.085   4.441 -0.0428  0.0340  0.1336
21525W        W37786  10.910  12.638  11.147 -0.0205  0.0708 -0.4009
21526W        W37787  13.649   6.338  13.567  0.0193 -0.0575  0.2955
21527W        W37788   0.295  10.637  13.544 -0.0255 -0.1642 -0.1724
21528W        W37789   4.026   1.797  13.044 -0.0984 -0.1123 -0.0525
21529W        W37790   8.886  14.194   3.831  0.1571  0.0081 -0.1690
21530W        W37791   7.852  14.734   2.218  0.3579  0.0430  0.3827
21531W        W37792   3.701  10.292   2.801  0.2182 -0.0531 -0.1013
21532W        W37793   6.120   0.120  12.820 -0.0124  0.1555  0.2407
21533W        W37794   1.501  18.260  15.827  0.4487  0.0274  0.0441
21534W        W37795  16.296  16.901   4.384 -0.1559  0.1795  0.0428
21535W        W37796   6.762   8.036  10.976 -0.3711  0.0186 -0.3859
21536W        W37797   6.782  13.418   0.122  0.4548  0.1888  0.3435
21537W        W37798   5.764   7.908  11.189  0.1282  0.0621  0.1393
21538W        W37799  13.690  12.306  11.222 -0.0823  0.0856 -0.2893
21539W        W37800  14.815  15.618   4.529 -0.0663 -0.0660 -0.0936
21540W        W37801  16.586  15.657   5.683 -0.2143  0.0416 -0.0097
21541W        W37802  16.890   9.571   0.032 -0.3360 -0.0962  0.1724
21542W        W37803  16.144  10.531  13.732  0.0794  0.3598  0.0384
21543W        W37804   8.624  11.904  10.859 -0.1275  0.0455 -0.0376
21544W        W37805   4.817   4.741  14.526  0.2102 -0.3602  0.0125
21545W        W37806   3.583   8.369   4.191 -0.2616  0.0044  0.1097
21546W        W37807   3.479   8.361   2.476  0.2395  0.0299  0.3099
21547W        W37808  10.169  15.373   4.258 -0.0401  0.1653 -0.0057
21548W        W37809   9.382   2.759  10.605 -0.0693 -0.0818  0.0746
21549W        W37810   7.098   9.722   5.014 -0.1134  0.1336  0.1397
21550W        W37811   1.807  13.179  12.802 -0.0991 -0.3135  0.1446
21551W        W37812  14.842  10.483  12.546  0.0915 -0.0171  0.0713
21552W        W37813  15.250   9.748   4.419 -0.0638  0.0972  0.2703
21553W        W37814  13.343   9.155  12.444  0.0525  0.0876  0.0409
21554W        W37815   0.376   3.820   1.594 -0.0570  0.3434 -0.2086
21555W        W37816  13.748  15.721  15.641 -0.3303  0.2433 -0.0821
21556W        W37817   8.483   0.695  11.367 -0.1069 -0.0035  0.0476
21557W        W37818  14.644  11.223   1.706  0.0458  0.1836 -0.2206
21558W        W37819   4.505   4.238   4.665  0.0872 -0.0877 -0.1286
21559W        W37820  15.193   6.753  13.904  0.1775  0.0440  0.1469
21560W        W37821   6.759  10.885  11.942  0.0041 -0.0734  0.1469
21561W        W37822  14.897  16.958  12.744 -0.0232 -0.0252 -0.0551
21562W        W37823  10.368   5.187   0.496 -0.2581  0.4650 -0.0992
21563W        W37824  12.005  18.299  12.089 -0.0015  0.3268  0.0197
21564W        W37825   9.727   4.601   5.127 -0.1325 -0.2500  0.1174
21565W        W37826   1.270   7.672  14.909  0.0187 -0.1111  0.0170
21566W        W37827   9.902  11.915  12.919  0.3292 -0.0680 -0.2099
21567W        W37828  18.300  15.201   1.022  0.0160 -0.1476  0.1857
21568W        W37829  12.193  14.881   1.442 -0.0479 -0.0953  0.0494
21569W        W37830   1.187  12.549  15.329  0.1231  0.0884 -0.1090
21570W        W37831   2.553   0.362   3.457  0.3902 -0.2266 -0.1645
21571W        W37832  12.090  13.461  15.971  0.2762  0.1134 -0.0965
21572W        W37833  17.449  14.845  14.806 -0.2285  0.2967 -0.0696
21573W        W37834   2.660  18.273  13.441  0.4207  0.0721 -0.1712
21574W        W37835   4.462   9.315   5.295 -0.3451 -0.1429  0.0123
21575W        W37836   0.278   9.823  11.776  0.3058 -0.0747  0.1527
21576W        W37837   2.697  14.269   5.764 -0.0743  0.1421 -0.1335
21577W        W37838  14.026   5.733   3.459  0.0519 -0.1104  0.2085
21578W        W37839  16.952   2.456  14.672  0.1262 -0.2249 -0.0879
21579W        W37840  10.953  13.608  14.268  0.2928 -0.1494 -0.2603
21580W        W37841   9.024  11.923   3.208 -0.3154  0.0544  0.1660
21581W        W37842  10.564   8.978   2.588  0.1439 -0.1777 -0.1032
21582W        W37843   8.843   9.523   3.885 -0.1287 -0.1995 -0.2023
21583W        W37844  17.490  15.174   4.030 -0.0283  0.0662  0.1059
21584W        W37845  12.081  15.972  15.280  0.1445  0.2170 -0.1982
21585W        W37846  14.617  14.608  12.141 -0.0534  0.0194 -0.4487
21586W        W37847   6.552  15.697  14.834 -0.0993  0.0977  0.1486
21587W        W37848  14.746   7.800  12.800  0.0793 -0.2852  0.3957
21588W        W37849   9.299  11.429  11.834  0.1328 -0.2165 -0.0728
21589W        W37850   3.914   6.817   0.172  0.3083 -0.2338  0.3079
21590W        W37851  16.442   2.319   3.396  0.2526  0.1908  0.4166
21591W        W37852  16.349   9.841   4.987 -0.3501  0.0776 -0.1722
21592W        W37853  16.551  13.983   4.864  0.3996 -0.1253  0.2763
21593W        W37854  10.969  14.755   0.227  0.5260 -0.3013 -0.0410
21594W        W37855  16.127  11.470  12.321  0.1935 -0.3644 -0.2017
21595W        W37856   2.769   9.172   5.709  0.1673 -0.0708 -0.0204
21596W        W37857   1.277   2.310  13.564  0.0872 -0.1733  0.0702
21597W        W37858   0.408  17.482  15.939 -0.1081 -0.0773 -0.4366
21598W        W37859  14.888   0.061   2.618  0.0517 -0.1050 -0.0054
21599W        W37860   0.841   0.848   4.735  0.0869 -0.1764 -0.2081
21600W        W37861   2.445  10.643   0.633 -0.0028  0.1086 -0.2051
21601W        W37862   5.084   3.096  14.334  0.2047  0.2118  0.1745
21602W        W37863   4.830   4.137   2.536  0.1354  0.1071 -0.0200
21603W        W37864   6.934   6.479  11.776  0.5492  0.2059 -0.2000
21604W        W37865   2.386   1.478   0.621 -0.0526  0.1000 -0.0213
21605W        W37866   7.555   3.259  13.341 -0.3245 -0.1806  0.2887
21606W        W37867   5.956  11.386  13.546  0.3002  0.5828 -0.0589
21607W        W37868  15.049  11.518   5.461 -0.2299  0.1771  0.1706
21608W        W37869   7.820  13.412  13.463 -0.0167  0.0790 -0.2104
21609W        W37870  10.879   6.672   4.019 -0.3530 -0.1121  0.0153
21610W        W37871  16.483  11.480  13.759 -0.1744  0.4927  0.2609
21611W        W37872   1.456  17.893   3.766 -0.2926  0.0644  0.0850
21612W        W37873  13.671  12.978  16.174  0.2652 -0.1949  0.0773
21613W        W37874  14.840   8.768  12.047  0.1063  0.1889 -0.2002
21614W        W37875  16.561   3.860  10.571  0.0260  0.0566 -0.1894
21615W        W37876  12.478   8.940  15.470 -0.1709  0.1000 -0.1994
21616W        W37877  11.942   5.701  11.864 -0.0984 -0.2316 -0.0929
21617W        W37878   3.646   1.022  12.361 -0.0518  0.1888 -0.0665
21618W        W37879   6.416  14.601   4.239  0.0764 -0.2756 -0.0777
21619W        W37880  10.971  14.640  14.182  0.0332  0.1426 -0.2577
21620W        W37881   4.226  18.059   1.550  0.0276 -0.0893  0.0358
21621W        W37882   1.041  10.367   4.467 -0.0859 -0.3115 -0.0831
21622W        W37883  14.168  17.596   3.793  0.3561  0.3695  0.0136
21623W        W37884   8.716  10.466  11.010  0.2288 -0.2133 -0.1881
21624W        W37885   1.478  14.214   4.415 -0.3108  0.1730 -0.0995
21625W        W37886   0.525  13.294   4.855 -0.1604 -0.0462 -0.3012
21626W        W37887  17.726   3.899   0.886  0.0677 -0.1412 -0.2268
21627W        W37888   3.182  14.153  15.396  0.1842 -0.0252  0.0776
21628W        W37889  13.357   3.804  11.495  0.0800  0.1323 -0.1406
21629W        W37890   8.346   4.954  11.953  0.1093  0.0919  0.2086
21630W        W37891   3.729  16.006   4.529  0.1737 -0.1218 -0.0392
21631W        W37892  13.058  18.333   6.026  0.0574 -0.0390  0.1258
21632W        W37893  11.387   8.239  11.430 -0.1635  0.1403 -0.0113
21633W        W37894  14.123   4.971   4.456 -0.0346 -0.0848  0.2192
21634W        W37895  13.672  17.294   3.745  0.0276 -0.2263  0.0288
21635W        W37896   4.413  13.717  12.052 -0.3551  0.0618 -0.0222
21636W        W37897   4.086   9.389  11.563 -0.1889  0.2109  0.1047
21637W        W37898   7.326   8.576  12.148  0.3777  0.0850  0.0777
21638W        W37899   0.657   2.418  15.904  0.0596  0.1166  0.1190
21639W        W37900  17.465   2.508   5.606  0.1226  0.0052 -0.0116
21640W        W37901   1.476  17.316   2.428  0.0677  0.3368 -0.0620
21641W        W37902  14.612  10.569  15.986  0.0923  0.3492  0.0283
21642W        W37903  11.008  17.593   1.062 -0.0275 -0.1068 -0.1480
21643W        W37904   6.068   1.098   4.907 -0.0779 -0.1982  0.1619
21644W        W37905   4.677  12.299   5.009 -0.3692  0.0477 -0.2661
21645W        W37906  16.132  14.041  14.808  0.3721 -0.0253 -0.3757
21646W        W37907  14.253   4.653   5.910 -0.1798 -0.0142  0.2386
21647W        W37908   0.337   5.007  15.839 -0.1772  0.0689  0.0639
21648W        W37909   5.029   1.726   4.132  0.1338  0.1488 -0.3898
21649W        W37910   5.718  13.325  13.225 -0.0928 -0.0241 -0.1961
21650W        W37911   5.456   9.351  10.186  0.1707 -0.4592 -0.1949
21651W        W37912  18.055   1.648  15.569  0.1374  0.0353  0.1642
21652W        W37913   2.775   9.138  11.749 -0.1049  0.2278 -0.0229
21653W        W37914   2.492   3.059  15.961 -0.2456 -0.0595  0.1559
21654W        W37915  15.372  15.057   1.010  0.0912  0.2359  0.1294
21655W        W37916  10.937  10.159  10.794 -0.0610 -0.0222  0.0645
21656W        W37917  11.638  11.988  13.751 -0.2022 -0.1631  0.0763
21657W        W37918  13.082  18.114  15.257  0.1486  0.3433 -0.4356
21658W        W37919   4.555  14.068   3.042  0.1047  0.0253 -0.0714
21659W        W37920   1.942  12.366   4.641 -0.1562  0.0974  0.2329
21660W        W37921  14.214  14.872  11.816  0.1072  0.1740  0.0859
21661W        W37922  12.975   2.227   0.555 -0.2238 -0.3176 -0.0573
21662W        W37923   2.536  10.595  13.049 -0.1975 -0.0864 -0.0363
21663W        W37924   9.716  14.889  10.820  0.0415 -0.0249  0.0578
21664W        W37925  17.927  13.762  14.988 -0.0509  0.3189  0.3369
21665W        W37926  14.222   9.000   1.668 -0.4497 -0.3020  0.3383
21666W        W37927   0.860  14.297  12.327  0.0310  0.0457  0.4616
21667W        W37928   7.620  13.155  11.862  0.0570  0.1141 -0.0449
21668W        W37929  16.127  11.790  14.069 -0.3955  0.0819 -0.1303
21669W        W37930  16.814   4.466   0.926  0.0191  0.0048 -0.1934
21670W        W37931  10.568   5.826   2.452 -0.3552  0.5179  0.0562
21671W        W37932   1.879   1.543  16.042 -0.0952  0.1313 -0.2662
21672W        W37933  15.905  18.269  13.481 -0.0592  0.2525 -0.1837
21673W        W37934  12.336   1.440   1.427  0.0703  0.0942 -0.0865
21674W        W37935   3.101   8.282   3.193  0.0594  0.3018 -0.0944
21675W        W37936  16.294  12.072  14.530 -0.0842 -0.0103 -0.0436
21676W        W37937   9.578   3.118   0.404 -0.0068 -0.0711  0.2016
21677W        W37938  16.966  11.611  13.666  0.3011  0.2339  0.1570
21678W        W37939  11.814   9.478  11.471 -0.3267  0.1390  0.0621
21679W        W37940   6.072   9.978   0.765  0.3598 -0.2127 -0.0818
21680W        W37941  16.297  17.446   4.815  0.0321 -0.2091 -0.1605
21681W        W37942  17.704   9.655   1.060 -0.3094 -0.1420  0.2915
21682W        W37943   4.614  11.967   4.225  0.1283 -0.4676  0.0321
21683W        W37944   8.979  11.104  11.659  0.2144  0.3341  0.0508
21684W        W37945  15.332  14.578   0.969  0.0156 -0.0790 -0.0576
21685W        W37946   4.820  14.782   1.505 -0.3089  0.2655  0.2095
21686W        W37947  11.830  14.245   0.243 -0.1652  0.0195  0.0862
21687W        W37948  17.522  17.364   0.675 -0.1009 -0.0059 -0.1085
21688W        W37949   7.206   4.632  10.805 -0.1232  0.0035 -0.0425
21689W        W37950   5.362  18.153  14.143  0.1612 -0.1804  0.1276
21690W        W37951   1.167   1.112   1.309  0.4111  0.0392  0.2211
21691W        W37952   6.356  16.645   1.378 -0.1436 -0.0803 -0.3435
21692W        W37953  16.243   3.285   0.011  0.0564 -0.1091 -0.1165
21693W        W37954   2.899   4.526  15.371 -0.3332  0.1885  0.0542
21694W        W37955   5.896   4.293   4.486  0.2089  0.0410  0.2062
21695W        W37956   1.397  13.171   1.898 -0.0357 -0.3354 -0.1957
21696W        W37957   7.449   0.398   3.866 -0.0335  0.1300  0.0677
21697W        W37958   2.219   8.845   0.820 -0.0492 -0.0890  0.0592
21698W        W37959  11.912   3.479  13.455  0.1562  0.2267 -0.1521
21699W        W37960   7.324   8.621  12.743 -0.1404  0.0430  0.1779
21700W        W37961  18.166  11.697   4.525 -0.0675  0.0327 -0.0151
21701W        W37962  11.161   6.118   2.786  0.3433 -0.0719  0.0646
21702W        W37963   1.331   4.962  14.959 -0.1858  0.1630  0.2374
21703W        W37964   8.406  10.417  14.814 -0.3004 -0.1927 -0.0033
21704W        W37965   8.101  11.159   1.559 -0.2095 -0.3974  0.4585
21705W        W37966   2.141   3.211   4.481 -0.0497  0.1993 -0.2350
21706W        W37967  11.222  16.860   4.989  0.0452 -0.2330 -0.0284
21707W        W37968  10.759  12.905   4.987 -0.2542  0.0251  0.0177
21708W        W37969  11.428   3.341  12.449 -0.1408 -0.2982 -0.0132
21709W        W37970   8.250   8.391  12.926  0.2070 -0.1738 -0.1969
21710W        W37971   5.749  15.340  12.034 -0.1806 -0.0271 -0.1061
21711W        W37972   5.445  16.659  15.226 -0.1323 -0.1502 -0.0186
21712W        W37973  14.149   8.024  15.852  0.0754  0.0194  0.0095
21713W        W37974   9.432  13.518  10.721 -0.1291  0.2020 -0.2366
21714W        W37975  17.286  15.111   3.056  0.1358 -0.1983  0.0125
21715W        W37976   3.787   6.665   4.797  0.2634  0.1536 -0.1657
21716W        W37977   6.333  15.826   1.837  0.3133 -0.0913 -0.2668
21717W        W37978  10.067  12.715   1.852  0.0392 -0.1669 -0.0613
21718W        W37979   4.492   2.972   5.827 -0.2464  0.1339 -0.4508
21719W        W37980   4.527   8.277  15.594 -0.1101  0.0256 -0.1044
21720W        W37981   2.587  15.745   3.124  0.1568  0.1363  0.1541
21721W        W37982  13.120   6.116   3.643 -0.0684  0.3306  0.0259
21722W        W37983  18.368   8.953   3.273 -0.0825  0.0773 -0.1822
21723W        W37984  14.434   5.966  14.969 -0.0630  0.1224 -0.2932
21724W        W37985   7.717   8.642   0.446  0.0811  0.1120  0.1570
21725W        W37986  11.856   1.054   3.660  0.1520  0.1283  0.1516
21726W        W37987   2.702   2.851   1.350 -0.1305  0.0045  0.2775
21727W        W37988   5.687  11.290  11.433  0.0007  0.0820 -0.0644
21728W        W37989   8.489   4.522  13.362 -0.0642 -0.3098  0.2481
21729W        W37990   4.682  16.798   3.753  0.3528  0.0877 -0.0526
21730W        W37991   9.950   7.874  12.534  0.1016 -0.1628 -0.1458
21731W        W37992  13.758  17.413  14.627  0.0838 -0.2538  0.0707
21732W        W37993   1.832  15.963   4.770 -0.0719 -0.3146 -0.3431
21733W        W37994   2.937  12.798   0.339 -0.2545  0.0422 -0.0903
21734W        W37995   5.227  13.094  13.690 -0.2122 -0.0417 -0.2478
21735W        W37996   6.672   1.107  12.400  0.3235  0.0879 -0.0434
21736W        W37997  10.035   7.551  15.025  0.2567  0.1291 -0.1509
21737W        W37998   3.555   5.540  10.907  0.2535 -0.1171 -0.0215
21738W        W37999   6.704  15.670  13.072 -0.2788 -0.2275 -0.1572
21739W        W38000  12.883   7.499   0.441  0.1554 -0.0129 -0.0977
21740W        W38001   3.478  12.615   3.210 -0.1410 -0.0516  0.0910
21741W        W38002  14.447   9.367   0.544  0.2198  0.2046 -0.1356
21742W        W38003  16.338  14.418   4.587  0.0495  0.0994 -0.2554
21743W        W38004   8.379   1.892  12.221 -0.0496  0.1574  0.0793
21744W        W38005  17.327  14.212  12.720 -0.0536  0.2206 -0.1109
21745W        W38006  11.088   5.752   0.365  0.1468  0.1271 -0.1730
21746W        W38007  12.850  11.166  13.950 -0.0951  0.1354 -0.0050
21747W        W38008   3.755  12.745  13.431 -0.1723 -0.1571  0.1965
21748W        W38009   4.300  15.877  13.652  0.3070  0.0501  0.1625
21749W        W38010   8.178   8.127  13.567 -0.0212 -0.0721  0.1153
21750W        W38011  15.176  16.073   0.897 -0.2788 -0.2404  0.1179
21751W        W38012   4.831  17.419  12.057 -0.3344  0.2464  0.1322
21752W        W38013  13.668   0.178   3.927  0.3481  0.1866 -0.0247
21753W        W38014  17.751  16.559  14.240  0.0566  0.0333  0.1687
21754W        W38015  13.340   2.134   6.042  0.2458 -0.1121 -0.0147
21755W        W38016   3.963   8.363   2.391  0.3260  0.0322  0.2994
21756W        W38017  12.725  16.612  11.323  0.1139  0.0177  0.0424
21757W        W38018  12.109  16.818   2.803  0.1378 -0.2658 -0.0160
21758W        W38019  17.026   0.138   4.393  0.3022 -0.1797  0.1988
21759W        W38020  16.106  13.014  11.361 -0.1913 -0.0771  0.2203
21760W        W38021   9.381   2.448   2.983  0.0255 -0.4537 -0.0247
21761W        W38022   2.152  11.334  14.085  0.2284  0.1779 -0.0312
21762W        W38023  11.514   1.324   3.912 -0.0306 -0.1119  0.0201
21763W        W38024  16.740  10.080  16.225 -0.0037  0.1412 -0.2460
21764W        W38025  14.938   1.735   5.402  0.3466  0.1148 -0.0998
21765W        W38026   2.013  16.028  12.337  0.1544  0.0160 -0.0698
21766W        W38027   5.679   9.704   5.404 -0.0821 -0.0668  0.1365
21767W        W38028   7.440   5.771  15.310  0.0171  0.2069 -0.1587
21768W        W38029  17.237   6.895  15.400 -0.2469 -0.3063  0.0554
21769W        W38030   0.965  12.255  11.696 -0.0304 -0.2230  0.1821
21770W        W38031  13.504   6.092   2.096 -0.1135 -0.1235  0.1352
21771W        W38032   4.301   7.000  11.523 -0.0968  0.1702  0.2585
21772W        W38033  13.054   4.822  11.713 -0.1810 -0.0970 -0.0500
21773W        W38034   4.322   7.438   2.896  0.2112 -0.0550 -0.3953
21774W        W38035  18.380   4.872  14.295 -0.0135  0.0019 -0.0711
21775W        W38036  10.640  15.705  14.360 -0.4846 -0.2268  0.1191
21776W        W38037   0.233   4.741   6.557  0.1887 -0.1375  0.2405
21777W        W38038  18.043  12.119   3.032  0.1285  0.1496  0.1177
21778W        W38039  12.906  15.289   3.312 -0.0688 -0.0581  0.4610
21779W        W38040   7.617   5.436   1.308  0.0223 -0.2759 -0.1212
21780W        W38041  16.105   0.497   5.714 -0.1941 -0.2694  0.1316
21781W        W38042   8.954   6.577  14.004  0.1667 -0.0811  0.1798
21782W        W38043  17.871   2.956   4.906  0.0413  0.1985  0.0438
21783W        W38044  13.988   3.140   1.906  0.1982  0.0200 -0.0872
21784W        W38045   6.287   6.618   4.766 -0.2403 -0.0062  0.2024
21785W        W38046  11.388  15.982   1.378  0.5079 -0.0828  0.0780
21786W        W38047   6.469  10.922   2.049 -0.0680  0.2125  0.3192
21787W        W38048   7.740   2.499   1.975 -0.0248 -0.0567  0.1154
21788W        W38049   8.763   9.473   0.535  0.1122 -0.0749 -0.0201
21789W        W38050   8.621   1.358  13.939 -0.1647  0.3259  0.0844
21790W        W38051  14.724  10.257  11.396  0.0618 -0.1827 -0.2853
21791W        W38052  13.189  13.350  12.522  0.0734  0.2808  0.2248
21792W        W38053  17.014   5.476  15.362 -0.0836  0.2608 -0.1452
21793W        W38054   7.273  10.402  10.798  0.3557  0.0308 -0.3224
21794W        W38055  11.008   8.461   3.321 -0.1988 -0.1560  0.0639
21795W        W38056   0.591   4.717   0.532 -0.4766  0.2131  0.0452
21796W        W38057   3.536   9.055   6.234  0.0755  0.2323 -0.1110
21797W        W38058   6.750   2.965  13.681  0.0249 -0.0136  0.1646
21798W        W38059   3.020  10.249   1.368  0.0841  0.0616  0.1220
21799W        W38060   3.333   5.862   4.296 -0.0789  0.1651 -0.1599
21800W        W38061   8.885  18.086   3.718 -0.0384 -0.0526 -0.3826
21801W        W38062  12.970   0.323   3.469 -0.0274 -0.0227 -0.3077
21802W        W38063   0.965   8.090  14.947  0.1839  0.0149  0.0841
21803W        W38064   8.028  16.677  14.637 -0.2862  0.0478  0.1285
21804W        W38065   6.627   0.726   0.800 -0.1950 -0.1414  0.4197
21805W        W38066   9.867   5.334  13.630  0.0961  0.0884  0.1103
21806W        W38067   8.871   2.226  10.872 -0.1451 -0.2557  0.0101
21807W        W38068  11.147  17.944  12.133 -0.1203 -0.0446  0.1977
21808W        W38069  17.477   4.248  15.942  0.0115  0.5457 -0.0423
21809W        W38070  13.425   5.606   1.942  0.0866  0.0453  0.0868
21810W        W38071   7.372  11.923  14.476 -0.1870  0.0416  0.2104
21811W        W38072  14.551   9.914  16.187  0.2341  0.2388 -0.0388
21812W        W38073  13.383  12.092  14.516  0.1985  0.0294 -0.2126
21813W        W38074  12.012  12.012  12.115 -0.2151 -0.1539  0.0237
21814W        W38075  11.805   1.731   4.900  0.1259  0.1447 -0.0711
21815W        W38076   2.514  13.714  13.943  0.0966 -0.0213  0.0417
21816W        W38077   9.890  17.887  15.132  0.1608 -0.0350 -0.2384
21817W        W38078  11.087  16.305   4.791  0.1334 -0.1134 -0.0537
21818W        W38079   6.070   7.725   1.086 -0.0973  0.0469 -0.0033
21819W        W38080   6.524  12.225   1.789 -0.1063  0.2660 -0.0987
21820W        W38081   6.488   3.747   3.200 -0.1148 -0.1043 -0.0731
21821W        W38082   3.511  16.618   0.112  0.0546 -0.0891 -0.1087
21822W        W38083  17.231  18.027  13.615  0.1073 -0.5153  0.1377
21823W        W38084   1.888   5.828   6.258  0.0201 -0.0990 -0.1997
21824W        W38085  16.115  12.766   2.354 -0.0552  0.2064 -0.1696
21825W        W38086   1.985   9.682   0.126  0.4376 -0.1314  0.0853
21826W        W38087   5.398  12.524   3.571 -0.2359  0.0691  0.1767
21827W        W38088   6.582   0.029   1.474  0.0212  0.1476  0.3141
21828W        W38089   5.042  17.804   0.372 -0.3620  0.0121  0.0055
21829W        W38090   6.592  16.857   4.111  0.2057 -0.2158  0.0672
21830W        W38091  12.434   6.909   0.403 -0.2338  0.0439 -0.0481
21831W        W38092   9.511  16.513   4.265  0.0339  0.3259  0.1229
21832W        W38093   9.239  12.997  13.836  0.2397  0.2098  0.1415
21833W        W38094  10.327   9.515   4.221  0.3172 -0.1112 -0.1472
21834W        W38095   1.022   3.829   2.603  0.1239  0.0550  0.0050
21835W        W38096   0.876   6.043  12.808  0.2507  0.1366  0.1288
21836W        W38097  12.701   0.835   5.879  0.2468 -0.3295  0.0553
21837W        W38098  17.507   6.400   3.274 -0.2404  0.0474  0.1863
21838W        W38099   2.242  16.464   0.280 -0.2675  0.1560 -0.1184
21839W        W38100   0.532   0.226   3.448  0.0083  0.0665  0.0799
21840W        W38101   9.173   0.324   5.085  0.6018  0.0946 -0.1168
21841W        W38102   5.095  13.268   3.727 -0.1080  0.3458  0.2328
21842W        W38103  16.612   7.690   2.356 -0.2393  0.0344  0.4236
21843W        W38104  18.384  14.754  14.010  0.1547  0.0453 -0.2369
21844W        W38105   3.089   9.972   0.106 -0.0568  0.1245 -0.0729
21845W        W38106  10.032  15.287  15.554 -0.0165  0.3000 -0.2092
21846W        W38107  12.652  14.811   0.656 -0.3255 -0.3056  0.2613
21847W        W38108   9.552   4.505  14.388  0.3289 -0.1322 -0.0761
21848W        W38109   6.289   5.142   4.788  0.0426  0.2953  0.3224
21849W        W38110  13.376  16.282  12.803  0.2991 -0.0324 -0.2470
21850W        W38111   7.633   0.380  11.489  0.2796  0.1014  0.1982
21851W        W38112   8.913  15.579  12.725  0.0920  0.1128  0.2084
21852W        W38113   4.312  16.685   2.261  0.1987 -0.3191  0.1255
21853W        W38114   5.674   6.078   5.196  0.1970 -0.2028 -0.1518
21854W        W38115  10.014   0.612   3.676  0.0009  0.0225 -0.3269
21855W        W38116  14.622  16.765  12.228 -0.0207 -0.0256  0.0395
21856W        W38117   3.842   7.848   5.117  0.1222 -0.0558 -0.1838
21857W        W38118   8.822   0.010   0.885  0.2732 -0.1801 -0.2358
21858W        W38119   7.905   4.736  11.148 -0.2630  0.0082  0.0847
21859W        W38120  13.306  11.025   4.623 -0.2458 -0.5095  0.0486
21860W        W38121   8.986   3.930  13.399 -0.5044 -0.0864 -0.0578
21861W        W38122  11.151   5.013   1.315  0.0838  0.0162  0.2866
21862W        W38123  12.200   9.229  11.675  0.0507  0.1457  0.2364
21863W        W38124  14.358   9.538   3.311 -0.1917 -0.2402  0.1794
21864W        W38125   8.011  15.876  13.891  0.2641  0.1465  0.2096
21865W        W38126  10.208   5.893  11.876  0.0967  0.0008 -0.3266
21866W        W38127   8.186  18.186   4.238 -0.0084 -0.1099 -0.0414
21867W        W38128   4.502   2.950  15.264 -0.0912  0.1116 -0.0996
21868W        W38129  15.990  17.268   4.218 -0.2396  0.1446 -0.1178
21869W        W38130   3.820  13.847   3.553  0.1159  0.0929  0.2611
21870W        W38131  11.668   0.418  14.733 -0.1222  0.0513  0.3661
21871W        W38132  16.426   6.381  15.249 -0.3043  0.1181  0.0441
21872W        W38133   0.849   7.645  15.795 -0.2319  0.2651 -0.0706
21873W        W38134   5.279   7.098  11.673 -0.0605  0.1999  0.3756
21874W        W38135  17.719   8.065  14.302 -0.2522  0.1005 -0.2485
21875W        W38136   7.346   8.915   2.916  0.0210 -0.1778 -0.1556
21876W        W38137  11.011  14.727   2.688 -0.4749 -0.2850 -0.1300
21877W        W38138   0.305  14.305  14.546  0.0186  0.0363 -0.3251
21878W        W38139  17.888   4.337   0.117 -0.3487  0.0936  0.2222
21879W        W38140  12.980  11.631  13.327  0.0529  0.1215 -0.2767
21880W        W38141   4.508  16.506   5.516 -0.3713 -0.2928 -0.1709
21881W        W38142  12.334   1.999  15.031 -0.1037 -0.0682 -0.1833
21882W        W38143  13.989   5.355  15.970 -0.2794 -0.1537  0.1874
21883W        W38144   2.314   9.773   1.001 -0.2841 -0.3359 -0.0921
21884W        W38145   5.069  11.822  16.007  0.1377  0.2951  0.3248
21885W        W38146  10.436   5.603  14.679  0.1000  0.1479  0.1297
21886W        W38147  17.950   5.638  16.133  0.0179 -0.1452  0.1492
21887W        W38148   7.649  14.183   5.368 -0.1769  0.0087  0.1323
21888W        W38149   7.816   1.412  14.119 -0.1252  0.2060  0.1137
21889W        W38150   2.721   9.567   1.272  0.0655  0.3137  0.0100
21890W        W38151   7.826   0.925   5.077 -0.1022 -0.1197 -0.2025
21891W        W38152   2.589   5.989   6.269 -0.4383  0.1625 -0.0541
21892W        W38153  11.850  13.530  11.220 -0.2750  0.2759  0.0587
21893W        W38154   9.711  10.787  12.684  0.3133  0.4996  0.0524
21894W        W38155  14.620  17.227  13.562  0.1871 -0.2876  0.1561
21895W        W38156   7.407  16.424  15.914 -0.2091  0.1800 -0.0858
21896W        W38157   9.573  16.656   2.183  0.3448  0.0166 -0.3431
21897W        W38158  13.099   7.633  16.258  0.0103  0.0996  0.0021
21898W        W38159  12.764  11.247   5.465  0.2649  0.1177  0.0944
21899W        W38160  11.091  14.854   2.236  0.0008 -0.2317  0.1276
21900W        W38161  10.400  17.615  12.722 -0.2355 -0.1615 -0.1053
21901W        W38162   9.644  13.552  13.516 -0.2135 -0.0220 -0.0030
21902W        W38163  13.765  18.090  14.067  0.0606  0.1485  0.3133
21903W        W38164   0.890   9.068   5.723  0.0001  0.1263  0.4926
21904W        W38165  12.598  11.412  12.465  0.2083  0.1466 -0.3091
21905W        W38166   9.301  16.398   4.960 -0.1850  0.1334 -0.1836
21906W        W38167   0.202  15.188  13.849  0.3962  0.1007  0.1088
21907W        W38168   1.363   6.353  14.361 -0.1681 -0.1756  0.0155
21908W        W38169   0.998   6.892   2.014 -0.0857  0.4515  0.0746
21909W        W38170   0.086   4.906  12.384  0.3599  0.2132  0.2972
21910W        W38171   4.077   8.107  10.976 -0.0581 -0.0168 -0.1025
21911W        W38172   1.580  17.820   1.511  0.3293 -0.1171 -0.3761
21912W        W38173   0.971   8.210  11.270  0.0704  0.1249 -0.0410
21913W        W38174  12.986  17.359  11.840 -0.1392  0.0317  0.4935
21914W        W38175  11.834  16.128   0.600  0.2424  0.1017  0.4456
21915W        W38176  18.082  13.557   4.131 -0.1110  0.2413 -0.0906
21916W        W38177   9.164   2.793   2.177 -0.0659 -0.6606 -0.3142
21917W        W38178   8.558   2.436  13.746 -0.0795  0.4033 -0.3516
21918W        W38179   0.218   4.518   0.309  0.0650  0.0716  0.5140
21919W        W38180   8.016   9.156   2.173  0.2555 -0.1800  0.3033
21920W        W38181   1.788  18.141   3.035 -0.2449  0.1506 -0.2488
21921W        W38182   0.334   5.312  16.288  0.1805  0.3619  0.0445
21922W        W38183  11.511  11.757  12.839  0.0857 -0.1398 -0.0838
21923W        W38184  18.043   6.677   3.983 -0.2594 -0.0456 -0.2577
21924W        W38185  17.927   9.752  12.834 -0.2545  0.2036  0.1575
21925W        W38186   8.329   4.010  11.758  0.0125  0.0510  0.3388
21926W        W38187   0.081   0.803   1.851 -0.0989 -0.3547 -0.3616
21927W        W38188  15.701   0.160   1.301  0.2658  0.3934  0.2331
21928W        W38189  13.555   9.107  13.367 -0.1362 -0.0395  0.1471
21929W        W38190  13.634   5.973   5.544 -0.1140  0.2207  0.2287
21930W        W38191   3.887   3.634   5.916 -0.0335  0.1950  0.1608
21931W        W38192  12.825   7.974   0.285 -0.3799 -0.1037  0.1151
21932W        W38193  17.323  11.841  11.252 -0.3407  0.2525 -0.2428
21933W        W38194  17.018   2.812  13.661  0.2661  0.1577  0.1785
21934W        W38195  17.732   5.917  13.851  0.1598 -0.1192  0.2133
21935W        W38196   8.247   6.346  15.525  0.1399 -0.3552  0.2526
21936W        W38197  13.170   6.469   4.502  0.0075 -0.2514  0.2428
21937W        W38198   3.761   7.516  12.067  0.0556  0.4944 -0.1327
21938W        W38199  17.894   1.093  12.503  0.0266 -0.1228 -0.0500
21939W        W38200  16.031   3.376  12.130  0.3941 -0.0582  0.0756
21940W        W38201  13.228   2.585   5.776  0.0026  0.2836 -0.1370
21941W        W38202   9.217  17.402   4.249 -0.1597 -0.0383 -0.2657
21942W        W38203   6.368   4.628  16.073  0.0868  0.0202 -0.1521
21943W        W38204   9.942  14.801  12.922  0.1530  0.0531  0.0790
21944W        W38205   2.038   4.550  13.469  0.2241 -0.0898  0.1661
21945W        W38206  12.973   5.643  15.651 -0.1154 -0.1111  0.0929
21946W        W38207  12.634   7.390  11.901 -0.0277  0.1029  0.2384
21947W        W38208  13.782   9.426   1.244  0.0676  0.0566 -0.2034
21948W        W38209   0.160  16.811  15.406  0.0667 -0.0469 -0.0833
21949W        W38210   0.657   6.419  14.309  0.1363  0.1959  0.3590
21950W        W38211  13.156   2.160   3.158 -0.2971  0.0378 -0.0482
21951W        W38212   4.693  11.118   4.887  0.4304  0.1737 -0.1548
21952W        W38213   5.398   9.062   1.104 -0.0000 -0.0327  0.0741
21953W        W38214   8.155  13.526   1.934 -0.0481 -0.0869  0.0501
21954W        W38215   5.881   2.489  15.413 -0.3327 -0.3171 -0.0541
21955W        W38216   7.447   3.118   3.973  0.0117  0.1051  0.3136
21956W        W38217   2.836   7.278  14.411  0.2260 -0.3858 -0.2169
21957W        W38218   5.425  18.112  13.588 -0.1076  0.3282 -0.1062
21958W        W38219   7.986  15.689  12.946  0.0710 -0.0169 -0.2466
21959W        W38220  10.938   1.979   5.330 -0.1733 -0.1678 -0.2681
21960W        W38221  17.509   4.784   5.155 -0.0905 -0.0979 -0.0852
21961W        W38222   4.674  15.873  11.443 -0.0985 -0.2019  0.0895
21962W        W38223  18.054  18.248   0.398  0.3313 -0.1582  0.0271
21963W        W38224  12.237  16.417   5.541 -0.0136  0.3094 -0.0337
21964W        W38225   3.987  12.652   0.629 -0.2480  0.2638 -0.1893
21965W        W38226  15.990  13.084  13.179  0.1029  0.1042  0.0679
21966W        W38227  10.738   7.736  11.779 -0.0870  0.0479  0.1851
21967W        W38228  13.407   9.710  15.791 -0.3133  0.0902  0.1548
21968W        W38229   9.914  17.452  12.668  0.0939  0.2620 -0.2494
21969W        W38230   7.581   2.869   4.954  0.3129 -0.1079  0.2242
21970W        W38231   8.277   7.549  14.510 -0.0192 -0.1567  0.0833
21971W        W38232  17.236   0.171  13.009 -0.1039 -0.1322 -0.2598
21972W        W38233   9.691  15.484  15.892  0.0606  0.2567  0.0430
21973W        W38234  13.540  15.988  15.196 -0.0121 -0.0577  0.2234
21974W        W38235  13.770  17.716   2.888 -0.3579  0.1456 -0.0795
21975W        W38236   9.468   1.784  15.420  0.1732 -0.0739  0.0900
21976W        W38237   9.657  11.648   2.564 -0.0569 -0.0034 -0.0837
21977W        W38238  11.888  11.096   4.353  0.2142  0.3586  0.1238
21978W        W38239  11.951  13.826   2.818  0.1490  0.1172  0.0217
21979W        W38240  11.540  14.852   1.848 -0.1991 -0.0484 -0.0823
21980W        W38241   4.110   5.585   2.124  0.1706  0.0677 -0.0854
21981W        W38242   1.228   0.553   6.578  0.0472  0.3151 -0.5103
21982W        W38243   8.481  11.986   2.039 -0.1198  0.1666 -0.0489
21983W        W38244   6.994   9.842   0.921  0.0417 -0.0179 -0.0596
21984W        W38245  10.190  12.216  14.199 -0.0290  0.0543  0.2531
21985W        W38246  10.908  17.755  15.319 -0.3100 -0.0976  0.1855
21986W        W38247   8.771   5.840   3.903  0.1713 -0.1342  0.1996
21987W        W38248  18.317   6.221   3.837 -0.3944  0.1879 -0.2314
21988W        W38249  16.452  16.385   0.851 -0.1678 -0.4005 -0.0981
21989W        W38250  15.174  16.302  15.896 -0.0546  0.0547  0.1809
21990W        W38251  12.366   0.629   4.589  0.2291  0.4107 -0.0500
21991W        W38252   9.073   8.691  15.327  0.1975  0.0489  0.1928
21992W        W38253  13.231   8.877  16.010  0.2709  0.0543  0.1244
21993W        W38254  10.489  16.255  14.499 -0.0407 -0.0611  0.1468
21994W        W38255   4.533   1.132  12.659 -0.0812 -0.1701  0.1656
21995W        W38256   2.285  12.808   2.743  0.1760  0.0013  0.1710
21996W        W38257   2.203  14.326   1.717 -0.1381 -0.0508 -0.2401
21997W        W38258  12.340   6.968  11.618 -0.2144 -0.3379 -0.0799
21998W        W38259   9.553   5.996   3.000 -0.0509 -0.1616  0.0708
21999W        W38260   7.768   8.411  12.778 -0.2979 -0.0870  0.2164
22000W        W38261  12.473   8.759   1.264 -0.3156  0.0028  0.2766
22001W        W38262   3.649   6.598   1.651  0.0060  0.1626 -0.1028
22002W        W38263  10.340   6.267   2.388  0.2778  0.1623 -0.0168
22003W        W38264   1.684   5.329   3.821  0.0369 -0.3058  0.2589
22004W        W38265   5.638  13.038   1.260 -0.0243  0.0883  0.0343
22005W        W38266   9.292   2.472   4.866  0.2496 -0.2055 -0.0286
22006W        W38267  13.585  10.560  13.735 -0.0717  0.0720  0.0115
22007W        W38268   9.866   6.818   0.690  0.0730  0.0772  0.1510
22008W        W38269  16.908   3.145   5.905 -0.0497  0.0458 -0.1425
22009W        W38270   3.630  13.983   5.332  0.0907  0.2104 -0.1682
22010W        W38271  16.316   8.789   3.787  0.0720  0.0850 -0.2056
22011W        W38272   1.256  12.376  14.562 -0.4172  0.0896  0.2511
22012W        W38273  13.154   7.717   1.076  0.1018 -0.0673  0.0790
22013W        W38274  15.467  16.859   4.495  0.0149 -0.0646  0.2154
22014W        W38275   2.683  12.023  15.847  0.1918 -0.2107  0.1266
22015W        W38276   6.518   4.751   3.936  0.2702  0.4167  0.0098
22016W        W38277   3.773  15.396  11.750  0.3542 -0.0966 -0.0306
22017W        W38278   1.343  15.969  13.698 -0.0445 -0.1902 -0.0430
22018W        W38279   6.356   5.586   1.963  0.0902 -0.3290  0.2127
22019W        W38280   7.113  10.335  11.275 -0.1639  0.1952 -0.2235
22020W        W38281  16.317  11.591  11.256 -0.1307 -0.3539 -0.1248
22021W        W38282   7.988   0.570   1.976 -0.3369 -0.3217 -0.1887
22022W        W38283   9.436   7.275   1.643 -0.2532  0.1887 -0.1107
22023W        W38284  15.758   6.154  12.462 -0.2649  0.3547 -0.0653
22024W        W38285   9.028  13.341   4.868  0.1044  0.0663 -0.0607
22025W        W38286  11.979  16.074   4.636  0.0484  0.1182  0.0045
22026W        W38287  16.457  10.802   3.846 -0.3126  0.0095  0.2434
22027W        W38288  17.301   9.926  13.601 -0.3118 -0.0749  0.1414
22028W        W38289  17.163   0.376   0.364  0.0319  0.2272 -0.1185
22029W        W38290   2.096   8.602  12.905  0.1815 -0.0089  0.1440
22030W        W38291  15.543   1.917  11.519  0.0128 -0.3587 -0.3994
22031W        W38292   6.126  12.217   1.276  0.1121 -0.1647 -0.1881
22032W        W38293   2.125  16.271  12.993  0.3879 -0.2083 -0.2135
22033W        W38294  18.246  12.060   1.170 -0.1247 -0.0813 -0.1586
22034W        W38295   4.912   0.195   4.013 -0.1754  0.0690  0.1938
22035W        W38296   7.881   1.999  13.661  0.0174 -0.0488 -0.1191
22036W        W38297   9.058  11.472   2.623  0.0157 -0.1672  0.0573
22037W        W38298   7.009   8.903   0.528 -0.0691  0.2569  0.0417
22038W        W38299   5.748  10.306  12.089  0.0640 -0.0036  0.0905
22039W        W38300  15.150   1.879  12.290 -0.1959 -0.3097 -0.4663
22040W        W38301   8.884  12.780  12.561  0.5651  0.2635  0.0924
22041W        W38302   3.160   6.696   2.225  0.0035 -0.1838 -0.2489
22042W        W38303  10.544   1.560   0.097  0.1183  0.0660 -0.0369
22043W        W38304  13.613   5.378  13.104  0.0556 -0.3431  0.1020
22044W        W38305  17.234   9.071  12.843 -0.0111 -0.1804 -0.1610
22045W        W38306   1.989   8.353  14.934  0.1162  0.0006  0.1770
22046W        W38307  17.438   4.040  13.122  0.1655  0.1905  0.1668
22047W        W38308  15.226   6.827  15.993  0.0377 -0.3977 -0.2215
22048W        W38309   9.540  12.796  14.279  0.0681  0.1075  0.0400
22049W        W38310  15.794   6.600   4.381 -0.3309 -0.1217  0.0046
22050W        W38311  13.909   5.580   5.417  0.1400 -0.0847  0.0854
22051W        W38312  14.241   6.556   2.619 -0.0493 -0.1709 -0.0545
22052W        W38313  13.388   9.305   0.870  0.3250 -0.0772  0.1526
22053W        W38314   1.741   3.141  14.902 -0.1913 -0.3067  0.1819
22054W        W38315   8.211   9.573   2.881 -0.3638 -0.0674  0.2566
22055W        W38316  17.008   0.391   3.068  0.1839  0.1713 -0.3375
22056W        W38317   2.097   6.590   4.349  0.2707 -0.0648 -0.0926
22057W        W38318   1.841  11.755   1.185  0.0383  0.1038 -0.0945
22058W        W38319   5.965  12.314  16.055 -0.2353 -0.0449  0.0629
22059W        W38320  11.841   5.933  16.205 -0.0273 -0.1630  0.1255
22060W        W38321  10.402   4.592   2.872 -0.0982  0.0079 -0.2082
22061W        W38322   1.942  12.242  11.995  0.1505  0.2352 -0.0224
22062W        W38323  17.220   6.300   4.141  0.1022 -0.1750  0.3850
22063W        W38324   3.413  16.941   4.744  0.0970  0.2610 -0.1071
22064W        W38325   0.591  15.964  14.171  0.1973 -0.0671 -0.1151
22065W        W38326  15.446  12.015  14.821  0.1228  0.2086 -0.3040
22066W        W38327  10.587  10.636   5.307  0.1921 -0.4114 -0.0454
22067W        W38328   6.735  18.332  15.816 -0.0487 -0.1097  0.1378
22068W        W38329  14.281   9.565  13.561  0.1293  0.0091  0.5522
22069W        W38330   6.671   2.739   0.754 -0.0100 -0.3004 -0.2968
22070W        W38331  12.904   1.536   1.373 -0.0042 -0.1571 -0.2222
22071W        W38332  11.503  16.993   5.348 -0.4042  0.0141 -0.0340
22072W        W38333  18.173  17.909   4.236 -0.3732  0.1271  0.0979
22073W        W38334  10.285   3.630  13.811 -0.1705  0.0216 -0.0223
22074W        W38335   8.304  10.543   5.258  0.0064 -0.0522  0.0811
22075W        W38336   8.679   7.096   3.700  0.1669 -0.0788  0.0440
22076W        W38337   6.319  11.123  12.010  0.1391 -0.2569 -0.2065
22077W        W38338   3.583   7.921  14.086 -0.0059  0.0017 -0.3155
22078W        W38339  10.106  13.868   2.948  0.2608 -0.4053  0.1047
22079W        W38340   2.407  15.979   4.627  0.3316  0.0295 -0.0072
22080W        W38341   2.411  18.215   5.930 -0.0037 -0.3085 -0.1748
22081W        W38342   8.626   8.128  11.747 -0.0126 -0.0360  0.1220
22082W        W38343   3.450  17.142   3.681  0.0057  0.0526  0.1264
22083W        W38344   9.654   5.519  10.954 -0.1030  0.0575  0.0817
22084W        W38345   1.600  10.391   0.815 -0.2272 -0.3098 -0.2384
22085W        W38346   6.926  13.134   1.626  0.1671 -0.2528 -0.0473
22086W        W38347   2.366   7.804  13.247  0.2460  0.3281 -0.4451
22087W        W38348   3.495  15.795  12.009 -0.0811  0.1939  0.1029
22088W        W38349  14.905   2.406  15.552 -0.3012  0.2551 -0.0438
22089W        W38350   5.210   8.148  11.720 -0.0430  0.1165 -0.1140
22090W        W38351   8.040   6.508  13.929  0.1065  0.0452  0.0133
22091W        W38352   8.505   7.600   3.514 -0.2424 -0.2417 -0.1445
22092W        W38353   5.956  15.910  14.120 -0.0792  0.0671  0.3012
22093W        W38354   0.419   3.388  15.196  0.2611  0.0639  0.1530
22094W        W38355   7.470  18.230   5.044  0.0013 -0.0966 -0.1017
22095W        W38356  10.598  11.606  15.569 -0.2553 -0.0484 -0.0303
22096W        W38357   7.797  10.898   3.965  0.1670 -0.0763  0.0067
22097W        W38358  11.876   0.729   4.647  0.4029 -0.0835  0.1477
22098W        W38359  11.759  17.439  12.747 -0.0260  0.4340  0.1706
22099W        W38360   6.991  16.239   3.425 -0.1297  0.2953  0.4124
22100W        W38361  14.122   5.460  13.244  0.2418 -0.1809 -0.1365
22101W        W38362  13.695   0.609   5.505  0.0860 -0.0304  0.2038
22102W        W38363   3.722  14.625   0.588  0.1272  0.1980  0.0313
22103W        W38364   5.203  16.989  11.554 -0.1539  0.1533 -0.0348
22104W        W38365   3.359   2.470   3.949  0.0873  0.0304 -0.0263
22105W        W38366   7.663  18.038   2.866 -0.0975 -0.0602  0.1132
22106W        W38367   8.034  13.237   4.369  0.1235 -0.2862 -0.0270
22107W        W38368  18.236   0.615   3.735  0.0778  0.0128 -0.0311
22108W        W38369   0.935  17.530  14.848 -0.0985 -0.4423  0.0965
22109W        W38370   4.583   9.701   3.696 -0.2860 -0.1335 -0.0423
22110W        W38371  18.222   8.675  12.171  0.1121 -0.1456 -0.4362
22111W        W38372   5.425   4.069   4.788  0.2811 -0.0926  0.2762
22112W        W38373   8.465   3.988   4.465  0.2225  0.0674  0.0006
22113W        W38374   0.073  12.638   0.433 -0.0835 -0.2342  0.3427
22114W        W38375  13.258   1.697  15.485  0.1364 -0.2204  0.3060
22115W        W38376   6.944  10.392  13.244 -0.1417  0.0169  0.1044
22116W        W38377   5.443  15.750  12.148  0.3147 -0.1535  0.3886
22117W        W38378   4.339   1.635   3.278 -0.2334  0.3137  0.2707
22118W        W38379  16.701   2.912   1.362 -0.0737 -0.4137 -0.0740
22119W        W38380   9.542  16.138  13.702  0.2409  0.1377 -0.0766
22120W        W38381   1.367   4.035   2.930  0.0482 -0.3440 -0.2036
22121W        W38382   8.998  13.343   2.478 -0.0184  0.2868 -0.1911
22122W        W38383   8.182   2.304   4.724 -0.1929  0.2044 -0.2754
22123W        W38384   2.263  13.244   3.680  0.1197 -0.1200 -0.0222
22124W        W38385  12.192   7.403  16.033 -0.4055 -0.0731 -0.3256
22125W        W38386   7.061   4.485  13.818 -0.3910  0.0492  0.2712
22126W        W38387   1.646   0.836   0.405  0.0897  0.1656 -0.1765
22127W        W38388  15.405   7.555   1.367 -0.0940 -0.3605 -0.2171
22128W        W38389  16.259  16.868   2.049 -0.1616  0.1249  0.0403
22129W        W38390   6.550  16.720   2.567 -0.4956 -0.1322 -0.0681
22130W        W38391  12.122  16.219   5.087 -0.1152  0.2299 -0.0565
22131W        W38392  14.252   1.177   3.715 -0.0055  0.0073  0.2082
22132W        W38393  11.883  12.199  15.024  0.2491  0.0261  0.0037
22133W        W38394  10.181  15.031   2.992 -0.2030 -0.1151 -0.3145
22134W        W38395   0.779  10.687   0.723 -0.0217 -0.1372  0.0382
22135W        W38396   9.730   8.614   2.360  0.0505 -0.1024 -0.1184
22136W        W38397   9.184  17.656  13.061  0.1153  0.2657  0.0889
22137W        W38398   4.048  18.145   4.368 -0.0951 -0.2342  0.3918
22138W        W38399   3.944  17.215   2.744  0.0985  0.5187 -0.2556
22139W        W38400   3.275   1.377   4.799 -0.0870  0.1764  0.0333
22140W        W38401   9.813   2.820   5.491  0.2068 -0.1449 -0.0506
22141W        W38402   7.917   5.951   3.530 -0.2354 -0.0573  0.1767
22142W        W38403  16.530   7.378   2.716  0.1651  0.0752 -0.4637
22143W        W38404   8.166  12.367   1.871  0.0475 -0.0238  0.0715
22144W        W38405  17.238  12.475   2.157 -0.0365  0.0207  0.0156
22145W        W38406   9.900   5.876  11.452  0.0511 -0.2233 -0.0383
22146W        W38407   6.999   9.036  14.088 -0.1494 -0.3318 -0.2771
22147W        W38408  17.933   5.598   0.415  0.0853 -0.3711  0.1152
22148W        W38409   3.290   2.673  16.072  0.1540 -0.1816 -0.0965
22149W        W38410  12.935  11.701   2.577 -0.2106 -0.3139 -0.1471
22150W        W38411  13.543   7.383   1.211  0.4063  0.2148 -0.0362
22151W        W38412   5.487  11.695   0.485 -0.1484  0.3210  0.0690
22152W        W38413  11.521   6.683   0.889 -0.0312 -0.0064 -0.0858
22153W        W38414   4.138  10.799  11.426  0.2676  0.0082  0.0142
22154W        W38415  15.120   1.679  13.661  0.0334  0.2509  0.2453
22155W        W38416   0.015   9.604  13.567 -0.0368  0.2024  0.0671
22156W        W38417  10.482  11.736   2.679 -0.1437  0.4102  0.1417
22157W        W38418  18.204  12.146  11.518 -0.0444  0.3630 -0.1195
22158W        W38419  11.479  17.233   1.585 -0.1860  0.3958  0.1997
22159W        W38420  10.652   6.586   2.566 -0.1970  0.0459 -0.1106
22160W        W38421   4.559   8.181   5.472  0.0577  0.2061  0.1326
22161W        W38422  10.576   7.731   5.147 -0.0406  0.0560  0.1029
22162W        W38423   8.095   3.291   3.901 -0.2127  0.0939  0.2974
22163W        W38424   7.317   6.965  15.142 -0.3953 -0.2200 -0.0847
22164W        W38425   7.835  12.274   4.556  0.0276  0.1502 -0.0447
22165W        W38426   2.406  10.571   2.953 -0.0242  0.2351 -0.2961
22166W        W38427  16.327   3.875   2.213 -0.0331 -0.1188 -0.3370
22167W        W38428  13.350   0.656  13.253  0.1951 -0.2474 -0.1195
22168W        W38429  16.350  15.820  12.566  0.0696  0.2044 -0.0692
22169W        W38430   7.205   2.882  11.775 -0.1041  0.1029  0.2011
22170W        W38431   2.744  16.699  13.849 -0.5819 -0.0119 -0.2388
22171W        W38432   5.617   5.472  12.213 -0.1987 -0.0118  0.1127
22172W        W38433  10.633  11.426  13.966 -0.1071  0.0272  0.0367
22173W        W38434  14.703  13.492  14.054 -0.0222  0.2110 -0.0927
22174W        W38435  12.680   8.307  14.631 -0.2556  0.1447 -0.2566
22175W        W38436   6.040   4.512   4.089 -0.0085  0.0074 -0.3582
22176W        W38437  10.797  14.774  10.666  0.1686 -0.1022 -0.0041
22177W        W38438  10.712  17.730  16.261  0.1022 -0.2848 -0.1515
22178W        W38439   9.558   7.256   5.646  0.0123  0.0211 -0.0142
22179W        W38440   3.585   4.838   2.361  0.3022  0.0028  0.1822
22180W        W38441   8.110   7.551   3.888 -0.2358  0.0410  0.0506
22181W        W38442   4.119   1.612  13.526  0.2831 -0.3827  0.2207
22182W        W38443   7.544  13.394   5.243  0.0132 -0.0453 -0.1251
22183W        W38444   1.418   1.994   4.323 -0.1636 -0.1585 -0.5277
22184W        W38445  17.831   6.508   0.252 -0.0985  0.2650 -0.1086
22185W        W38446  16.893   5.555   4.822  0.1332  0.3499  0.0115
22186W        W38447   2.108   6.411   0.658 -0.2121 -0.0868 -0.1360
22187W        W38448  16.816  10.825  12.676  0.0017  0.2106  0.2402
22188W        W38449  17.716   7.819  13.449  0.4292 -0.2291  0.1011
22189W        W38450   3.238  12.172   3.900  0.0701  0.2298 -0.5392
22190W        W38451  11.880  13.311   3.029 -0.0469 -0.1281 -0.2494
22191W        W38452   3.974   8.745  16.034  0.0391 -0.2702 -0.0632
22192W        W38453   4.027  11.405  13.395  0.0630 -0.0872  0.0844
22193W        W38454  10.466   1.919  15.054  0.6643  0.0504 -0.0502
22194W        W38455   0.636   0.470  10.930  0.0946 -0.2795 -0.1399
22195W        W38456   8.541   6.584   4.510  0.0928  0.4657  0.5402
22196W        W38457  14.164   3.420   5.472 -0.3731 -0.4049 -0.2107
22197W        W38458  14.745  16.598   0.116  0.1267 -0.2443  0.0123
22198W        W38459  10.547   0.742   5.142  0.1060 -0.2313 -0.1093
22199W        W38460  18.063  13.959   2.598  0.1314  0.1777  0.1262
22200W        W38461   2.361   5.426   0.600  0.2319  0.0738  0.0216
22201W        W38462   3.449   9.180  10.244  0.1091  0.0772  0.1264
22202W        W38463   0.296  16.521  12.499  0.0209  0.2167 -0.2163
22203W        W38464   4.953   4.446   1.630  0.0200  0.2319  0.1545
22204W        W38465   3.402   6.677  15.814 -0.1130 -0.0341  0.0910
22205W        W38466   5.214   4.825   2.441 -0.0904  0.1522 -0.1579
22206W        W38467  12.057   1.855   1.515 -0.1613 -0.2492 -0.1585
22207W        W38468   4.446   9.367  15.000  0.0766  0.0943  0.2332
22208W        W38469   7.694  13.033   2.729 -0.3058  0.0083 -0.1653
22209W        W38470  13.330   8.373   1.694 -0.2844  0.0016 -0.1251
22210W        W38471  10.198  10.310   4.018 -0.1635  0.2947 -0.0897
22211W        W38472   2.657   8.632  13.172 -0.0671  0.1035 -0.0158
22212W        W38473   1.478   6.181   3.717 -0.0794 -0.1776  0.2083
22213W        W38474   3.142  16.139   3.617 -0.2040 -0.0794 -0.0578
22214W        W38475   1.042   4.793   0.158 -0.1623  0.4245  0.2722
22215W        W38476   2.909   9.616  12.251  0.0061  0.2257  0.3062
22216W        W38477  10.116   4.746  15.480 -0.1701  0.0198 -0.1805
22217W        W38478  14.137  14.551   0.074 -0.0177  0.2335 -0.0099
22218W        W38479   8.106   8.039   2.828  0.1965  0.2230  0.1893
22219W        W38480  11.862   1.191   1.332 -0.3107 -0.1493 -0.3058
22220W        W38481  13.109   5.959   4.572 -0.0348 -0.0744  0.0402
22221W        W38482   4.468   9.947   4.189  0.0646 -0.1485 -0.2019
22222W        W38483  18.197   9.093  15.692  0.2071 -0.1247  0.2030
22223W        W38484  12.490  14.848   2.958 -0.0166 -0.1489  0.1103
22224W        W38485   6.440   9.901   3.657 -0.0029 -0.0689  0.0889
22225W        W38486  16.571   3.143   5.524  0.0396  0.4803  0.4133
22226W        W38487   0.131  14.712  12.924 -0.4813  0.1362  0.1655
22227W        W38488  12.472   1.642   4.734 -0.0442  0.0137  0.0661
22228W        W38489  10.648   8.660   3.093  0.0414 -0.0829 -0.2492
22229W        W38490  15.485   9.056  15.435 -0.0579 -0.2096 -0.1832
22230W        W38491   7.747   8.107   4.629 -0.0237 -0.0295  0.1457
22231W        W38492  16.580   7.420  15.703  0.1606 -0.1436  0.0568
22232W        W38493   7.334  10.822  12.584 -0.4886  0.1988  0.0600
22233W        W38494   5.594  10.602  13.653  0.0373  0.0565 -0.2372
22234W        W38495  11.876  11.130  13.572  0.1005  0.1571 -0.2527
22235W        W38496   9.365  11.133  12.496 -0.2220 -0.2641 -0.2226
22236W        W38497  12.737   2.602   3.950  0.5183 -0.2055  0.1372
22237W        W38498   5.895  17.329  15.722  0.2027  0.2519 -0.2066
22238W        W38499  14.507  18.206   3.985  0.0457  0.0509 -0.1599
22239W        W38500   4.231   8.575  10.875  0.1610 -0.1275  0.0737
22240W        W38501   1.942  12.096   2.493 -0.0441 -0.4068 -0.0619
22241W        W38502  15.246   8.746   4.907 -0.1903 -0.3385 -0.0635
22242W        W38503   7.819   9.678  11.171  0.0440 -0.0175  0.0594
22243W        W38504   5.041  15.643   2.694 -0.0434 -0.0480 -0.3381
22244W        W38505   9.771  12.707   4.655 -0.1143  0.3320 -0.4495
22245W        W38506  11.434   7.220   0.951 -0.1166  0.0579 -0.1139
22246W        W38507   3.391   1.536   0.569 -0.1578  0.3155  0.0555
22247W        W38508   2.645   3.361  13.696 -0.1725 -0.2276 -0.0648
22248W        W38509  14.368  10.910  13.242  0.2743 -0.1946  0.2527
22249W        W38510   8.531   5.254  12.352 -0.2836  0.2127 -0.1242
22250W        W38511   2.724  16.181   3.238  0.2714 -0.3783 -0.1950
22251W        W38512   9.389   5.129  13.706 -0.0446  0.1267 -0.1366
22252W        W38513  17.077  10.436  12.814 -0.1485  0.0356  0.0173
22253W        W38514  14.249   6.547   5.627  0.1362 -0.1645 -0.0214
22254W        W38515   3.008  14.903   5.089  0.0908 -0.0751 -0.1486
22255W        W38516   0.314  16.781  13.121 -0.1938 -0.2319  0.0047
22256W        W38517  14.162   0.897  14.624  0.3014 -0.2488  0.1076
22257W        W38518   0.558   0.226   4.129  0.1206  0.1429 -0.1214
22258W        W38519  17.029   7.267   4.352  0.3063 -0.1036  0.2820
22259W        W38520   4.765   0.945   6.146 -0.1297 -0.0610 -0.0282
22260W        W38521  17.701   5.079  12.682 -0.1036  0.2493 -0.2554
22261W        W38522  17.711  10.324   4.328 -0.1824 -0.1616 -0.1176
22262W        W38523  12.750   8.226   3.767  0.0497  0.1449  0.1130
22263W        W38524   1.103   6.704   5.402  0.0613 -0.1176 -0.3560
22264W        W38525   1.945   9.378   5.588 -0.1874  0.1588 -0.2335
22265W        W38526   6.455   7.235   3.542 -0.1727  0.1620  0.0742
22266W        W38527   3.506  16.202   1.644 -0.4177 -0.0976 -0.2113
22267W        W38528  13.582   7.943   0.967  0.0544 -0.0692  0.4640
22268W        W38529  11.093  14.994   4.351  0.1495 -0.0686  0.1803
22269W        W38530   9.682  12.882  14.753  0.1285  0.2937 -0.2673
22270W        W38531   7.400   2.663  16.297 -0.1321  0.0426 -0.1441
22271W        W38532   5.161  10.193  14.374  0.3200  0.0059  0.3553
22272W        W38533  14.290   9.146  10.493 -0.1276  0.0604  0.4537
22273W        W38534   7.827   1.273   2.411  0.1383  0.0186  0.1416
22274W        W38535   9.590   1.742   0.250  0.0177  0.0877  0.0129
22275W        W38536  16.834   2.353  16.017  0.0255  0.1365 -0.0960
22276W        W38537  15.966   3.856  12.925  0.0173 -0.0866 -0.1506
22277W        W38538  17.047   8.803   3.277  0.1781 -0.1616  0.1652
22278W        W38539  12.464  17.741   1.927  0.1474 -0.1238 -0.1030
22279W        W38540   8.370  11.475   1.829 -0.2929 -0.0875 -0.1975
22280W        W38541   3.956  14.106  12.823  0.2066 -0.0367 -0.2124
22281W        W38542   0.835   8.742  13.686  0.0716  0.1264 -0.3847
22282W        W38543   1.878   1.374  15.575 -0.1560 -0.3938  0.2642
22283W        W38544   8.314  16.888   4.202  0.0936 -0.1039  0.1256
22284W        W38545   6.031  15.049   2.359  0.0249  0.0405 -0.0206
22285W        W38546  15.589  13.774   4.028  0.4039  0.1777 -0.0282
22286W        W38547  16.627  18.250   4.645 -0.0840  0.1195 -0.2313
22287W        W38548   5.180   6.056   5.269  0.1866 -0.1414 -0.2576
22288W        W38549  18.361   8.813   1.344 -0.2227 -0.3878 -0.0024
22289W        W38550   6.593   6.692   3.377 -0.1763  0.2034  0.2937
22290W        W38551   3.490  11.341  13.407  0.2107 -0.0877 -0.3201
22291W        W38552   9.410  16.731  15.116  0.1866 -0.0153  0.1630
22292W        W38553  15.462  12.701  12.680 -0.0666  0.1674 -0.0003
22293W        W38554  11.027  17.041  11.693 -0.0786  0.0427 -0.3169
22294W        W38555   6.626  17.997  14.707 -0.0409  0.2825  0.1221
22295W        W38556   7.782   2.013  11.478 -0.0019 -0.1135 -0.0311
22296W        W38557  16.162   9.504   5.263  0.1071 -0.0757 -0.1275
22297W        W38558   6.769  11.882   0.859  0.0244 -0.2186 -0.0902
22298W        W38559  10.532  13.604  13.451 -0.0351  0.0872 -0.4217
22299W        W38560   0.733  10.156  13.582  0.0023  0.1448  0.2246
22300W        W38561   4.061   7.975  15.720  0.1994 -0.2054 -0.2459
22301W        W38562   1.475  17.328   0.528 -0.0933  0.0897 -0.1529
22302W        W38563   5.032  14.853  16.275  0.0553  0.0650 -0.0263
22303W        W38564  18.097   8.663  16.012  0.1506  0.2771  0.0670
22304W        W38565   1.103  15.523   0.981  0.0399  0.0125  0.0286
22305W        W38566  15.453   3.610   6.171 -0.0192  0.2522 -0.2121
22306W        W38567   5.056   6.118   3.041  0.1402  0.1129  0.0792
22307W        W38568  14.572   3.942   2.839  0.1014  0.3866  0.0094
22308W        W38569   7.298   1.183  14.231  0.2393  0.2810  0.0495
22309W        W38570   5.613  11.382   2.890 -0.2951 -0.0057 -0.3320
22310W        W38571  18.319  14.734  14.485 -0.3837 -0.1414 -0.0188
22311W        W38572   6.171  15.103  11.075 -0.1741 -0.1990  0.0462
22312W        W38573  13.455  12.058   4.620 -0.0612  0.3767 -0.0973
22313W        W38574   8.104  16.476   3.721 -0.1503  0.1110  0.0920
22314W        W38575  15.844  17.773   3.657  0.1580 -0.1898  0.3027
22315W        W38576  16.685  15.271  12.635  0.1431 -0.0544  0.0565
22316W        W38577   6.339   4.531  15.543  0.1260 -0.0155  0.2214
22317W        W38578   6.987   3.575   4.570  0.0222  0.0293  0.0494
22318W        W38579   3.346   1.642   1.938 -0.2195 -0.0334 -0.0654
22319W        W38580  16.720   2.601  12.502 -0.3358 -0.4312 -0.1969
22320W        W38581   7.815   4.189  11.049 -0.2580 -0.2538 -0.0587
22321W        W38582  13.272   4.561   2.762  0.1116 -0.2384  0.1975
22322W        W38583   2.493  17.399  15.349 -0.1667  0.2366  0.0730
22323W        W38584  16.689  10.106  15.366 -0.0526 -0.1316  0.4159
22324W        W38585   0.231   7.768   5.469 -0.0012  0.2832 -0.0453
22325W        W38586  18.134   2.819   5.473  0.3146  0.0731  0.3270
22326W        W38587   6.600  12.131  13.491 -0.1325 -0.1114  0.0273
22327W        W38588   5.940   9.660   4.979 -0.1137  0.2686 -0.0080
22328W        W38589   7.664   6.557   5.129 -0.1527  0.0759 -0.2666
22329W        W38590   1.454  12.569   5.552 -0.1985  0.0679 -0.2494
22330W        W38591  11.709   6.049  14.800  0.0205 -0.3624 -0.2871
22331W        W38592   1.806  11.298  15.998  0.4820 -0.1042 -0.1339
22332W        W38593  13.078   7.223  15.898  0.0750 -0.0684  0.2063
22333W        W38594  13.299   9.357  16.224 -0.0690  0.1801  0.3671
22334W        W38595   3.033   8.636   2.762 -0.2476 -0.1576  0.0113
22335W        W38596   8.870   2.032   0.490 -0.0377  0.2649 -0.0235
22336W        W38597   2.683  10.903  11.846 -0.1545  0.1206 -0.1058
22337W        W38598  16.500  13.062   2.086 -0.1269 -0.0016 -0.0937
22338W        W38599   8.117  12.016  10.791 -0.2554  0.0232 -0.0977
22339W        W38600  18.078  16.578  15.577 -0.0004 -0.3911 -0.0378
22340W        W38601   8.692   7.896  14.216 -0.1220  0.0192  0.4150
22341W        W38602   2.902   7.803  12.282  0.0095  0.0242  0.2219
22342W        W38603  17.556   6.678   2.457  0.4247 -0.1990 -0.0861
22343W        W38604   2.675   1.960  12.123 -0.1015  0.1478 -0.0722
22344W        W38605  17.303   4.164  14.734 -0.5340  0.1133  0.0722
22345W        W38606  13.371  10.743   1.666  0.2794 -0.1653 -0.1600
22346W        W38607  18.151   4.645  15.214 -0.1936  0.0551 -0.0388
22347W        W38608   0.223   7.150   5.339 -0.0235 -0.0421  0.1710
22348W        W38609  14.647  11.242  16.071  0.1693 -0.1304 -0.1436
22349W        W38610   1.047   1.849   5.831  0.2092  0.0211  0.0913
22350W        W38611   1.820   5.907  11.936 -0.2523 -0.0768  0.1778
22351W        W38612   0.484   3.486   5.572  0.2069  0.2252  0.2909
22352W        W38613  10.567   3.879  12.408 -0.1008 -0.1266 -0.0746
22353W        W38614   6.622  16.683   0.804 -0.0796  0.2385 -0.1940
22354W        W38615  17.302  11.490  13.334 -0.4890 -0.0612  0.2321
22355W        W38616  11.203   8.860   0.116  0.0142 -0.0627  0.1728
22356W        W38617  18.146  10.079  12.131 -0.3037 -0.1627 -0.0452
22357W        W38618  10.904  17.482  12.689  0.2107 -0.0658  0.0260
22358W        W38619  16.361  12.869   3.250 -0.1193  0.3414 -0.1257
22359W        W38620  15.351   7.161  12.552 -0.0001  0.2102  0.2069
22360W        W38621   6.329  14.210  12.024 -0.2969  0.1544  0.1278
22361W        W38622   6.865   8.459  12.782  0.3808  0.0660 -0.0459
22362W        W38623   9.605   7.720   4.581  0.0962  0.2854  0.1250
22363W        W38624  13.773  16.901  12.382 -0.1565 -0.1013  0.1429
22364W        W38625   0.155   6.334  15.651  0.1058 -0.0487  0.0579
22365W        W38626  18.265   9.097   2.520 -0.0468  0.2442 -0.0414
22366W        W38627  17.387   5.155   3.783  0.3898 -0.0372 -0.1205
22367W        W38628   4.810  14.835  13.674  0.2698  0.3099  0.2183
22368W        W38629  12.961   1.603  14.908 -0.2264  0.0282  0.0771
22369W        W38630   1.346   7.323  12.367 -0.3132  0.0017  0.1785
22370W        W38631  15.279  17.732  11.529 -0.1687 -0.1042  0.2845
22371W        W38632   6.396  15.116  12.751  0.0872  0.1375 -0.1566
22372W        W38633   2.221   2.314   3.239  0.2945  0.1390 -0.0220
22373W        W38634   9.737   3.906   0.399  0.1670  0.2701 -0.0255
22374W        W38635   7.456  15.209   1.923  0.1986 -0.2444  0.2709
22375W        W38636  16.624  10.838  15.554  0.2279  0.0118 -0.0513
22376W        W38637   4.871   1.520   2.641  0.0640 -0.2623 -0.1332
22377W        W38638  16.155  15.337  12.648  0.0209  0.1608 -0.0143
22378W        W38639  12.916   9.602  15.777  0.1250  0.0532 -0.2449
22379W        W38640  15.952  15.261  15.957  0.0300  0.0532  0.1822
22380W        W38641   2.346  11.643   5.210 -0.0127 -0.0644 -0.1749
22381W        W38642   4.693  16.604  14.414 -0.0611  0.0543 -0.0721
22382W        W38643   0.271   4.288  13.958  0.0563 -0.0244  0.0399
22383W        W38644  11.246   4.493   1.223  0.0046 -0.0199 -0.1114
22384W        W38645   9.094   0.187   3.927  0.3657 -0.2553  0.2033
22385W        W38646  12.903   3.854  11.683 -0.2156  0.3721 -0.2312
22386W        W38647  16.515  14.910  14.805 -0.1843  0.0412  0.1160
22387W        W38648  16.241  11.816   0.083  0.6785 -0.2414  0.0324
22388W        W38649  12.867   7.603  14.696 -0.1197  0.2841 -0.1009
22389W        W38650   2.817   5.912   2.706 -0.1495  0.1654 -0.0666
22390W        W38651  17.991  11.165   2.173 -0.0678  0.0904 -0.1809
22391W        W38652  15.988   0.676   3.090 -0.0535 -0.0561  0.0353
22392W        W38653   9.787  10.639  15.805  0.0387  0.0318 -0.2532
22393W        W38654  12.333   9.259  11.185  0.1289 -0.3547 -0.1555
22394W        W38655   8.702   0.526   5.221 -0.0203  0.1651 -0.0097
22395W        W38656   7.958  14.879   0.938 -0.5637 -0.1835 -0.1501
22396W        W38657   8.190  14.676   1.407 -0.2290 -0.0548  0.0207
22397W        W38658  12.988  16.553   3.882  0.0482  0.1497 -0.0306
22398W        W38659  16.160  14.804   3.202 -0.1880  0.1360 -0.1399
22399W        W38660   8.781   3.313   4.995  0.2444  0.3656 -0.1339
22400W        W38661  12.814  16.068   0.806 -0.1234  0.0753  0.3008
22401W        W38662   2.694  12.491   5.188  0.0615  0.2340 -0.4406
22402W        W38663   7.939   4.315  13.673  0.0043 -0.2585  0.3037
22403W        W38664   2.711   7.965  15.011 -0.0250 -0.1134  0.3567
22404W        W38665   2.046  13.204  13.734 -0.0259 -0.1222 -0.3066
22405W        W38666  13.037  16.633   5.811  0.0951 -0.1777  0.2605
22406W        W38667   3.690   9.940   4.128 -0.2682 -0.0138 -0.0704
22407W        W38668  17.649   4.876   0.424 -0.0897  0.1244  0.1603
22408W        W38669   2.263   7.103   4.876 -0.1030 -0.1845  0.1771
22409W        W38670  17.263  13.672   1.785  0.1592 -0.1600  0.2068
22410W        W38671  11.567   7.424   3.820 -0.1331 -0.1187  0.2389
22411W        W38672  14.591  13.953  15.664  0.0357  0.3463  0.0060
22412W        W38673   0.098  18.259  14.582  0.1291  0.0421 -0.2167
22413W        W38674   7.245  16.595   0.213 -0.0966 -0.1061  0.1097
22414W        W38675  17.593   7.827   0.952 -0.2809 -0.2586  0.2252
22415W        W38676  14.945   6.816   3.456  0.1460 -0.2043 -0.2342
22416W        W38677   7.539   9.270  11.115 -0.2743 -0.0163  0.0360
22417W        W38678   9.655   9.145   1.245  0.0724 -0.2724 -0.1832
22418W        W38679  15.481  10.448   1.085 -0.1416 -0.1856 -0.1404
22419W        W38680   8.942   9.581  10.658  0.1049  0.0490 -0.0633
22420W        W38681   6.279  17.401   4.146  0.0999  0.0836  0.4175
22421W        W38682  13.471   8.373   3.953  0.0959 -0.2304 -0.0328
22422W        W38683  11.384   8.853   1.806 -0.1121 -0.0356 -0.0224
22423W        W38684  14.492  16.321  14.011 -0.1831  0.1419 -0.0350
22424W        W38685  18.170  15.618   1.228  0.1546  0.1096  0.2023
22425W        W38686  17.940  13.922   3.855  0.0211  0.0082 -0.1050
22426W        W38687   4.603  16.583   4.660  0.1272  0.1862  0.3140
22427W        W38688  16.208   1.278   5.228  0.2066  0.2612 -0.2827
22428W        W38689  18.067   8.087  13.162  0.1613 -0.0741  0.2933
22429W        W38690   1.772  16.502  14.985  0.2352 -0.1974  0.0603
22430W        W38691   7.294   1.259  11.342  0.0678 -0.1355  0.1689
22431W        W38692  17.084  18.313   0.189  0.0534 -0.2380  0.1093
22432W        W38693   2.469   6.729  13.845  0.1447 -0.0020 -0.1935
22433W        W38694  14.691   4.184   4.614 -0.1821  0.1479  0.1556
22434W        W38695  12.680  13.881   3.307 -0.1876  0.0723  0.1314
22435W        W38696  10.811  18.143  14.908 -0.2477 -0.1532  0.3201
22436W        W38697   9.424   5.040  11.755 -0.1645 -0.1348 -0.1942
22437W        W38698  13.720  15.109  11.424  0.0060  0.0012  0.0318
22438W        W38699   0.737  13.873  11.941  0.3255  0.3864 -0.2069
22439W        W38700   9.301  14.120   4.938  0.2868 -0.0981  0.1106
22440W        W38701  12.291   2.340   1.282  0.1890 -0.3097 -0.0360
22441W        W38702  11.167   1.187  13.120 -0.4094 -0.0134 -0.0024
22442W        W38703   6.868  12.551  11.668  0.2541  0.1086  0.0289
22443W        W38704  12.979   8.960   4.821  0.1738  0.1357  0.0435
22444W        W38705  10.496   5.719   4.822  0.0938 -0.1919 -0.0155
22445W        W38706  10.697   7.649  10.958  0.0544 -0.0362 -0.0446
22446W        W38707  17.272  11.536   3.984  0.1675  0.1793  0.2779
22447W        W38708   2.861   1.202   4.538 -0.0076  0.1867 -0.1292
22448W        W38709   2.906  13.676  11.468 -0.0216  0.0097  0.1320
22449W        W38710  12.322   2.721   1.607 -0.2778  0.1105 -0.1250
22450W        W38711  13.180  11.257   3.508  0.1921  0.0754 -0.1252
22451W        W38712   5.605   3.979  15.947  0.0550 -0.2288  0.0232
22452W        W38713  11.806   5.639  15.580 -0.4623 -0.1731 -0.0563
22453W        W38714   9.436  14.481  16.144  0.0494  0.3491 -0.0731
22454W        W38715   8.602   2.970   3.165 -0.1839 -0.2614  0.1995
22455W        W38716   1.510   6.554   0.852 -0.1936  0.3700  0.1855
22456W        W38717   8.055   5.179  10.921 -0.1486 -0.2452  0.1917
22457W        W38718   0.521   5.169  12.144 -0.0035  0.1594 -0.2883
22458W        W38719   9.729   4.338   3.554  0.1866 -0.2491  0.0090
22459W        W38720  12.899   5.209  15.803 -0.1529  0.1587 -0.1465
22460W        W38721  12.119   5.522  14.429  0.0661  0.0551 -0.2255
22461W        W38722   8.014  13.534  13.000 -0.2179 -0.2329 -0.3640
22462W        W38723  11.889  10.781  11.893  0.2252  0.0641 -0.0341
22463W        W38724   4.794  14.143  11.850 -0.2103  0.0991 -0.0398
22464W        W38725  10.061   7.988   1.758 -0.2522  0.1365  0.1811
22465W        W38726   1.418   3.479   0.143  0.3910 -0.1342  0.0410
22466W        W38727  14.871  15.747   5.812 -0.1964  0.0416 -0.1481
22467W        W38728   2.692   3.451   2.280 -0.1494  0.0788  0.2027
22468W        W38729  12.940   3.028  16.282 -0.2483 -0.2878  0.0655
22469W        W38730  10.946   5.211  15.223  0.2337 -0.2591 -0.3374
22470W        W38731   7.962   8.601   3.707  0.0636  0.0872  0.0657
22471W        W38732   6.949  17.076  11.197  0.0197  0.0456 -0.0796
22472W        W38733   0.510   9.343  13.078 -0.0955 -0.4374 -0.1315
22473W        W38734   5.517  11.769   4.833 -0.0210  0.2246  0.1569
22474W        W38735   6.816  12.409  15.856  0.4695  0.0103 -0.0505
22475W        W38736   8.778   7.360  13.297 -0.0726  0.2308 -0.0633
22476W        W38737  14.112  11.558   0.588  0.1303 -0.3332  0.1068
22477W        W38738  16.848   2.906   3.206 -0.0374  0.1487  0.0800
22478W        W38739  13.022   1.158  15.929 -0.1140 -0.2148 -0.0136
22479W        W38740  15.071   9.531   1.280 -0.0731 -0.1937 -0.0809
22480W        W38741   7.167  16.615  15.510  0.2310 -0.0930  0.2587
22481W        W38742  11.030  10.801   5.427 -0.0599  0.1143 -0.1768
22482W        W38743  16.527  10.476   4.589 -0.3438 -0.0593  0.2473
22483W        W38744   4.432   2.581   4.445  0.2310 -0.4337  0.0594
22484W        W38745   4.467  15.190  12.529 -0.1421  0.1910 -0.1638
22485W        W38746   5.852   4.910   3.176  0.0143  0.3275  0.0426
22486W        W38747   5.028  17.249  15.935  0.1227  0.0594 -0.2594
22487W        W38748  14.704  11.917   3.457 -0.2858  0.1431  0.2291
22488W        W38749  10.706  13.092  14.285  0.1717  0.1906 -0.0860
22489W        W38750   1.999   1.687  13.464 -0.0046 -0.0220 -0.3731
22490W        W38751   1.113   7.548   4.252 -0.0670 -0.0060 -0.0184
22491W        W38752   2.621  16.237   1.491 -0.1025 -0.1021 -0.2488
22492W        W38753   2.816   7.173  16.233  0.0880 -0.0273 -0.0031
22493W        W38754  15.399  11.664  16.289 -0.0764 -0.1526 -0.2148
22494W        W38755   1.651  10.650  11.578 -0.0799 -0.1882  0.0742
22495W        W38756   9.625  16.223   6.088  0.0978  0.2598  0.0090
22496W        W38757   4.817   9.162  15.559 -0.0951  0.2065 -0.4720
22497W        W38758  11.107  12.263  13.405 -0.1918 -0.0672 -0.1137
22498W        W38759   8.762   8.984   1.333  0.1171  0.0345  0.1407
22499W        W38760  16.607   9.210  13.562  0.1446  0.0619 -0.1800
22500W        W38761  10.643   5.551  11.648  0.1709 -0.2261  0.0837
22501W        W38762  15.054   1.937   4.177 -0.1550  0.2505 -0.0638
22502W        W38763   8.362   7.378   5.023 -0.0424  0.2251  0.0906
22503W        W38764  14.027   0.195   2.193  0.0436 -0.1641 -0.0756
22504W        W38765  12.752   8.575  14.240 -0.0288 -0.0405  0.0175
22505W        W38766   3.291   2.929  14.530  0.6110  0.0705 -0.1486
22506W        W38767  14.732   0.246  13.568  0.0516 -0.0854  0.1080
22507W        W38768   5.974  12.268  14.671  0.2990 -0.2755 -0.1784
22508W        W38769  13.081  12.776   0.636 -0.0703 -0.2239  0.2004
22509W        W38770  15.979   4.573   0.759  0.1933  0.1237  0.0835
22510W        W38771   8.754   0.145  14.887  0.1013 -0.0134  0.2729
22511W        W38772   0.685  16.067   1.841 -0.0312  0.0194 -0.1786
22512W        W38773   4.931  16.810   2.235  0.2725 -0.0685 -0.0831
22513W        W38774   2.352  18.016   2.170  0.0066 -0.0178 -0.1283
22514W        W38775  16.276   5.344   3.088  0.0933  0.2332 -0.2223
22515W        W38776   1.551  16.822   5.065  0.0607  0.0667  0.2442
22516W        W38777   0.891   4.879  11.859 -0.1629 -0.0768  0.0722
22517W        W38778   2.041   3.361   5.539 -0.0454 -0.1138 -0.3234
22518W        W38779  11.940   6.805   0.650  0.2071  0.0771 -0.0551
22519W        W38780   4.533   2.695   1.683 -0.0156 -0.2700 -0.0139
22520W        W38781  10.223   5.677   0.488 -0.2016  0.2331  0.1337
22521W        W38782  12.814   4.220  15.129 -0.2024  0.0192  0.0575
22522W        W38783  18.319  10.418   2.440 -0.2134  0.0640  0.0366
22523W        W38784   0.113   1.091   1.433 -0.1501 -0.1525 -0.1230
22524W        W38785  12.911   5.482   6.107  0.1931  0.0085  0.1449
22525W        W38786  15.524  13.684   3.098 -0.1682 -0.1796 -0.1978
22526W        W38787   4.824   8.755   2.728 -0.1027  0.0888  0.2520
22527W        W38788   0.078   9.469  14.102  0.1633  0.3360 -0.5234
22528W        W38789  10.489   2.675  13.907  0.0277  0.1090  0.0895
22529W        W38790   1.441  17.314   5.092  0.0079 -0.2310  0.2580
22530W        W38791   6.553  13.734  15.853 -0.2918  0.0255  0.3794
22531W        W38792   6.889   9.533   0.413  0.1316 -0.2086 -0.0292
22532W        W38793   0.499   0.299   2.596  0.1624  0.0886 -0.3260
22533W        W38794  15.502  18.207   3.228 -0.0447  0.1412  0.1171
22534W        W38795  16.891  12.811  15.274  0.0861 -0.1215  0.0506
22535W        W38796  17.065  13.868  12.441 -0.3673  0.3925 -0.2585
22536W        W38797   0.724  10.630   9.901  0.0844  0.1257  0.0151
22537W        W38798  16.406  13.823   3.415  0.0968 -0.0517 -0.4186
22538W        W38799  12.961  17.724   3.282 -0.5163  0.1121 -0.1444
22539W        W38800   9.144   4.327  13.054  0.0649 -0.2022  0.3399
22540W        W38801  13.883   1.355  14.280 -0.3547  0.0085 -0.0094
22541W        W38802  15.162  10.301   3.386  0.1637 -0.0122 -0.1104
22542W        W38803  12.580  17.997   4.136 -0.1581  0.1390 -0.1609
22543W        W38804   6.914  11.018   2.294  0.1461  0.2173 -0.1251
22544W        W38805   6.010  11.304   1.273 -0.0976  0.0233 -0.1042
22545W        W38806  15.956   1.254   0.948  0.0514 -0.1264 -0.4109
22546W        W38807   3.066  13.019   2.336 -0.1706 -0.0375 -0.2450
22547W        W38808   3.322  15.169  11.677  0.2325  0.3667  0.3802
22548W        W38809   3.006  17.990  14.599 -0.0465 -0.4853  0.2389
22549W        W38810   3.375  10.531  15.570 -0.1272  0.0705 -0.1290
22550W        W38811  11.111   1.498   5.531  0.0436 -0.0271  0.0742
22551W        W38812   4.542  15.010   1.899 -0.1088  0.0979  0.0361
22552W        W38813  15.690   6.778   0.590  0.0387  0.0375  0.0407
22553W        W38814   8.621  14.645   3.901  0.5139  0.0188 -0.1324
22554W        W38815   9.302  15.356  13.514 -0.1984 -0.1219  0.0775
22555W        W38816   9.595  13.397  14.607  0.0204 -0.1513  0.2269
22556W        W38817  12.654   6.140   5.342  0.2307  0.4243 -0.2727
22557W        W38818  10.364   8.371  13.371  0.1002  0.0983 -0.1851
22558W        W38819   5.414  16.515   0.259 -0.0794  0.0299 -0.2247
22559W        W38820   5.596   7.481   1.333 -0.0834 -0.1167  0.4695
22560W        W38821   5.674   4.357   2.963 -0.0083  0.3452 -0.1004
22561W        W38822   2.014  15.646   2.859  0.0647  0.0644 -0.2979
22562W        W38823  18.190   9.462   0.246 -0.1655  0.2704  0.1452
22563W        W38824  18.099  14.113  15.911 -0.2227 -0.2578 -0.4149
22564W        W38825  13.719   5.545   4.943 -0.3808 -0.3386 -0.1089
22565W        W38826   2.626   7.465   5.547  0.1788  0.0835 -0.0165
22566W        W38827   3.513   2.626   1.673  0.0548 -0.0220  0.1776
22567W        W38828  12.193  15.019   4.057 -0.1173  0.1567 -0.1795
22568W        W38829  15.336   0.922   4.862 -0.1723  0.0912 -0.3188
22569W        W38830  15.941  11.372  15.023 -0.3685 -0.3496  0.0453
22570W        W38831   8.842   3.068  16.033  0.3156 -0.1141  0.1183
22571W        W38832   6.042   8.631   3.884  0.0687  0.0348 -0.1878
22572W        W38833  11.269   0.622  13.865 -0.3333  0.1818 -0.2671
22573W        W38834   5.721   0.035  13.868  0.1917 -0.2344  0.0004
22574W        W38835   9.864  11.782  14.965 -0.0261  0.0098 -0.1397
22575W        W38836  18.016  15.676  14.656  0.1903 -0.0640  0.0502
22576W        W38837   6.937  14.143  15.809  0.3097 -0.1259  0.0630
22577W        W38838   9.608   4.053  15.227 -0.1322  0.2342  0.0918
22578W        W38839   1.333   6.914   2.969  0.1558 -0.2348 -0.1239
22579W        W38840   7.236  17.313  15.030 -0.3875  0.0371 -0.1837
22580W        W38841  12.589   8.032   0.772 -0.1220  0.0494 -0.1601
22581W        W38842   0.215  17.960   5.202 -0.0532 -0.0049 -0.0014
22582W        W38843   2.373   1.205  15.418  0.2500 -0.0857  0.0486
22583W        W38844  10.284   0.439  11.545 -0.1649 -0.1525  0.0061
22584W        W38845  15.526  12.136   1.744  0.1141  0.1981 -0.0636
22585W        W38846   2.396   1.424   5.675  0.0558  0.1414  0.0408
22586W        W38847  12.523  17.660   0.718 -0.0425 -0.0587  0.1393
22587W        W38848   7.173  11.031   3.194  0.0177  0.2584  0.0961
22588W        W38849   1.119  10.588  12.928  0.1795  0.0740 -0.1879
22589W        W38850   1.719   0.676  11.899 -0.2849  0.0273 -0.0314
22590W        W38851   3.456  18.016   3.755  0.1349  0.0980  0.2565
22591W        W38852  14.534  14.172   1.420 -0.0372  0.0957 -0.3079
22592W        W38853   2.590  17.099   1.051  0.2077 -0.3837  0.3870
22593W        W38854  14.569   1.267   3.308  0.0001 -0.2400 -0.4360
22594W        W38855  10.708  10.825  12.517  0.0334  0.3508 -0.0101
22595W        W38856   3.210  16.243   4.466  0.0852  0.0029  0.1053
22596W        W38857  11.452   7.313   1.509 -0.0570  0.3177 -0.1018
22597W        W38858  16.808   8.513  13.163  0.1558  0.3164 -0.2722
22598W        W38859   6.152   6.215  13.961 -0.0494 -0.0173  0.0633
22599W        W38860   4.400  16.434   1.674 -0.0557  0.1468 -0.0783
22600W        W38861  13.913  17.895  12.064 -0.1255  0.0349  0.1801
22601W        W38862   5.465   0.287  11.681 -0.3097  0.0184 -0.0012
22602W        W38863  10.998  10.170   1.690  0.3568 -0.0549 -0.2891
22603W        W38864   2.676   3.825  14.791  0.0265 -0.0644  0.1151
22604W        W38865   6.665   2.797  11.709 -0.2646 -0.0678  0.0369
22605W        W38866   3.320  12.733   1.802  0.0285 -0.0822 -0.3450
22606W        W38867  10.884   1.048   5.421 -0.0077 -0.1897  0.1050
22607W        W38868   8.427  13.438  14.959  0.0328 -0.1963  0.1107
22608W        W38869   4.067   5.956   0.252  0.1867  0.0527  0.2280
22609W        W38870  13.797  13.963  12.424 -0.3078 -0.1940 -0.2329
22610W        W38871  12.190  15.246   5.098  0.4102 -0.0061  0.2026
22611W        W38872   7.669  18.038   4.059  0.3210 -0.0754 -0.0420
22612W        W38873   5.691  11.114   0.984  0.0964  0.1253  0.0957
22613W        W38874  15.004   9.788   1.727  0.1581  0.0345 -0.1335
22614W        W38875   7.678  13.741   0.765  0.4132 -0.0737  0.1037
22615W        W38876   1.146   8.658  15.725  0.1091  0.3708  0.0128
22616W        W38877   8.174   0.281   1.115 -0.3302 -0.0802  0.0243
22617W        W38878  15.003  13.252  13.666  0.3545  0.0928  0.0450
22618W        W38879   1.392   8.936   5.111  0.2731 -0.3144  0.3440
22619W        W38880  13.372  11.928  13.682 -0.1384  0.0706  0.3331
22620W        W38881   4.634  16.014   5.516  0.1121 -0.0056 -0.0758
22621W        W38882  10.539   8.891   4.073  0.0869 -0.1683 -0.0912
22622W        W38883   5.028  16.243   4.068 -0.0938 -0.0644 -0.1731
22623W        W38884  12.167  11.045  14.626  0.2162  0.1739 -0.1591
22624W        W38885  11.651   6.255   5.335 -0.0310  0.1810 -0.1600
22625W        W38886   3.082  10.618   1.738 -0.0515 -0.0265 -0.2459
22626W        W38887   6.028   7.466   3.543 -0.1876  0.0942 -0.1460
22627W        W38888  13.941  17.849   0.169 -0.1819 -0.3051 -0.1006
22628W        W38889  11.611  13.261   4.820 -0.2270  0.0366  0.0029
22629W        W38890   1.920  16.930  12.297  0.0179 -0.1141 -0.0631
22630W        W38891   2.765   3.982  12.911  0.0957 -0.1105  0.0470
22631W        W38892  12.559   2.536  11.464  0.0035 -0.1489 -0.0707
22632W        W38893  15.344  17.245   2.024  0.2656  0.1459 -0.0412
22633W        W38894   4.859   5.132  11.382 -0.0102  0.2000 -0.1301
22634W        W38895   5.940   1.831  12.527 -0.0175  0.1267 -0.0456
22635W        W38896  12.871  13.914  13.968  0.2475 -0.0398 -0.2466
22636W        W38897   3.005   5.556  15.094  0.0523 -0.0538 -0.3614
22637W        W38898   3.976   4.129   3.721 -0.0740 -0.2223  0.1602
22638W        W38899   1.758   2.081   3.433  0.1246 -0.0109 -0.1231
22639W        W38900  11.797  17.246   2.772 -0.0131 -0.3168 -0.1711
22640W        W38901  14.235   6.001  10.799  0.2516 -0.0382  0.1626
22641W        W38902  16.245  17.418  14.910 -0.1666 -0.0296  0.4258
22642W        W38903  13.041  17.343   0.782 -0.0059 -0.2534  0.3538
22643W        W38904   6.266  13.612   3.272  0.0001  0.1272 -0.0407
22644W        W38905   6.262   5.339   3.331 -0.0704  0.0501  0.4692
22645W        W38906   0.904   9.846   0.866  0.0240  0.2702 -0.0695
22646W        W38907  11.615   3.127  11.564  0.3113  0.0004 -0.0460
22647W        W38908   0.892  14.762   2.021 -0.1617 -0.2080 -0.3048
22648W        W38909   7.075  10.074  13.778  0.2231  0.1543  0.0219
22649W        W38910   8.042   6.470   4.794  0.1050 -0.1576 -0.0569
22650W        W38911  13.663  10.052  13.476 -0.0413  0.0012 -0.1252
22651W        W38912  10.181   8.530   3.969 -0.0875  0.2096  0.2037
22652W        W38913  17.005   4.984  14.438  0.1418  0.0759  0.1185
22653W        W38914   6.799   7.599  13.670  0.1229 -0.3521  0.2840
22654W        W38915   1.743   9.735  12.264 -0.0039 -0.0526 -0.2120
22655W        W38916   7.325  14.952   3.705  0.6694 -0.1093 -0.0854
22656W        W38917  15.441   1.237  13.423 -0.4592 -0.1477 -0.1787
22657W        W38918  15.917  10.960  11.569 -0.0179 -0.1308  0.2114
22658W        W38919   9.334   2.441  14.873 -0.1586  0.0847  0.0534
22659W        W38920  11.854  13.991   2.180 -0.1278 -0.1693 -0.0340
22660W        W38921   5.231  16.521   1.904 -0.0571 -0.3662  0.2120
22661W        W38922   5.261   1.720   0.409  0.1895 -0.1552  0.1628
22662W        W38923  10.538  10.997  14.236 -0.0137  0.4871  0.0866
22663W        W38924  17.074  11.937  12.517 -0.2657 -0.2466 -0.1612
22664W        W38925  14.926   1.920  15.820  0.2295  0.2443 -0.1707
22665W        W38926  17.068   7.486   0.204  0.1536  0.0625 -0.3031
22666W        W38927   5.894   5.431   4.545  0.0957 -0.0682 -0.0612
22667W        W38928   8.337   1.016   0.779  0.1560  0.0998 -0.2280
22668W        W38929  18.141   5.847   4.125  0.2250  0.2026  0.3072
22669W        W38930   7.368   4.494   2.254 -0.1723  0.2659  0.0045
22670W        W38931  11.681   9.874   0.873 -0.1880 -0.1273  0.1734
22671W        W38932   3.509  16.665   1.091  0.1766  0.0222 -0.0967
22672W        W38933   3.520   2.859   2.698  0.0287 -0.0282  0.1964
22673W        W38934   2.822  17.564  15.758  0.0185 -0.0365 -0.1584
22674W        W38935  15.596  16.602  14.275  0.0811 -0.0241  0.0784
22675W        W38936   3.592   7.175   1.031 -0.4013  0.1873 -0.1051
22676W        W38937   9.545   9.285  14.688  0.1553  0.2488  0.3430
22677W        W38938   1.845   7.567   0.785 -0.1018  0.1557 -0.1208
22678W        W38939  11.495  12.516   1.075 -0.0189 -0.0712 -0.1542
22679W        W38940  18.234   0.698  15.855  0.1068 -0.1291  0.1661
22680W        W38941   2.728   4.779  11.698  0.0852 -0.1014  0.2487
22681W        W38942   6.633   4.060  13.879  0.0804 -0.1236  0.1434
22682W        W38943   2.425   1.432   3.422 -0.0367  0.0114  0.1224
22683W        W38944  15.779  11.971   5.940 -0.2615  0.0197  0.1149
22684W        W38945  18.162   2.013   2.363 -0.0139 -0.4537 -0.0205
22685W        W38946   6.237   2.550  12.103 -0.1610  0.1464  0.0603
22686W        W38947  16.514   6.733   2.089 -0.0568  0.1314  0.0057
22687W        W38948   2.425   4.119   2.917 -0.1647 -0.0970 -0.1102
22688W        W38949   8.094   5.448   1.588 -0.2704  0.1165  0.0933
22689W        W38950  14.720   8.699  13.859  0.1375  0.0684  0.2379
22690W        W38951  16.458  15.350  13.049  0.0892  0.0584 -0.2409
22691W        W38952  17.726   1.727  15.152 -0.1688  0.1626 -0.1125
22692W        W38953   6.408   7.598  12.148 -0.0695 -0.0246  0.2593
22693W        W38954   5.960   7.888   0.598 -0.0261  0.0214  0.0663
22694W        W38955  16.316   0.086   1.791 -0.2831 -0.2003  0.0143
22695W        W38956  15.259   8.800   4.115 -0.1770  0.1454  0.0506
22696W        W38957   8.619   2.057  15.260  0.1742  0.0559  0.1639
22697W        W38958  12.918  18.341  14.804  0.1321 -0.0608  0.2803
22698W        W38959   0.591  17.634   3.896 -0.0886 -0.3313  0.1672
22699W        W38960  17.334   5.360   4.256  0.2591 -0.1413 -0.0677
22700W        W38961   7.084  17.934   3.965 -0.0490 -0.2220  0.0481
22701W        W38962  18.295   7.098   4.047  0.1765 -0.0550  0.0527
22702W        W38963   1.784   3.180  15.397  0.1389  0.1790  0.0746
22703W        W38964  15.029   4.599   2.762  0.2266  0.2058 -0.0882
22704W        W38965   0.296   0.886  14.909 -0.1605  0.3137  0.2771
22705W        W38966  10.119  13.898   1.430  0.1611  0.0053  0.3310
22706W        W38967  13.029   5.697  15.101 -0.3769  0.1142  0.2407
22707W        W38968   2.854  11.701  14.520  0.0861  0.1082  0.1578
22708W        W38969   2.399   2.843  12.411 -0.0854 -0.0349  0.0892
22709W        W38970  14.056  12.556  12.543 -0.2692  0.0427  0.0649
22710W        W38971  10.049   5.960   0.029  0.1637  0.2265 -0.1778
22711W        W38972   3.496  12.339   4.722  0.1480  0.0456  0.2244
22712W        W38973   5.399   1.682  12.477 -0.1324 -0.0472 -0.0090
22713W        W38974   4.217   5.830   3.865 -0.2363 -0.0345 -0.0391
22714W        W38975  11.622  15.714   0.902  0.1431 -0.0421  0.0683
22715W        W38976  12.941   3.055   2.416  0.0598 -0.0451 -0.0414
22716W        W38977  13.365   6.005   5.080 -0.0623  0.1242 -0.2045
22717W        W38978  16.234  13.439  13.408  0.0043  0.3790  0.1077
22718W        W38979   1.918  10.497   3.186  0.2413 -0.1680 -0.1389
22719W        W38980  11.086   1.746   6.118  0.0605  0.1672 -0.0026
22720W        W38981  10.583   0.883  11.411  0.1044  0.0290  0.1585
22721W        W38982   2.517   5.179  11.989  0.5569 -0.2652  0.1725
22722W        W38983  17.618  14.623  12.886 -0.2839 -0.0129  0.2217
22723W        W38984  12.891   2.035  13.655  0.0234  0.1564 -0.0131
22724W        W38985   2.613  16.245  10.260  0.0523  0.1956  0.1359
22725W        W38986  13.470   5.488  15.869  0.2507  0.1224  0.2177
22726W        W38987   1.078  12.089  15.029 -0.1578  0.1548  0.2899
22727W        W38988   7.284  12.367  14.144 -0.3202 -0.1665 -0.0421
22728W        W38989  11.831   5.194   2.298 -0.0839 -0.0345 -0.0822
22729W        W38990  15.007  14.784   0.547  0.0446  0.2672 -0.2776
22730W        W38991   5.082  11.088  10.728 -0.1169  0.1779 -0.0503
22731W        W38992  11.536   8.814   3.941 -0.1261  0.0923  0.3207
22732W        W38993   8.694   3.561   3.293 -0.0946 -0.1756 -0.3161
22733W        W38994  14.933  12.344   4.727 -0.0175  0.2263 -0.1052
22734W        W38995  11.945   8.079   1.112  0.0169  0.3695  0.0494
22735W        W38996   9.202   0.677   2.751 -0.1553 -0.1391 -0.1632
22736W        W38997   4.425   9.774   1.842 -0.3985  0.1949  0.2006
22737W        W38998  17.375  12.337   4.283  0.1376  0.0867 -0.1360
22738W        W38999  12.935  17.338  14.615  0.0607  0.0747  0.1699
22739W        W39000  14.625  17.108   5.399  0.2595 -0.4020 -0.0780
22740W        W39001   2.173  16.062  13.903  0.2952  0.0695 -0.3457
22741W        W39002   6.606   2.579  12.925  0.0076 -0.0925  0.1247
22742W        W39003   4.398   4.914   0.522  0.2420  0.0291 -0.2242
22743W        W39004  17.112   2.930   3.737 -0.2247 -0.0416 -0.0742
22744W        W39005   3.289   0.667   2.855 -0.1870 -0.1127 -0.1371
22745W        W39006   9.777  10.456   4.253  0.1054 -0.2840  0.0367
22746W        W39007  13.794  12.053   5.011  0.0494  0.3656 -0.0235
22747W        W39008  10.678  15.925   3.700  0.3767  0.2804 -0.2653
22748W        W39009  12.999   4.621   0.527  0.0196 -0.3134  0.1014
22749W        W39010  15.660  15.339   5.741 -0.1118  0.2509 -0.2846
22750W        W39011  11.625  16.438  11.061 -0.2136  0.2710  0.0181
22751W        W39012   6.449  11.796   2.043  0.3231  0.0338 -0.1148
22752W        W39013   0.371   9.575  15.806 -0.3305 -0.2242 -0.1463
22753W        W39014  17.288   8.824   4.004 -0.0523 -0.0497  0.2664
22754W        W39015   0.976  12.636   1.461 -0.0722 -0.0965  0.0709
22755W        W39016  11.379   4.355  15.738  0.0476  0.0292  0.3306
22756W        W39017  10.185  18.172   0.777 -0.0004 -0.2725  0.1589
22757W        W39018   7.126  14.399   5.563 -0.4204 -0.0211  0.1841
22758W        W39019   5.728  12.666   2.059  0.1695  0.0397 -0.1715
22759W        W39020   0.721   6.840   3.752 -0.1192  0.2900 -0.0345
22760W        W39021  14.551   4.118   3.707 -0.0358 -0.3099  0.1450
22761W        W39022  13.803   3.558   0.603  0.0440 -0.1807 -0.2952
22762W        W39023   4.692  16.873  16.276  0.3168 -0.0627 -0.1393
22763W        W39024   1.080  10.935   2.541  0.3337 -0.2792  0.2945
22764W        W39025   8.164  11.384  15.436 -0.0930  0.0410 -0.1383
22765W        W39026  12.229  15.755   0.992 -0.0040  0.0320 -0.0324
22766W        W39027  15.510  15.831  15.053 -0.2034  0.0985  0.1916
22767W        W39028  16.011  10.945  12.501  0.0007 -0.1161  0.2402
22768W        W39029   8.933   9.809  11.453  0.0105  0.0655 -0.0241
22769W        W39030   8.156   0.875  12.181  0.1351 -0.3338  0.5204
22770W        W39031   6.167   0.278  14.199  0.0115  0.3426 -0.1338
22771W        W39032   9.838  15.747  12.971  0.0475  0.0838 -0.3686
22772W        W39033   0.803  14.120  13.756  0.0754 -0.5537 -0.0466
22773W        W39034   1.815   8.221   1.870  0.3035 -0.0039  0.1447
22774W        W39035  15.346   1.333  13.925 -0.1031 -0.0582  0.0474
22775W        W39036  13.232   6.071  12.459 -0.2924  0.1850 -0.0764
22776W        W39037   3.434   8.208  12.758 -0.1055 -0.2973  0.1500
22777W        W39038  17.004   4.412   4.146 -0.1350 -0.0957  0.2739
22778W        W39039   0.194  14.903  15.459  0.2858 -0.2516 -0.0613
22779W        W39040  13.886   8.453  13.904 -0.1200  0.2399  0.1445
22780W        W39041   7.595  16.697   2.912  0.0563  0.0305 -0.1961
22781W        W39042   2.560   4.927   0.697 -0.2645 -0.1389  0.0502
22782W        W39043  13.767   5.512   1.619  0.1140  0.2003  0.0117
22783W        W39044   4.255  14.884   3.910 -0.1235  0.1677  0.0130
22784W        W39045   7.028  14.478   4.590  0.4399 -0.2906  0.1506
22785W        W39046   0.444  14.614   5.020  0.1897 -0.1364 -0.2928
22786W        W39047  15.097  17.672   1.930  0.0263  0.0701 -0.1724
22787W        W39048   2.040  10.907   2.940 -0.1312  0.0542 -0.0156
22788W        W39049  10.485   7.720  13.865 -0.4412  0.1779 -0.3112
22789W        W39050   7.926   5.247   0.217  0.0039  0.0134  0.0892
22790W        W39051   9.287  12.580   4.493  0.0041  0.1479 -0.1206
22791W        W39052   9.270  14.546  13.475  0.1792 -0.0093  0.0179
22792W        W39053   2.177   2.615  10.729 -0.2784 -0.0146 -0.1138
22793W        W39054  17.087  10.268  15.791  0.1175  0.2325 -0.0236
22794W        W39055  11.115   7.149   3.702 -0.0033 -0.0158  0.2186
22795W        W39056  12.451  14.857  11.468 -0.2693  0.0876  0.0705
22796W        W39057  15.070   3.557  11.008 -0.0807 -0.0204 -0.1041
22797W        W39058  16.057  11.536  14.556  0.0596 -0.1072  0.3980
22798W        W39059   3.039  17.002  14.101  0.1871 -0.0970 -0.1094
22799W        W39060  10.356   0.122  14.663 -0.0548 -0.2049  0.4350
22800W        W39061   0.872   8.280  12.657  0.1680  0.2328  0.1781
22801W        W39062   8.854  13.714   2.064  0.2168  0.1739  0.0788
22802W        W39063  17.348   3.532   3.624 -0.2025 -0.0614 -0.3632
22803W        W39064   1.928   5.254  14.220 -0.0946  0.1803 -0.3708
22804W        W39065   2.417  13.546   5.050  0.2575  0.1281  0.1804
22805W        W39066   6.068   0.880  11.236 -0.0755  0.1294 -0.2323
22806W        W39067   0.157   6.509  14.295 -0.0688  0.3302 -0.2837
22807W        W39068   1.191  15.825   3.614  0.1344  0.1221  0.2186
22808W        W39069  10.977  17.251   4.450 -0.1043  0.2542 -0.1736
22809W        W39070   0.646  16.346  12.900  0.0611  0.1836  0.0674
22810W        W39071   5.397   5.106   3.859 -0.0958  0.0420  0.2489
22811W        W39072   6.921  17.622  14.104  0.2418  0.0125  0.3258
22812W        W39073   7.625  13.772   4.256 -0.0469  0.0852 -0.1982
22813W        W39074   4.872  16.781   4.253  0.1082  0.0346  0.5088
22814W        W39075   3.778  12.463   1.927 -0.1401  0.2073 -0.2961
22815W        W39076  12.413   4.921   3.722  0.1605  0.5033 -0.3879
22816W        W39077   9.027  11.636  15.188 -0.0111 -0.2289  0.0293
22817W        W39078   8.886  17.085   2.230  0.2261  0.0177  0.0382
22818W        W39079  10.420   3.106  15.372  0.0017  0.2303  0.0648
22819W        W39080   0.924   5.469  14.120 -0.1992  0.0652  0.0427
22820W        W39081  10.191   6.204   1.536  0.0313  0.3127 -0.1563
22821W        W39082  17.068   0.479  15.673 -0.0235 -0.0053 -0.0035
22822W        W39083   1.902   4.945   3.602  0.0710  0.1080 -0.1063
22823W        W39084  12.387   8.979  12.051  0.1639 -0.1000  0.3488
22824W        W39085  11.795   9.907  15.073  0.0654 -0.0681  0.1172
22825W        W39086   9.076  15.784   2.330 -0.3602 -0.0572  0.1868
22826W        W39087  11.876   1.235  13.785 -0.0432 -0.1543 -0.0841
22827W        W39088   7.966   9.674  15.819 -0.3163 -0.2218  0.0618
22828W        W39089  17.459  14.946  15.816  0.1331  0.0119  0.0601
22829W        W39090   8.336  17.141   2.195  0.0806  0.1068  0.2830
22830W        W39091  17.792  12.400   3.936  0.1179 -0.3821 -0.2517
22831W        W39092   1.678   6.952  13.498  0.0002  0.2020 -0.0305
22832W        W39093   0.185   3.539   5.098 -0.0177  0.1031  0.1200
22833W        W39094   2.273   4.996   4.802 -0.0085  0.4007  0.0083
22834W        W39095   6.285  10.570   1.657  0.0187 -0.2196  0.0080
22835W        W39096   3.638  12.475   0.201  0.2191  0.1666  0.0165
22836W        W39097   7.487   4.118   1.550 -0.2312  0.1332  0.0642
22837W        W39098  18.213   8.954  15.185 -0.0085 -0.2728 -0.0096
22838W        W39099  12.760   7.380   2.812 -0.3008 -0.0342 -0.0369
22839W        W39100   5.742   8.335   0.161  0.1944  0.0707 -0.3684
22840W        W39101   1.327  14.547  10.482  0.2163 -0.2071  0.0617
22841W        W39102   8.651  13.967  16.002 -0.0087  0.2696 -0.0652
22842W        W39103   8.302   6.956   0.617  0.4052  0.0443  0.0348
22843W        W39104  14.547   3.099  11.594  0.1040  0.0343 -0.2367
22844W        W39105  14.859  17.274  13.961  0.0550  0.1513 -0.0977
22845W        W39106  14.326  11.598  15.275 -0.0124  0.1651  0.1559
22846W        W39107  12.545  16.171  13.841  0.0598  0.0994  0.0136
22847W        W39108   0.732  12.704   1.843  0.0865  0.1178 -0.2041
22848W        W39109  15.255  15.802   3.420  0.0128 -0.1490  0.0918
22849W        W39110  13.500  17.747  15.388 -0.2684 -0.0046 -0.0784
22850W        W39111   9.104   9.381  13.444  0.0068 -0.1614 -0.0091
22851W        W39112   3.269  12.796  15.665  0.0262 -0.0680 -0.2306
22852W        W39113   0.421   8.336  15.646  0.0910 -0.0578  0.2006
22853W        W39114  13.846  13.148  13.380  0.0242  0.2662 -0.1740
22854W        W39115   9.220   8.735  10.775  0.0336  0.1166 -0.1872
22855W        W39116  17.008   8.616   2.320  0.0218  0.1191 -0.1462
22856W        W39117   9.810   9.694  14.621  0.0572 -0.0513 -0.1770
22857W        W39118  14.317   4.873  14.510 -0.0740  0.2172  0.0331
22858W        W39119   5.530  18.137  12.129  0.1519  0.2102  0.0737
22859W        W39120   3.445   3.644   4.806  0.1581 -0.0179 -0.2110
22860W        W39121  11.867   4.880   2.696 -0.1942 -0.0062 -0.1161
22861W        W39122   4.875   0.957   2.544 -0.2278  0.3061 -0.0311
22862W        W39123   4.214   6.443   0.471  0.0314 -0.2436  0.0833
22863W        W39124   4.098  17.184  13.282  0.0263 -0.1410  0.2997
22864W        W39125  10.824  13.241  15.679 -0.2081 -0.3263 -0.0819
22865W        W39126   3.526   7.925   1.664 -0.1754  0.0821 -0.2621
22866W        W39127   5.739   2.679  14.437  0.3166 -0.0244 -0.0570
22867W        W39128   9.501   0.869  13.620  0.1384  0.1266  0.3569
22868W        W39129  10.813   4.504  14.946  0.2670  0.0318  0.0735
22869W        W39130   2.983  13.944   3.889 -0.0853  0.0896  0.3104
22870W        W39131  18.027   5.565  15.566 -0.1180 -0.1582  0.0931
22871W        W39132   3.588   4.424  12.903 -0.5138 -0.1865  0.5810
22872W        W39133   2.639  11.973   4.873  0.0275  0.3293 -0.0188
22873W        W39134   2.131  17.982  14.159 -0.2093 -0.0715 -0.1436
22874W        W39135   7.213   8.814   9.765 -0.1968  0.1909  0.3260
22875W        W39136  12.606  13.345  13.075  0.0098  0.0395  0.0369
22876W        W39137   4.227  14.406   4.007 -0.0352 -0.0158 -0.2133
22877W        W39138  10.337   7.160  15.944  0.0031 -0.0520  0.0550
22878W        W39139  13.957   3.623  14.262 -0.1686 -0.0129 -0.0287
22879W        W39140  14.484  15.098  15.750 -0.3176 -0.3369  0.1816
22880W        W39141   3.861  16.945   1.765  0.1479  0.1594  0.2547
22881W        W39142  14.738   2.952  16.187 -0.0246 -0.3362  0.3490
22882W        W39143  15.899   6.018  15.966  0.3935 -0.0907 -0.0667
22883W        W39144  14.878   2.061   1.211 -0.1143 -0.1737 -0.0446
22884W        W39145  16.954   2.311   5.759  0.3205  0.0470 -0.0878
22885W        W39146  18.211  14.606   2.839  0.0031  0.3843 -0.0129
22886W        W39147   5.121   7.997   4.664 -0.1382  0.0353 -0.1647
22887W        W39148   8.247   2.367   0.286 -0.1491  0.1385  0.0557
22888W        W39149   9.321   3.259   2.372 -0.0680  0.3484  0.2103
22889W        W39150  10.523   2.271   2.312  0.0098  0.0503  0.0748
22890W        W39151  18.284  12.896   1.709 -0.2239  0.0598  0.2280
22891W        W39152   0.575   7.021  13.329 -0.0241  0.0569  0.3777
22892W        W39153   7.246   9.141  16.006  0.0548  0.3191 -0.0820
22893W        W39154  10.964  14.576   4.159  0.0096  0.1433 -0.1743
22894W        W39155  12.571   0.358  11.604 -0.2576  0.2569 -0.1114
22895W        W39156  10.663   1.136  14.036 -0.2323  0.2988  0.0955
22896W        W39157  13.030  18.074  13.443 -0.0148  0.2747 -0.1837
22897W        W39158   5.948   9.700  13.218  0.2037  0.1442  0.1038
22898W        W39159  12.318  13.315   3.912 -0.2453  0.0443 -0.2198
22899W        W39160  10.709   4.214  10.989  0.2218  0.0321 -0.3112
22900W        W39161  15.745   6.911  11.311  0.0536 -0.4313 -0.2460
22901W        W39162   5.236  13.289  14.184  0.0943 -0.2745 -0.4572
22902W        W39163  14.746   2.913  13.837  0.0486 -0.2417 -0.2688
22903W        W39164  15.996   5.669  14.582 -0.0040  0.1558  0.2677
22904W        W39165  17.225  14.931  11.918 -0.0976  0.2025 -0.0500
22905W        W39166  12.258   8.669   4.419 -0.0967  0.0124  0.5115
22906W        W39167   8.434   7.914  12.166 -0.0199  0.2075  0.2613
22907W        W39168   3.820   3.561  11.107  0.0329 -0.0602  0.1945
22908W        W39169   5.572   5.970  12.285  0.1579 -0.0715 -0.0738
22909W        W39170   4.158   6.500  14.675 -0.0123 -0.0366 -0.2496
22910W        W39171  16.020  12.460  15.942 -0.1987  0.0593 -0.3264
22911W        W39172  18.276   3.798   1.467  0.1543 -0.2284  0.1239
22912W        W39173   7.062   5.326   0.218 -0.0679 -0.3260  0.1185
22913W        W39174  13.424   9.451  14.761 -0.0991 -0.0238 -0.1227
22914W        W39175   7.728  15.568  15.743 -0.3741  0.2447  0.4243
22915W        W39176  11.804   4.727  14.629  0.0189  0.1027  0.3203
22916W        W39177   4.463  16.412  15.881  0.0859  0.0266  0.0630
22917W        W39178   4.064  16.038   1.090 -0.1556  0.1052 -0.1910
22918W        W39179   6.792   8.019  14.102  0.3661  0.0620  0.0077
22919W        W39180  16.546   1.112  11.891 -0.0569 -0.1033  0.0055
22920W        W39181   8.478   8.362   2.653  0.0412  0.2557  0.0976
22921W        W39182  13.333   4.762   4.177  0.0769 -0.0808  0.2001
22922W        W39183   0.776  15.825  14.625  0.1111  0.1425 -0.1628
22923W        W39184  12.259   3.007  12.910 -0.2315 -0.0043  0.1143
22924W        W39185   3.233   9.998   3.681 -0.3903  0.3968  0.0315
22925W        W39186   0.961  12.389   3.438 -0.0563 -0.1622  0.0756
22926W        W39187   9.305  11.229  10.754 -0.1432 -0.1714 -0.1372
22927W        W39188  17.237  10.335  13.930  0.0559 -0.2349 -0.1263
22928W        W39189   9.260  15.605   4.500  0.4190  0.0219 -0.1282
22929W        W39190   9.402   4.201   5.262 -0.0329  0.1643 -0.2000
22930W        W39191  13.126   2.928  15.064 -0.0793  0.0662 -0.0412
22931W        W39192   2.589  17.784   3.966  0.1975 -0.2916 -0.0836
22932W        W39193  15.380  14.888  15.590  0.1077  0.0355  0.1834
22933W        W39194   1.034   7.948   0.139 -0.1865 -0.2622  0.0569
22934W        W39195  15.319   0.340   6.355  0.0642  0.1791 -0.2371
22935W        W39196   1.286  15.649  15.934 -0.2186 -0.2808  0.0884
22936W        W39197   1.841   8.568   4.911  0.2356  0.2458  0.1380
22937W        W39198   1.123  11.283   5.653  0.1185  0.0264  0.0240
22938W        W39199  14.989   1.222  15.116 -0.0568  0.2620 -0.0835
22939W        W39200  16.043   2.833   0.796 -0.3635  0.0334  0.0192
22940W        W39201   0.245   9.716  14.553 -0.2004 -0.0126  0.2041
22941W        W39202   6.090  12.223  15.161 -0.0826 -0.0541 -0.0796
22942W        W39203   3.933   5.924   3.454 -0.2321 -0.2306  0.0725
22943W        W39204  15.485  16.336   6.036 -0.3676 -0.1651 -0.4759
22944W        W39205   7.005   4.315   1.050  0.2583 -0.1133 -0.2609
22945W        W39206   7.275   8.823   1.668  0.0674  0.0203 -0.0442
22946W        W39207   8.889  14.246  13.771  0.0568 -0.2339  0.3676
22947W        W39208   2.781  10.660   2.542  0.0323  0.2460 -0.3113
22948W        W39209  13.377   7.171   4.394  0.1086 -0.3030  0.0285
22949W        W39210  14.913   6.167   4.822  0.0968 -0.1175 -0.0613
22950W        W39211   6.448   3.125   5.362  0.0234 -0.1453  0.0008
22951W        W39212   5.607  15.130  15.202  0.1438 -0.3274 -0.1278
22952W        W39213   8.949   9.196  10.934 -0.0536 -0.3635 -0.0428
22953W        W39214   2.780   0.835   2.646  0.1409 -0.3096 -0.4393
22954W        W39215  16.022   7.522   0.109  0.2871  0.1187  0.1815
22955W        W39216  11.489  12.046  12.161 -0.0712 -0.1709 -0.0331
22956W        W39217   4.076   0.168  13.993  0.0536  0.0629  0.0684
22957W        W39218   7.675   7.037   3.747  0.1213  0.2056  0.0546
22958W        W39219   2.688   7.579   1.740  0.0806 -0.1269  0.0885
22959W        W39220  14.265  12.375   9.864  0.1848 -0.1856 -0.0492
22960W        W39221   7.539   3.797   2.195 -0.2169 -0.0203  0.0393
22961W        W39222   6.538   2.608   3.347 -0.0758  0.0816 -0.0567
22962W        W39223   4.435  18.214  11.602 -0.2144  0.1104 -0.2593
22963W        W39224   7.016   0.399   4.189  0.0697 -0.2544 -0.1064
22964W        W39225   4.085  14.744   1.928  0.1275 -0.1470  0.1915
22965W        W39226   6.699  14.235   4.114 -0.0380  0.0497 -0.0978
22966W        W39227   8.921   4.204  13.820 -0.1106 -0.4255 -0.3780
22967W        W39228   8.473  15.338  14.909 -0.1388 -0.0984  0.1237
22968W        W39229  13.309   5.383  15.356 -0.0558 -0.0899  0.3215
22969W        W39230   7.534   5.817   1.639  0.0367 -0.3022  0.0820
22970W        W39231   8.727   3.158   4.486  0.0158  0.0702 -0.3860
22971W        W39232   2.838  10.260   3.320  0.0872 -0.2142 -0.0672
22972W        W39233   2.084   6.959  15.404  0.3207  0.1212 -0.1307
22973W        W39234  13.173   3.955  13.712  0.2380  0.0232  0.1725
22974W        W39235  11.553   7.040  14.841  0.2137 -0.2371  0.0728
22975W        W39236   6.686  15.165  15.111  0.3161 -0.2324 -0.2204
22976W        W39237  10.570  10.512  10.858  0.2134 -0.2028  0.0349
22977W        W39238   3.917  11.098   1.316  0.1486  0.2656  0.1634
22978W        W39239   6.885   4.829   5.623 -0.2111 -0.1639 -0.0519
22979W        W39240  16.011   9.106  13.968 -0.4021 -0.2901 -0.1058
22980W        W39241  11.228   6.600   4.464 -0.1376  0.0014  0.0999
22981W        W39242  10.646  14.010  11.259  0.0587 -0.2220 -0.0518
22982W        W39243  16.889   1.759  13.897 -0.0021  0.2953  0.3294
22983W        W39244   5.606   6.634   1.871 -0.0760 -0.1775  0.1000
22984W        W39245   4.388   8.083   1.794  0.0144 -0.0032 -0.1012
22985W        W39246   2.547  16.637   4.725 -0.0019 -0.1658  0.1020
22986W        W39247   2.586   5.337  14.781  0.0118 -0.1493  0.0017
22987W        W39248  14.794   7.684  15.279  0.1127 -0.0236 -0.2341
22988W        W39249   7.766   2.148   3.930 -0.0901 -0.3461 -0.1082
22989W        W39250  14.630  17.557   4.976  0.0399 -0.1897 -0.2865
22990W        W39251  14.981   8.919   2.807 -0.2376 -0.0072 -0.0284
22991W        W39252   2.108  15.031   5.646  0.0490  0.0024  0.0144
22992W        W39253   4.157  18.038   5.640 -0.4583 -0.1782 -0.2168
22993W        W39254   8.524   8.217   1.039 -0.3733 -0.1163 -0.0295
22994W        W39255   7.468   3.230  14.349 -0.1415 -0.1090  0.0604
22995W        W39256   0.001  14.102   2.984  0.1224 -0.2233 -0.2958
22996W        W39257  12.055  11.197  11.070 -0.0598  0.0249  0.1939
22997W        W39258  14.396  16.234  12.970  0.0209 -0.4233  0.1293
22998W        W39259  16.901  12.136   1.566 -0.1059  0.0686  0.2096
22999W        W39260   8.556  17.538   5.806 -0.1681 -0.1919 -0.1807
23000W        W39261   2.062   8.961  11.977  0.0074 -0.0062  0.2539
23001W        W39262   6.242   4.449  10.729 -0.1329 -0.1381  0.1508
23002W        W39263   0.577  17.943  11.776 -0.0038  0.0568  0.6217
23003W        W39264   3.124  15.336   2.012 -0.0228  0.1387 -0.0342
23004W        W39265   4.518   3.553   2.008  0.0570 -0.0478  0.0143
23005W        W39266   8.797   0.907   1.036 -0.1337 -0.5000  0.0238
23006W        W39267  17.974   3.265   5.680  0.1556 -0.0848  0.0778
23007W        W39268   0.880  16.236   4.531  0.0657 -0.1928  0.1568
23008W        W39269   5.112   2.931   5.069 -0.2353  0.0854 -0.0044
23009W        W39270   9.614  10.918  10.950 -0.1020 -0.0333 -0.1194
23010W        W39271  10.444   3.914  13.214  0.0465 -0.2254  0.0666
23011W        W39272  15.469   1.100  14.870  0.1310  0.0366 -0.0580
23012W        W39273   6.909   8.347   5.047  0.0707 -0.0495  0.1412
23013W        W39274  15.697   7.915   1.216 -0.1128 -0.0982  0.2198
23014W        W39275   6.622  12.951   0.058 -0.1846  0.0023  0.2170
23015W        W39276   4.104   1.098  14.712 -0.0422  0.2644  0.0623
23016W        W39277   2.648  17.895   2.542  0.0848 -0.0273 -0.1953
23017W        W39278   4.728   8.363  14.245 -0.2582  0.1515  0.1144
23018W        W39279   7.698   1.829   1.559 -0.1773  0.1029  0.1892
23019W        W39280  11.375   8.248   5.396 -0.3785  0.1083 -0.0367
23020W        W39281  10.789   7.999  15.628  0.0782  0.0017  0.0532
23021W        W39282   6.475   6.037   2.985  0.1330  0.0640  0.0312
23022W        W39283   4.475  12.557  11.977  0.1327  0.1097 -0.1262
23023W        W39284   6.507  12.801  10.848  0.0933 -0.1103 -0.2192
23024W        W39285   4.088  13.701   0.475 -0.1642  0.3215  0.0483
23025W        W39286  17.855   7.244  15.235 -0.1038 -0.3340 -0.0090
23026W        W39287   0.834  14.872   0.037 -0.0799 -0.1413  0.0301
23027W        W39288  11.012   7.435   3.048 -0.1073 -0.1120  0.1311
23028W        W39289  12.357  13.806  14.169  0.0082 -0.3813  0.3182
23029W        W39290   0.206  16.107   5.338 -0.0624  0.1233 -0.1179
23030W        W39291   9.586  14.512   2.450  0.0687 -0.1108 -0.0187
23031W        W39292  13.237   5.586   0.470  0.4666 -0.0187  0.3109
23032W        W39293   6.950  15.041   1.173  0.3593 -0.2543 -0.1552
23033W        W39294  12.789  18.271   3.123 -0.2550 -0.2437  0.0525
23034W        W39295  16.685   2.919  12.108  0.0388 -0.0534  0.2357
23035W        W39296   5.182   5.163  13.664 -0.0476  0.0981  0.0709
23036W        W39297   5.994  10.206  11.613  0.0735 -0.2753  0.1273
23037W        W39298  14.753   3.677  11.671 -0.3056  0.0343  0.0349
23038W        W39299  16.975  16.413   0.064 -0.0484  0.1334 -0.0356
23039W        W39300  14.974  15.181   3.706  0.2914  0.1662 -0.2372
23040W        W39301  10.664   5.025  12.411  0.0261 -0.1622  0.0795
23041W        W39302  10.027   5.399   0.921  0.0075  0.0204 -0.1180
23042W        W39303   1.560  11.813  11.758  0.0239  0.0381 -0.3187
23043W        W39304  10.241   0.840  14.010 -0.0165 -0.2439  0.3753
23044W        W39305   1.868   6.303  11.570  0.1355 -0.1129  0.1793
23045W        W39306  12.693  15.088  12.369 -0.1516  0.3639 -0.1326
23046W        W39307  10.816  11.980   4.764  0.1851  0.1184  0.3210
23047W        W39308  12.347   0.730  14.752  0.1459  0.1372  0.1916
23048W        W39309  10.584   0.997   0.926 -0.0174 -0.0176  0.0676
23049W        W39310  16.644  14.830  15.301  0.4528 -0.0779 -0.1342
23050W        W39311   8.618   9.790  14.574 -0.0925  0.4139 -0.2256
23051W        W39312  12.964   6.921  11.847 -0.0925  0.3743  0.1208
23052W        W39313  13.703  14.084  11.970 -0.4072 -0.0825  0.3464
23053W        W39314   1.409  11.887  14.662  0.3279 -0.1080 -0.0318
23054W        W39315  11.100   0.578   5.164 -0.1776 -0.0677 -0.0137
23055W        W39316   3.667   3.000  12.819  0.2424 -0.2632 -0.0200
23056W        W39317  15.814   4.317  12.795  0.3273 -0.0159 -0.3508
23057W        W39318   6.782   5.712   1.693 -0.3099 -0.3521 -0.1024
23058W        W39319   8.097   4.078   3.354 -0.0506 -0.0079 -0.3346
23059W        W39320   7.203   6.678   1.907  0.3355 -0.0641 -0.0990
23060W        W39321   7.493  13.062   3.189  0.2138 -0.3774  0.0729
23061W        W39322   6.927   2.056  13.490 -0.0832 -0.0677  0.0970
23062W        W39323  16.642   7.946   1.364  0.0852  0.1158  0.0960
23063W        W39324   1.306   7.940  10.998  0.0467 -0.2622 -0.2964
23064W        W39325  15.584   4.506   5.156 -0.1338 -0.0999  0.2014
23065W        W39326  15.997  12.904   3.574 -0.0474  0.0766 -0.1672
23066W        W39327  14.765   5.087  14.883 -0.1228 -0.1090 -0.0778
23067W        W39328  17.374  17.057   2.878  0.3273  0.3337  0.2085
23068W        W39329  11.762   8.157   1.580 -0.2860  0.0473 -0.4031
23069W        W39330  16.259  16.989  15.299  0.2911 -0.1546 -0.0713
23070W        W39331  15.518   8.909  14.548  0.0784 -0.0607  0.1570
23071W        W39332  12.930  14.718  11.450  0.1234  0.2101  0.0340
23072W        W39333   6.961   7.384  12.784 -0.0925 -0.1309 -0.0371
23073W        W39334  17.683  12.465   3.051  0.1040  0.0124  0.1065
23074W        W39335   1.983   8.051   5.626  0.2096  0.0892 -0.0200
23075W        W39336   1.186   6.296  16.161  0.1536 -0.0413 -0.0819
23076W        W39337  17.780  16.430   5.902 -0.1330 -0.1465  0.1305
23077W        W39338   2.658  12.211  14.345  0.0305 -0.2223 -0.3124
23078W        W39339   2.321   7.003   3.890 -0.1810 -0.4595  0.0883
23079W        W39340   7.705   5.249  11.930 -0.0439  0.1191  0.0423
23080W        W39341   8.019   5.381  15.775 -0.1008  0.0104  0.0110
23081W        W39342  12.431  16.785   3.845 -0.0692 -0.0869  0.0407
23082W        W39343  10.163  15.246  14.585  0.2348  0.4022 -0.0128
23083W        W39344   8.098  13.090   5.807  0.1671 -0.1556  0.0213
23084W        W39345   8.296   7.837  15.052  0.1713 -0.0751 -0.2218
23085W        W39346   4.135  12.610   3.791  0.0927 -0.1848  0.2596
23086W        W39347  10.778   7.500   3.468  0.1923 -0.0839  0.2418
23087W        W39348  18.257  17.463   0.649 -0.2789  0.1426  0.0167
23088W        W39349  10.505  11.501   9.769  0.0540 -0.0579 -0.1458
23089W        W39350  12.137   7.754   1.483 -0.0064 -0.3124  0.0493
23090W        W39351  10.685   8.860  16.261  0.1851 -0.0160 -0.0807
23091W        W39352  11.983   4.485   5.936 -0.0711  0.1060  0.3934
23092W        W39353  17.256   5.885  15.690 -0.2344 -0.2671  0.2054
23093W        W39354   0.357   4.752  13.793 -0.3365  0.0507 -0.0773
23094W        W39355  14.040   5.074   5.661  0.1232 -0.0673 -0.0563
23095W        W39356   7.288   6.353  10.775 -0.1625 -0.0649  0.0679
23096W        W39357   8.106   4.639  14.145  0.2363  0.1446  0.0539
23097W        W39358   3.699   3.936  12.164 -0.0330  0.1554  0.1695
23098W        W39359   2.438   8.963   5.158 -0.0579  0.1485  0.2253
23099W        W39360   5.128  16.270   5.102 -0.1842 -0.1131 -0.1390
23100W        W39361  14.817  10.454   0.182 -0.0667  0.0079 -0.2502
23101W        W39362   2.015   7.331  15.039 -0.3679 -0.4094  0.0357
23102W        W39363   8.365   3.585  13.900  0.1008 -0.2807  0.1486
23103W        W39364   5.420   5.845  11.814  0.0101  0.0997 -0.2359
23104W        W39365  11.421  11.038   3.497  0.0896  0.0050 -0.2196
23105W        W39366  14.254   1.207  13.232  0.4175 -0.3213  0.2795
23106W        W39367  13.271   2.590   0.144  0.1363 -0.1335 -0.1237
23107W        W39368   1.253  18.105   2.784  0.1371 -0.0343  0.1470
23108W        W39369   9.903   0.912   3.244 -0.0873 -0.2313 -0.2975
23109W        W39370  16.701   1.841   4.175  0.1166 -0.0912 -0.1262
23110W        W39371   4.351   3.274   1.158  0.2995 -0.0366 -0.1582
23111W        W39372   1.556   0.089   2.567 -0.0335  0.0341 -0.1407
23112W        W39373  14.526   3.481   0.988 -0.2316  0.0966 -0.2366
23113W        W39374   9.163   7.591   4.741 -0.3142 -0.1223  0.2458
23114W        W39375  12.381  11.932  14.058 -0.0848 -0.0933 -0.2062
23115W        W39376  10.735   0.088  13.982 -0.0917 -0.3506 -0.1473
23116W        W39377  17.942   9.660  11.317  0.1290 -0.1471  0.0216
23117W        W39378   8.876   1.148   4.561 -0.1497 -0.0179 -0.0759
23118W        W39379  11.490  14.732  11.238  0.0944 -0.1324  0.0106
23119W        W39380   6.797  18.239  11.648  0.0648  0.0827  0.3154
23120W        W39381   9.101   5.824  12.324 -0.2390 -0.1973  0.2828
23121W        W39382  14.874   9.839  11.085  0.4241 -0.3475  0.3216
23122W        W39383   8.036  10.682  15.049  0.0232 -0.0005  0.0704
23123W        W39384   6.688   9.286   0.799  0.1767  0.1720 -0.0114
23124W        W39385  10.279  14.958  14.140 -0.0668  0.3186 -0.2225
23125W        W39386   5.748   3.652  11.339 -0.0583  0.1061  0.3233
23126W        W39387   1.307   2.498   1.141 -0.0293  0.1242  0.1282
23127W        W39388  10.631  15.730   4.861  0.1142 -0.0689  0.1715
23128W        W39389   4.086   4.358   5.291  0.0691  0.0550  0.1091
23129W        W39390   7.952   2.016  15.085  0.3445  0.2401  0.0185
23130W        W39391   3.901  17.862  15.629  0.1052  0.0372  0.1074
23131W        W39392   5.461   7.974   1.326  0.0916 -0.4948 -0.0896
23132W        W39393  15.846  14.175   5.426 -0.0494  0.0791  0.1304
23133W        W39394  17.925  17.048  10.894  0.0397  0.1908 -0.0972
23134W        W39395  13.455  12.793  13.513  0.0725 -0.0229 -0.2577
23135W        W39396   2.715   6.194  11.792 -0.0072 -0.2179 -0.0309
23136W        W39397  11.974  13.752  12.652 -0.1462 -0.2348  0.2093
23137W        W39398   2.701   5.126  13.838 -0.2889 -0.0194  0.2822
23138W        W39399   2.651   2.640   5.413 -0.2659  0.0454 -0.1137
23139W        W39400   5.807  11.317  15.899  0.2487  0.1632 -0.1429
23140W        W39401   5.012  18.275  13.339  0.4547 -0.0956 -0.3020
23141W        W39402   2.131   0.913  14.084  0.0590 -0.0594 -0.2924
23142W        W39403  15.129   4.188  14.973 -0.2822 -0.0907  0.1803
23143W        W39404   4.679   8.471   0.203 -0.2730 -0.1830  0.0017
23144W        W39405   5.449  15.720  15.399 -0.0368 -0.2366 -0.0666
23145W        W39406  13.885  12.313   5.449 -0.4553 -0.2498  0.0492
23146W        W39407  15.725  16.032   0.246 -0.0753 -0.0520 -0.0535
23147W        W39408   4.094   6.084   0.797 -0.0423 -0.1096 -0.2024
23148W        W39409   6.894   8.280   5.830 -0.3313  0.0391 -0.3909
23149W        W39410   8.569  12.499   1.084  0.1220 -0.0238 -0.2380
23150W        W39411   4.233   8.906  12.470  0.1800 -0.2092  0.0400
23151W        W39412  15.234   3.775  14.734  0.0631 -0.1010  0.4123
23152W        W39413  11.599  16.502  13.651 -0.1814 -0.0341 -0.1059
23153W        W39414   6.633   3.943   0.166  0.2228 -0.0449  0.0565
23154W        W39415  11.485  12.239   0.083 -0.0436 -0.1651  0.0971
23155W        W39416   0.257  13.326   4.439  0.0304 -0.1914 -0.0850
23156W        W39417   6.606  13.531   4.918 -0.1987 -0.0276 -0.1922
23157W        W39418   7.924   3.332  11.939  0.1633 -0.3767  0.1910
23158W        W39419  17.093   6.055   0.596 -0.0497  0.0563  0.2429
23159W        W39420   2.641   8.936   6.134 -0.2571 -0.2869 -0.2915
23160W        W39421   8.034  17.594   2.098  0.0912  0.3478  0.1951
23161W        W39422  14.036  15.940  13.342  0.1236  0.2615  0.2254
23162W        W39423  15.725   2.016   0.382 -0.0822  0.0961  0.0981
23163W        W39424   9.622   9.370   2.777  0.2071 -0.0277 -0.0047
23164W        W39425  11.424   5.968   6.114  0.2082  0.2193 -0.0179
23165W        W39426   9.005   4.459   0.348  0.3062  0.1550  0.2140
23166W        W39427   7.094  16.155   1.653 -0.1662 -0.1409  0.3492
23167W        W39428   4.459  13.250   4.430  0.0578 -0.0990 -0.2948
23168W        W39429   1.008  14.227  11.710  0.4429 -0.2168  0.0934
23169W        W39430   8.017  11.070   1.085 -0.0864  0.0160 -0.0125
23170W        W39431  12.692   1.281  14.521 -0.3682 -0.2453  0.0917
23171W        W39432  17.238  11.527   5.807  0.2813  0.0721  0.0113
23172W        W39433   1.219   3.081   1.706  0.0655  0.1162 -0.1559
23173W        W39434  17.015   0.830  14.133  0.2698  0.1172 -0.0794
23174W        W39435  10.464  16.422   2.047 -0.1150 -0.1069  0.0871
23175W        W39436  17.564   8.488  15.658 -0.0777  0.0338 -0.3964
23176W        W39437   8.198  13.214  16.151 -0.1199  0.5270  0.2606
23177W        W39438  14.877  17.005  11.819  0.0418 -0.0064  0.0207
23178W        W39439  16.668  16.517  12.175  0.0976 -0.2634  0.2279
23179W        W39440  10.832   1.425   3.328  0.3074  0.0380  0.0160
23180W        W39441  13.068  16.469  11.706  0.1891  0.1147  0.1926
23181W        W39442   5.887   1.533   0.893 -0.0373 -0.1896 -0.1526
23182W        W39443   3.853  12.341   5.421 -0.3090 -0.0198  0.3359
23183W        W39444  11.655  10.812  11.083 -0.4139  0.0744  0.0426
23184W        W39445   4.610  17.421  14.291  0.0076 -0.1977  0.1418
23185W        W39446  13.639   8.810   4.277  0.0233  0.1172 -0.2849
23186W        W39447  15.620   1.572   3.212  0.1255 -0.0577  0.3689
23187W        W39448  17.337  11.336  11.545  0.1902  0.1966 -0.1013
23188W        W39449   3.439   7.711   3.068  0.0015  0.0753 -0.0709
23189W        W39450   8.997   7.733   1.517 -0.1549  0.1344  0.0400
23190W        W39451  16.317  11.661   3.820 -0.1365  0.0299  0.0309
23191W        W39452   6.176  16.741  12.140 -0.0610  0.0360 -0.3196
23192W        W39453   2.311  11.182  14.932 -0.0078  0.2318  0.2753
23193W        W39454  13.311   1.792  13.363  0.1145 -0.1675  0.1039
23194W        W39455  15.578  18.063  11.405  0.1057  0.1001  0.2503
23195W        W39456  11.955   2.424   4.602 -0.0082  0.1847  0.0215
23196W        W39457  18.220   4.381   2.972  0.1849  0.2292 -0.1754
23197W        W39458  11.152  16.855  14.344  0.2388  0.0262 -0.2775
23198W        W39459   0.820   1.526   3.973 -0.0908  0.0741 -0.1688
23199W        W39460  17.479   2.866   4.608  0.0448  0.0707  0.1521
23200W        W39461  17.767   8.910  15.485 -0.1150 -0.1560 -0.0707
23201W        W39462   8.649   3.300   5.492 -0.2900  0.2890 -0.2367
23202W        W39463  15.271   4.473  11.838  0.1097  0.3527  0.4096
23203W        W39464   6.444  13.707   0.460  0.1511  0.0942 -0.0303
23204W        W39465   3.356   8.590  11.333 -0.2318 -0.2575 -0.0237
23205W        W39466   0.367  16.056  13.652  0.0815 -0.2995  0.3840
23206W        W39467  13.641  10.368   4.839 -0.4622 -0.0234 -0.0017
23207W        W39468   9.238  15.631  14.355 -0.0725  0.1560 -0.1725
23208W        W39469   7.429  17.026  15.404 -0.1526 -0.2356  0.0011
23209W        W39470  12.969  14.992  14.736  0.0858  0.2328  0.2725
23210W        W39471   9.329   6.244   2.508 -0.1849 -0.0517  0.0494
23211W        W39472  16.991  13.380   2.123  0.2859 -0.0189  0.4260
23212W        W39473   9.326  17.255   3.805 -0.0101  0.3641 -0.2230
23213W        W39474   0.285   6.062  13.492  0.3758 -0.1004 -0.3483
23214W        W39475  13.058   3.472   5.570  0.2474  0.1306 -0.1825
23215W        W39476   2.533   4.581   4.179 -0.1845  0.1315 -0.0301
23216W        W39477  14.508   5.306  13.678 -0.0850 -0.0909  0.1111
23217W        W39478  11.454   7.573   4.801  0.1259  0.1256 -0.1013
23218W        W39479  14.149  15.561  12.308 -0.2678  0.1341  0.2568
23219W        W39480   3.355   0.458   0.763  0.1131  0.1207  0.0680
23220W        W39481  18.204  17.285   3.520  0.0666  0.1006 -0.1996
23221W        W39482  16.944  16.975  13.225  0.0542 -0.0088  0.0490
23222W        W39483   4.410  16.520  11.373  0.0266  0.0046 -0.0282
23223W        W39484  18.270   0.840   4.349  0.0992 -0.0331  0.1378
23224W        W39485  15.085   4.792  12.595  0.1454 -0.2286 -0.2007
23225W        W39486  10.381   2.618   0.416  0.0288  0.2543  0.0804
23226W        W39487   4.162   5.668  11.658  0.3089  0.6438  0.0415
23227W        W39488   7.863   5.426  15.130 -0.1479 -0.1035 -0.3207
23228W        W39489   5.266  16.211  14.631 -0.0885  0.2005  0.2077
23229W        W39490   0.175  12.099  13.557  0.1663  0.1223  0.0356
23230W        W39491   1.452   2.795  13.450  0.2477 -0.0589  0.0188
23231W        W39492  15.066  17.566  13.602  0.1069 -0.0224 -0.3461
23232W        W39493   4.693   7.720  15.626  0.1908 -0.0631 -0.0609
23233W        W39494   6.367   2.146  13.151 -0.0662  0.0456  0.2520
23234W        W39495   2.314   5.194   3.227  0.0367 -0.1969 -0.1660
23235W        W39496   9.235   7.795  14.847  0.0160  0.0272  0.0160
23236W        W39497   7.914  14.546  15.882  0.0855  0.1821 -0.0315
23237W        W39498   4.774   1.445  11.451  0.0918  0.1925 -0.1100
23238W        W39499   0.920  10.614   2.159 -0.2394 -0.1655 -0.4174
23239W        W39500  12.846   0.026   3.857 -0.2315 -0.0133 -0.1422
23240W        W39501   4.197  10.043  14.862  0.2464 -0.1618 -0.0501
23241W        W39502  10.244   9.125  12.122  0.1499  0.3188  0.0501
23242W        W39503   4.693   2.135  15.093 -0.3581 -0.1753  0.1982
23243W        W39504  15.510   4.301   2.887  0.0890 -0.2637  0.0261
23244W        W39505   6.138  15.471   4.460  0.2189  0.1659  0.0654
23245W        W39506   5.706  13.194  15.645  0.1875  0.2950 -0.2024
23246W        W39507   4.301   0.652   5.334 -0.0693  0.1688 -0.0345
23247W        W39508  17.396   6.052  13.456  0.0543 -0.1665  0.0145
23248W        W39509   7.418  17.403  15.769 -0.1823 -0.0480  0.1259
23249W        W39510  15.845   6.038   4.788  0.3356  0.2193 -0.2095
23250W        W39511   3.071  10.720  15.973 -0.0829 -0.1470 -0.1603
23251W        W39512   3.582   7.872  13.586 -0.0306 -0.0341 -0.0323
23252W        W39513  11.881  10.873   1.101 -0.0070 -0.2449 -0.0714
23253W        W39514  11.883  17.264   5.606  0.2985 -0.1808 -0.1507
23254W        W39515  18.175   5.790  14.013  0.1997 -0.0353  0.1139
23255W        W39516   9.285   7.501   0.739 -0.0124  0.4298 -0.2079
23256W        W39517  14.104   7.980  13.686  0.1011 -0.2072 -0.1348
23257W        W39518   5.786   1.372   5.261 -0.0411 -0.1093 -0.1586
23258W        W39519  14.688  13.628  14.798 -0.2900  0.1379 -0.1523
23259W        W39520  12.595   7.331   0.110 -0.1149 -0.0964  0.1792
23260W        W39521   2.481   7.575   3.156  0.0272  0.0884 -0.0120
23261W        W39522   0.638   5.237   4.370 -0.1561 -0.1836 -0.1463
23262W        W39523  12.176  10.423  11.741  0.2481  0.1433 -0.1452
23263W        W39524   8.599   3.891   1.146  0.0065  0.2685  0.1234
23264W        W39525   6.552  15.402  11.390 -0.0474  0.1946 -0.0234
23265W        W39526  12.423   9.250   0.155  0.0069 -0.1149 -0.2439
23266W        W39527   5.279   1.239   2.535 -0.4810  0.3146  0.2257
23267W        W39528   9.629  14.469  11.726 -0.1483  0.1255 -0.1096
23268W        W39529  12.424   0.929   5.083 -0.0513  0.3408 -0.1862
23269W        W39530   7.569   2.595   4.281 -0.0950  0.3200  0.2863
23270W        W39531   4.522  18.371  13.688 -0.2677  0.0192 -0.0551
23271W        W39532   7.321  13.439  14.377 -0.2025  0.1297  0.0491
23272W        W39533  10.242   4.480  14.932  0.1613  0.1438 -0.0578
23273W        W39534   2.262  13.856   4.680 -0.2037  0.0407  0.0715
23274W        W39535   0.505   3.112   5.175  0.0677  0.2845 -0.4153
23275W        W39536  14.322  13.388  15.128  0.4506 -0.2742 -0.1177
23276W        W39537  13.095  17.120  15.116  0.4279 -0.1604  0.0077
23277W        W39538  13.332  12.110   0.183 -0.1451 -0.2028 -0.0731
23278W        W39539  15.026   1.151  12.682  0.0924 -0.1252  0.1641
23279W        W39540   1.284   2.060  15.265  0.0244 -0.0462 -0.1140
23280W        W39541   9.637  17.415   1.197  0.0835 -0.2053 -0.0901
23281W        W39542  18.038  12.289  12.804 -0.0109 -0.0939  0.1545
23282W        W39543   7.280  18.300   3.164 -0.0952 -0.1464  0.3375
23283W        W39544  17.980   8.553   0.172 -0.1022  0.2216  0.3323
23284W        W39545   6.557   6.679  14.170  0.3112 -0.0700 -0.1759
23285W        W39546   1.600   2.599  14.583 -0.0107  0.3860 -0.1639
23286W        W39547   3.655  16.428   0.659  0.0075  0.0365 -0.0197
23287W        W39548   3.337  14.883  15.832 -0.0486  0.0482  0.1072
23288W        W39549   2.206  18.127  12.867  0.0215  0.1064 -0.2326
23289W        W39550  18.363   4.175   1.168 -0.0063  0.0558 -0.1627
23290W        W39551  11.278   4.960  12.873  0.0984 -0.4730 -0.0284
23291W        W39552  13.567  13.969  11.415  0.1250  0.1691  0.1192
23292W        W39553   4.426   9.001   2.673  0.1702  0.0490 -0.0017
23293W        W39554  17.190  17.567   4.969  0.1914 -0.2576  0.1967
23294W        W39555   9.787   1.379  10.562  0.1084  0.2990 -0.0882
23295W        W39556   2.516  13.829   0.327 -0.2092 -0.1653  0.2573
23296W        W39557   9.609  10.242  16.055 -0.0538 -0.2278 -0.0836
23297W        W39558  17.514   4.626   3.764 -0.0499  0.0282  0.0925
23298W        W39559   6.105  15.257   1.057 -0.0408  0.1192 -0.0609
23299W        W39560  15.758   3.203   2.161  0.0704 -0.0543  0.0229
23300W        W39561   9.488   4.015   0.838 -0.2758 -0.3845 -0.1465
23301W        W39562  13.150   3.395  11.750 -0.0830 -0.0761 -0.0474
23302W        W39563  14.078  12.058   1.680  0.0824 -0.1728  0.2658
23303W        W39564  10.236  11.559  11.545 -0.0645  0.0451  0.1460
23304W        W39565  11.959  14.824   0.920 -0.1954  0.1299 -0.2031
23305W        W39566   5.049  16.704  14.752  0.0664 -0.1012 -0.0456
23306W        W39567  12.732  13.464  15.988 -0.1870  0.0466 -0.0799
23307W        W39568   3.224  18.344  14.116  0.1286 -0.2071  0.0978
23308W        W39569   5.464  14.636  15.630 -0.1633 -0.1419 -0.1722
23309W        W39570   6.209  14.198  14.247  0.0143 -0.0909 -0.0326
23310W        W39571  10.297   6.518  14.254  0.2001 -0.3125  0.0683
23311W        W39572   6.172   0.722   1.617  0.1355 -0.0005 -0.0845
23312W        W39573   5.884  15.182  12.895 -0.1492  0.2663  0.1444
23313W        W39574  14.599   0.687   4.555  0.1708 -0.1567  0.0571
23314W        W39575   3.387  12.473  13.078 -0.3411  0.0953 -0.0720
23315W        W39576   5.432   0.110  13.009 -0.0330  0.3769 -0.3344
23316W        W39577  17.516   5.184   2.313 -0.0917  0.2236 -0.3513
23317W        W39578  16.846   0.939  12.924  0.1454 -0.0654  0.3248
23318W        W39579  16.784  17.250   5.887 -0.2383 -0.0449 -0.3282
23319W        W39580  12.725   2.739   3.082 -0.1791 -0.0980  0.0024
23320W        W39581   1.343  15.282   0.482  0.0926 -0.1153 -0.2048
23321W        W39582  12.635   4.583   1.828 -0.1316  0.2229 -0.0776
23322W        W39583  10.244  14.481  12.509 -0.1742  0.1973  0.0663
23323W        W39584  13.958   4.109  15.570 -0.0660 -0.1342 -0.0396
23324W        W39585  16.565  15.917  11.621 -0.0336  0.1988 -0.2482
23325W        W39586   6.916  11.717  15.137 -0.1701  0.1221  0.0856
23326W        W39587   1.039   1.452   0.782  0.0882 -0.1824  0.0737
23327W        W39588  16.135  14.596  14.059 -0.0714  0.0033 -0.0990
23328W        W39589   7.146  17.714   1.159  0.0542 -0.1549 -0.0463
23329W        W39590  15.119  17.640   5.793  0.0726 -0.0160  0.1607
23330W        W39591  16.867   4.197  11.856 -0.2010 -0.2808  0.0477
23331W        W39592   3.187  12.353  16.226 -0.2055 -0.0122 -0.0937
23332W        W39593   6.770  18.363   2.141  0.1357 -0.0075 -0.2464
23333W        W39594   7.845   1.671  16.018 -0.2453  0.3646 -0.1782
23334W        W39595  14.525   6.303   3.965 -0.0495 -0.1652  0.0671
23335W        W39596   0.252   1.402  11.792  0.1790  0.1931 -0.2383
23336W        W39597  13.563  15.192  15.433 -0.0874 -0.0312 -0.3239
23337W        W39598  10.665  17.561   3.439 -0.0344  0.1192 -0.0967
23338W        W39599   3.637  10.928  11.458  0.0404  0.3061  0.1617
23339W        W39600   7.027   5.303   1.953  0.3355 -0.0736 -0.2129
23340W        W39601   5.973  17.609   3.184 -0.2007  0.2418  0.1010
23341W        W39602   1.230   3.037   3.391  0.0609  0.1440 -0.0139
23342W        W39603  13.142   9.472  15.333  0.1359 -0.0507  0.0429
23343W        W39604   7.918  14.389   0.116  0.0928  0.2222 -0.0886
23344W        W39605   9.184   1.732  12.534  0.4236 -0.0613 -0.2473
23345W        W39606   2.768   3.774   3.125  0.0304  0.1507  0.1590
23346W        W39607  10.467   3.021   4.844  0.2464 -0.0412 -0.0868
23347W        W39608   0.850  10.149   3.963  0.0004 -0.2655 -0.0927
23348W        W39609   7.370   1.715   5.182  0.0477  0.1347 -0.1367
23349W        W39610   7.987  10.446   0.229  0.1650 -0.0504 -0.2390
23350W        W39611   3.989  17.747  14.878 -0.2651 -0.1043  0.3456
23351W        W39612   0.841  13.366   1.162  0.1392 -0.2566  0.1126
23352W        W39613  10.153  15.672   0.773 -0.0901 -0.2411 -0.2203
23353W        W39614   3.847  12.377  14.852  0.0460  0.0167 -0.1518
23354W        W39615  17.707  12.825   0.743  0.0099 -0.4680  0.1525
23355W        W39616   9.068  16.459   0.241 -0.1827  0.2357  0.0889
23356W        W39617   8.435  10.464   3.337  0.0995 -0.2234 -0.1850
23357W        W39618   5.937  18.274   0.596  0.1388 -0.0118  0.0116
23358W        W39619   8.777   0.413   1.850  0.2666  0.2301  0.1574
23359W        W39620  11.012   1.553   0.304 -0.0801 -0.0450  0.1578
23360W        W39621  10.246  10.661   2.874  0.2197 -0.0607  0.0883
23361W        W39622   8.278  13.875  11.801 -0.1466  0.1825 -0.0476
23362W        W39623   1.165  10.320   0.567  0.0523  0.1899 -0.0112
23363W        W39624   7.561  17.890  15.292  0.0420  0.0533 -0.0813
23364W        W39625   9.930   1.084  15.731  0.0199  0.0430  0.0876
23365W        W39626   6.203   4.309   0.119  0.0535  0.0699  0.0620
23366W        W39627  11.375  14.207  12.393 -0.2222  0.0154 -0.1197
23367W        W39628   5.280   5.098   1.249 -0.0933  0.0030 -0.0434
23368W        W39629   7.385   7.439   3.580  0.1512 -0.1922 -0.4332
23369W        W39630   9.471   4.435  16.135  0.1163  0.1098 -0.0219
23370W        W39631  10.683  14.999  13.829 -0.0656  0.1162  0.0945
23371W        W39632   6.056   8.321   1.323  0.0081 -0.0367 -0.1129
23372W        W39633  11.518  11.716  15.794 -0.0979  0.0785 -0.1895
23373W        W39634   3.581   1.065   5.114 -0.1234  0.0613 -0.0287
23374W        W39635  14.960  10.057   1.248  0.1329 -0.0283  0.0991
23375W        W39636  11.090   7.717   2.235  0.0811 -0.1196 -0.1265
23376W        W39637  14.499  14.703   0.514 -0.0850 -0.1662  0.2210
23377W        W39638  13.403   7.741   4.361  0.1937 -0.1841 -0.1070
23378W        W39639   7.923   5.125  13.206  0.0633 -0.3907  0.0970
23379W        W39640   3.561  17.936   4.363 -0.0025 -0.3340  0.1351
23380W        W39641   4.087  12.679  10.281 -0.1141  0.2429  0.0461
23381W        W39642  14.024  13.906  13.860  0.2633 -0.0034 -0.1771
23382W        W39643   8.060   1.615  13.340 -0.1868  0.0383 -0.2434
23383W        W39644  16.534   9.574  15.327 -0.0511  0.1290  0.0370
23384W        W39645  13.258   1.659  12.847 -0.0422  0.1957  0.3649
23385W        W39646   2.686  12.443  16.065  0.2643  0.1786 -0.1583
23386W        W39647   2.662   4.294   1.271  0.0911 -0.0556  0.1822
23387W        W39648   0.187   6.589   5.185 -0.4570 -0.1380  0.2641
23388W        W39649  16.836  17.912  11.395  0.2644 -0.1950 -0.0291
23389W        W39650   8.164  15.830   1.293 -0.1241 -0.1050 -0.0919
23390W        W39651   3.683   8.415  14.318  0.1349  0.0351  0.4730
23391W        W39652  10.539  11.413  14.863 -0.1382  0.1811 -0.0737
23392W        W39653  10.455  16.995   4.528  0.3946  0.1165  0.0760
23393W        W39654  17.871  14.419   4.012  0.3154 -0.0163  0.0942
23394W        W39655   1.162  14.544  15.950 -0.3365  0.1354 -0.1251
23395W        W39656   5.053  14.534   5.517 -0.0229  0.0822  0.1824
23396W        W39657  18.006   9.579   2.794 -0.0808 -0.1192 -0.2289
23397W        W39658   1.122   1.463   3.548 -0.2572  0.1773 -0.3499
23398W        W39659  15.689  15.574   3.125  0.6255 -0.2525  0.1030
23399W        W39660   2.332   4.995   1.948 -0.0896 -0.1358  0.5344
23400W        W39661  14.386   8.379  16.206 -0.0641 -0.1659  0.2993
23401W        W39662   3.845   0.319   0.920 -0.0048  0.1851  0.0670
23402W        W39663  11.234  15.639  11.604  0.1545 -0.1225 -0.3421
23403W        W39664  12.049  13.091  14.469  0.0864  0.2489  0.0086
23404W        W39665   5.311   3.969  14.400  0.2328 -0.1988  0.0286
23405W        W39666   7.260   7.133   1.056 -0.1703  0.2717 -0.0633
23406W        W39667  15.484  14.245   2.625 -0.1491 -0.0127 -0.1711
23407W        W39668   2.300   1.111  12.459  0.0647  0.2813 -0.0987
23408W        W39669   9.946  10.865  11.359 -0.0744  0.0625  0.1001
23409W        W39670   5.629  17.937  14.530 -0.1483  0.0171  0.1291
23410W        W39671   4.390  14.221  14.408 -0.4418 -0.1332 -0.6290
23411W        W39672  12.732   2.368   1.520  0.6336  0.0577 -0.0452
23412W        W39673   4.819   7.142   4.378  0.4026  0.0010  0.0047
23413W        W39674  12.061  13.480  15.336 -0.1926  0.0494 -0.0937
23414W        W39675  16.478  13.031  14.675 -0.1689 -0.0309  0.1483
23415W        W39676   3.401  10.020  14.250  0.1286  0.2227  0.1221
23416W        W39677   1.825   4.943  13.692 -0.0815  0.2124 -0.3176
23417W        W39678   9.087  12.693   1.821  0.2634  0.0156  0.1725
23418W        W39679   2.430  13.569   2.401  0.3351  0.0192 -0.0746
23419W        W39680  10.832   9.422  12.822  0.2549  0.3832  0.0984
23420W        W39681   3.139   0.827  12.380 -0.1435  0.3076  0.0803
23421W        W39682  16.000  15.967  13.818  0.1460  0.0142  0.0900
23422W        W39683   1.236  15.297   1.420  0.3877  0.1452 -0.2896
23423W        W39684   2.898  15.956   1.807  0.0035  0.1230  0.1827
23424W        W39685  14.488   3.056   2.060  0.0582  0.0675 -0.1517
23425W        W39686   1.427  11.317   2.260 -0.0187 -0.2823  0.1473
23426W        W39687  15.421  12.755  14.878  0.2032  0.0654  0.0789
23427W        W39688  12.528  13.376   5.031  0.1065  0.1271 -0.1891
23428W        W39689   3.959   0.803   4.916  0.2485  0.0977  0.0441
23429W        W39690   0.302  15.972  14.741 -0.2289 -0.0694  0.2101
23430W        W39691  10.041   3.953  11.719 -0.0253 -0.1274 -0.1281
23431W        W39692  14.939   5.327   4.980  0.0519  0.0057 -0.1892
23432W        W39693   7.843   9.950   0.379 -0.0372  0.1375  0.4359
23433W        W39694  18.225  14.050  13.152 -0.1045 -0.3563 -0.2126
23434W        W39695   4.572   2.510  13.607  0.0917  0.0048 -0.0289
23435W        W39696  10.321   1.245   0.440 -0.0597  0.1321  0.2519
23436W        W39697  15.036   7.521   5.136 -0.3901 -0.0261  0.1902
23437W        W39698  10.253  13.247  13.115 -0.0080  0.0897 -0.3468
23438W        W39699   0.752   1.029  15.793 -0.0680  0.2431 -0.2717
23439W        W39700   6.498   8.896   2.317 -0.2202  0.0177 -0.0828
23440W        W39701  12.224   4.225   0.011 -0.0414 -0.0927  0.0596
23441W        W39702  15.751   0.777  12.160  0.0342  0.0017  0.4093
23442W        W39703  17.185   7.758   4.582 -0.0710  0.1064 -0.2779
23443W        W39704   5.374  17.543  15.807 -0.0316 -0.1877  0.2242
23444W        W39705  17.264   8.602  13.072 -0.3458 -0.1205  0.2873
23445W        W39706  16.919  16.401  14.768 -0.1434  0.0128  0.0905
23446W        W39707   4.288   3.780  13.240  0.1751  0.0398  0.0609
23447W        W39708  14.640  15.812   1.788  0.0981  0.0709  0.0854
23448W        W39709  13.322  16.636  14.376  0.1744  0.1039  0.0721
23449W        W39710   9.605   3.840  10.433  0.0893 -0.0311 -0.0729
23450W        W39711  10.494  12.711  15.917  0.0385  0.1006 -0.3301
23451W        W39712  16.191  12.203   2.385  0.1871  0.1844  0.1552
23452W        W39713  13.415   9.780  13.144 -0.1520 -0.2912 -0.1932
23453W        W39714   1.960   0.172   3.933  0.1776  0.1486  0.2177
23454W        W39715   7.762  13.176  11.318  0.1491  0.1630 -0.1771
23455W        W39716  13.959  10.881  12.308 -0.1260 -0.2209  0.1130
23456W        W39717   6.389  12.111  15.875  0.3589 -0.1676  0.0901
23457W        W39718  14.543  17.880  11.450 -0.2679  0.0804 -0.2451
23458W        W39719   9.532   5.826   3.998 -0.3871  0.1221  0.3975
23459W        W39720   8.151   2.931  11.457 -0.2714 -0.1247  0.0676
23460W        W39721   2.359  16.567  11.598 -0.0451  0.0811 -0.1963
23461W        W39722  17.756   6.484  12.574 -0.1087 -0.0351 -0.1403
23462W        W39723   5.296  10.822   4.686 -0.0748 -0.2338 -0.0879
23463W        W39724  16.523  15.596   4.170 -0.4062  0.4756 -0.0439
23464W        W39725   6.988   1.786   4.093 -0.0719 -0.3006 -0.0603
23465W        W39726  12.829   5.995  13.796 -0.0684 -0.0277  0.3682
23466W        W39727   7.968   8.331   3.246  0.3019  0.1001  0.1704
23467W        W39728  17.837   2.606   4.229  0.1532  0.0084 -0.1334
23468W        W39729   3.630  13.748   2.561 -0.0079 -0.0213  0.2588
23469W        W39730  15.711   6.073  14.445  0.1826  0.3071 -0.0793
23470W        W39731  14.225   4.087   4.125  0.0781 -0.0824 -0.1470
23471W        W39732   6.704  16.074  14.511  0.1140 -0.1763 -0.1558
23472W        W39733   7.956  10.421   9.693 -0.0066  0.1388 -0.2995
23473W        W39734  12.915  12.019  13.946 -0.0676  0.1371  0.1764
23474W        W39735  12.468  10.064  11.866  0.0976  0.1387  0.0213
23475W        W39736   7.344   7.758  15.246 -0.0532  0.1541 -0.2615
23476W        W39737   8.043   8.407  11.047  0.3782 -0.0998  0.2746
23477W        W39738   1.222  17.973   1.865  0.2186 -0.2765 -0.0856
23478W        W39739   8.395   8.315  14.041 -0.0130  0.0259  0.3154
23479W        W39740   5.368   6.780   1.372  0.0899  0.0562 -0.0114
23480W        W39741   2.877  14.573  14.259  0.2438 -0.1672 -0.0190
23481W        W39742  11.177   8.694  12.849  0.1286 -0.0048  0.0974
23482W        W39743  10.282   0.143   3.948  0.0616  0.1754  0.0314
23483W        W39744   5.225   9.456   0.111 -0.1316  0.0101  0.3898
23484W        W39745   5.985   6.586  11.545  0.0052  0.1175 -0.2589
23485W        W39746   9.420   9.680  15.109 -0.1440 -0.0531  0.1802
23486W        W39747  17.716   9.557   0.282  0.0085 -0.0179 -0.1378
23487W        W39748  13.692  12.513  11.811 -0.1244 -0.1149 -0.0087
23488W        W39749   6.764   6.959  16.073 -0.0677 -0.0453 -0.2568
23489W        W39750   7.097  13.765   0.973  0.2658 -0.2020 -0.1214
23490W        W39751   6.277   9.180  15.776  0.1371  0.0490 -0.0626
23491W        W39752  14.980   0.188   1.392  0.1441  0.1044 -0.0426
23492W        W39753   0.503   0.335   5.910  0.1023 -0.2746 -0.0058
23493W        W39754   5.105  10.374   1.536 -0.0437 -0.3652  0.0373
23494W        W39755   1.479   1.590  12.930  0.0479 -0.3827  0.0605
23495W        W39756   4.334  10.355  11.731  0.1239 -0.2326 -0.2426
23496W        W39757   4.898   3.793   3.952 -0.2085  0.1619  0.1359
23497W        W39758  11.673   4.282   5.044 -0.0625  0.2263  0.1155
23498W        W39759  10.443  16.369  13.265 -0.1282 -0.0716 -0.2213
23499W        W39760  10.450   9.703  12.193 -0.0813  0.3730 -0.3182
23500W        W39761  10.704   9.155  10.973  0.3227 -0.0054 -0.1943
23501W        W39762   5.793  14.030   1.081  0.2038  0.1555  0.0342
23502W        W39763   8.645   3.280   6.086 -0.1865 -0.0920 -0.0522
23503W        W39764  16.825  12.204   4.849 -0.0425  0.1066  0.0620
23504W        W39765   7.267   8.801   3.534  0.1019  0.0122  0.2350
23505W        W39766  14.349  15.658   1.169  0.1635  0.2313 -0.2169
23506W        W39767  11.670  10.328  12.686  0.1632 -0.0699 -0.2367
23507W        W39768   0.078  13.446  14.681  0.2155  0.0695 -0.0321
23508W        W39769   8.411  18.225   3.784  0.1472 -0.0315 -0.4608
23509W        W39770  13.545  10.763  14.531  0.0506  0.1416 -0.7382
23510W        W39771   2.254   4.875  14.664  0.1667  0.1337 -0.2759
23511W        W39772  13.659   8.297  14.686 -0.0721  0.3770 -0.1863
23512W        W39773  13.033   7.067   5.523 -0.2347 -0.1350  0.1106
23513W        W39774   5.842  10.970   0.508  0.1592 -0.0910  0.2000
23514W        W39775   8.574  11.446   2.818  0.3325 -0.1050  0.1965
23515W        W39776  13.830  16.232  12.939 -0.2482  0.2085 -0.0969
23516W        W39777  10.497   2.960  13.458  0.3214 -0.0797  0.0033
23517W        W39778   3.968   3.476  14.949  0.2409 -0.1094 -0.3206
23518W        W39779   6.437  10.532  15.118 -0.1615 -0.1742 -0.2421
23519W        W39780  15.774  15.196  13.610  0.3631 -0.0705  0.2587
23520W        W39781  13.774  13.247   3.035 -0.3688  0.0130 -0.1709
23521W        W39782  13.469  14.597   0.778  0.3052  0.3672 -0.2332
23522W        W39783  10.149   0.093   1.697 -0.1822 -0.1219  0.0073
23523W        W39784  17.461   1.169  12.146  0.0446  0.0298 -0.0607
23524W        W39785  15.396   2.120   3.844  0.1431 -0.1753  0.0943
23525W        W39786   9.764   2.807  12.501  0.2892  0.0729 -0.0462
23526W        W39787   0.337   9.128  15.788  0.1152  0.1357  0.0079
23527W        W39788   8.297  12.673  12.970 -0.2062 -0.0424 -0.1128
23528W        W39789   9.431   0.936   1.818  0.0335 -0.0370 -0.3464
23529W        W39790   4.852   5.241   0.436  0.0778 -0.0769 -0.1241
23530W        W39791   0.526  17.062  12.716 -0.2560  0.1844  0.0718
23531W        W39792  10.532  14.733   2.776  0.0687  0.2386  0.2562
23532W        W39793  13.886   2.183   0.990 -0.0158 -0.1940 -0.0067
23533W        W39794  17.533   1.887  16.262 -0.0305  0.0667 -0.2112
23534W        W39795  17.869   5.692  15.059 -0.2573 -0.0128  0.0598
23535W        W39796  14.562   5.076  12.602  0.3957  0.1529 -0.0180
23536W        W39797  10.698  10.606  14.689  0.1448 -0.0382 -0.1675
23537W        W39798   2.751   5.999   0.973  0.0272  0.1810  0.4843
23538W        W39799  11.058   4.098  11.736 -0.2310  0.2605  0.0144
23539W        W39800  13.741  17.298   1.998 -0.1615 -0.0237  0.1054
23540W        W39801  12.967  16.668  15.806  0.2209 -0.0948  0.1188
23541W        W39802   7.120  11.818   1.199 -0.1733  0.1604 -0.0177
23542W        W39803  12.157   9.587   4.255 -0.1441 -0.1967 -0.0788
23543W        W39804  11.704   9.300  12.607  0.0898  0.1774  0.2371
23544W        W39805   5.526   7.083   2.685  0.0687  0.1235  0.0137
23545W        W39806  12.505  18.104  13.824  0.0569 -0.0370 -0.2236
23546W        W39807   7.998  10.158  11.217 -0.1433  0.1290 -0.0726
23547W        W39808   6.660  10.160   4.779 -0.1589 -0.0896 -0.1587
23548W        W39809  12.892  15.001  11.885  0.0511 -0.0781  0.1189
23549W        W39810   6.119   3.431   5.724  0.0174 -0.1371 -0.1612
23550W        W39811  16.542  17.712   0.806 -0.2537  0.0504 -0.2619
23551W        W39812  16.312   8.835   0.144  0.0557  0.0130 -0.2407
23552W        W39813   3.622   6.662   5.569 -0.1314 -0.2281 -0.3872
23553W        W39814   0.209   1.956  13.829  0.0968  0.1021  0.2145
23554W        W39815   2.497  17.740   1.757  0.1062  0.0942  0.0901
23555W        W39816   8.902  17.351   1.161 -0.2176 -0.3402  0.2925
23556W        W39817   9.079   8.578   4.841  0.0475  0.0882 -0.0148
23557W        W39818   3.857  15.686   5.189  0.0055 -0.0521 -0.1099
23558W        W39819  11.575   9.056   0.483 -0.2457  0.3476 -0.0475
23559W        W39820  18.321  18.366  12.834 -0.0941  0.0085  0.2807
23560W        W39821   8.851  15.052   4.097  0.0393  0.1601 -0.1417
23561W        W39822  13.128  17.432   3.689  0.0879  0.1770  0.0715
23562W        W39823   5.995   0.009   2.715 -0.2643  0.0279  0.0765
23563W        W39824  11.740   5.157  15.221  0.0567  0.2385  0.1022
23564W        W39825  15.438   7.163   2.378  0.1688 -0.3459  0.0393
23565W        W39826  10.235   3.860   0.611  0.2917 -0.1368  0.1787
23566W        W39827   0.427   9.523   4.465  0.3094 -0.3939  0.2707
23567W        W39828  10.573   9.574  11.176  0.1178 -0.3464 -0.0478
23568W        W39829   2.806   4.847  14.626  0.1444 -0.0545  0.1720
23569W        W39830  18.178  18.372  15.660 -0.1512 -0.0003 -0.0713
23570W        W39831   7.713   7.450  16.217 -0.2074 -0.1560 -0.2409
23571W        W39832   1.861   0.548   0.928  0.0000  0.0730  0.0353
23572W        W39833  10.188   9.108  15.490  0.1580 -0.1177 -0.2108
23573W        W39834   1.255   8.550   1.454 -0.0194  0.2176  0.2601
23574W        W39835   8.182  14.538   2.592 -0.1886 -0.0311 -0.3901
23575W        W39836   6.776  17.803  15.735  0.0170  0.1461 -0.4982
23576W        W39837  12.643   3.255   5.248  0.2645  0.0602 -0.1008
23577W        W39838   3.288   8.438   0.488  0.2019  0.0774  0.3646
23578W        W39839   2.823   9.205  15.647  0.0240  0.0495 -0.2260
23579W        W39840   2.915   9.583  16.067 -0.3576  0.0265  0.0857
23580W        W39841  12.477   0.154   4.263  0.2368 -0.1098 -0.2489
23581W        W39842  16.600   8.473   2.979  0.2030  0.2633  0.4051
23582W        W39843   7.113  14.084  12.624 -0.2091  0.0586  0.1043
23583W        W39844   6.729   6.525  14.601 -0.0767 -0.1497  0.1047
23584W        W39845   3.401  14.144  11.882  0.2653 -0.0596  0.0507
23585W        W39846  17.993   9.085   2.911  0.0917  0.1073  0.0403
23586W        W39847  17.598  14.412  16.148  0.0030 -0.0684  0.1396
23587W        W39848   3.493   2.060  12.372  0.1070  0.1192  0.3344
23588W        W39849   4.707  10.618  12.105 -0.0993 -0.0031 -0.0648
23589W        W39850  11.189   5.553  14.236  0.1328  0.3455  0.2732
23590W        W39851  11.670   3.562  10.355  0.2120  0.2978 -0.3444
23591W        W39852   1.642   2.107  14.383 -0.3029  0.3269  0.2337
23592W        W39853  10.971   6.707  13.647 -0.0070 -0.1533  0.4254
23593W        W39854   8.575   9.853  15.967  0.3534 -0.1146 -0.0301
23594W        W39855  16.318   4.152   2.946  0.1675  0.0299  0.0196
23595W        W39856  10.098  11.442   2.461 -0.1572 -0.0259  0.3083
23596W        W39857   8.104   9.302  15.351  0.6544 -0.1439 -0.2427
23597W        W39858   6.195  13.824   4.942  0.0879  0.1785  0.2901
23598W        W39859   4.851   4.067  14.552 -0.1079  0.1865 -0.2123
23599W        W39860   5.563  17.185  11.320  0.1463  0.1197 -0.0355
23600W        W39861   0.580  13.565   3.228 -0.4185 -0.1923 -0.3026
23601W        W39862  15.889   7.266  11.723  0.1253 -0.0725 -0.0007
23602W        W39863   8.639  15.793  15.837 -0.1505 -0.2636 -0.0738
23603W        W39864   1.409   9.969  13.585 -0.1841 -0.2046  0.0784
23604W        W39865  15.588   9.067  12.708 -0.1361 -0.2835  0.1542
23605W        W39866  13.512   4.538  13.083 -0.0672  0.0953 -0.1084
23606W        W39867  10.770  14.123   5.011  0.0496  0.0192  0.2418
23607W        W39868   5.435   7.980   4.189 -0.0640 -0.0120 -0.1173
23608W        W39869   8.661  16.628   4.460  0.0678  0.2293  0.1216
23609W        W39870  13.255  15.809  14.382 -0.0903  0.0697  0.0550
23610W        W39871  14.237   0.219  16.255  0.2825 -0.0335 -0.1566
23611W        W39872   4.127  17.962  13.005  0.1191 -0.1474 -0.2765
23612W        W39873  12.877   5.152  12.072 -0.0845  0.0508 -0.0929
23613W        W39874   0.848   2.296  12.904  0.3127  0.2520  0.1811
23614W        W39875   6.769   0.876   4.337  0.1609  0.0927  0.1247
23615W        W39876   6.017   0.573   6.018  0.0572 -0.1172 -0.1972
23616W        W39877  10.831  10.014  12.006  0.1332 -0.2527 -0.3470
23617W        W39878   9.185   5.834  15.839 -0.0918 -0.0368  0.1415
23618W        W39879  14.039  17.052  11.761 -0.1140 -0.1119  0.3464
23619W        W39880  11.281  18.125  15.329 -0.1341  0.1879 -0.0608
23620W        W39881   4.959  16.843  15.271  0.0604 -0.0905 -0.1279
23621W        W39882   4.509  13.419   1.626  0.2848 -0.1912 -0.4542
23622W        W39883  18.103   0.525   2.806 -0.0062  0.1259  0.0766
23623W        W39884   3.858   2.533   0.644 -0.0876 -0.2295  0.0395
23624W        W39885   1.018   5.386   4.630  0.0375  0.0227 -0.0344
23625W        W39886  10.020   3.690   1.508 -0.1946 -0.0317 -0.2015
23626W        W39887   6.757  11.089   0.041  0.3355 -0.0615 -0.0485
23627W        W39888  15.746  13.088   1.395  0.3047 -0.3036  0.0177
23628W        W39889   6.643   8.841  14.853 -0.0102 -0.1398  0.0829
23629W        W39890   9.188  14.364   0.473 -0.0429  0.1476  0.3132
23630W        W39891   9.513   0.434  11.634 -0.3246  0.2065 -0.0090
23631W        W39892  15.547   8.574  15.700 -0.0661  0.0137 -0.1515
23632W        W39893  16.533   2.965   5.042 -0.0558 -0.1068  0.1869
23633W        W39894  14.766  16.539  15.124 -0.0090 -0.0990 -0.0700
23634W        W39895  14.793   6.888   5.952 -0.0480 -0.2040 -0.0272
23635W        W39896  15.778   5.032   0.704  0.2795 -0.2876 -0.3429
23636W        W39897  13.772   1.748  13.658 -0.2192 -0.1601  0.0457
23637W        W39898   7.166   6.371  14.752  0.0798 -0.0261 -0.1974
23638W        W39899   3.636  10.316   3.791  0.2053  0.0776 -0.2007
23639W        W39900  16.429   9.393   4.341  0.0062  0.0544 -0.3440
23640W        W39901   8.270  17.859   4.634 -0.2591 -0.1724 -0.2693
23641W        W39902   6.901  16.194  13.083  0.0218 -0.3341  0.0048
23642W        W39903   1.380   9.562   4.621  0.3886 -0.0290  0.3142
23643W        W39904  10.754   4.229   0.124 -0.0813 -0.2582 -0.1042
23644W        W39905   8.552   1.243   2.804  0.0031  0.0441 -0.1953
23645W        W39906  17.820   2.865  14.755  0.1316  0.0022  0.1140
23646W        W39907   4.266  14.472   0.099 -0.0498  0.2018  0.3263
23647W        W39908  10.276  12.073  11.461  0.1122  0.0814  0.1516
23648W        W39909   8.791  12.919  13.079  0.1959 -0.2170  0.1979
23649W        W39910   2.854  16.631  15.033  0.3723 -0.0809 -0.1640
23650W        W39911  12.235   5.117   5.009 -0.3273 -0.0548 -0.0622
23651W        W39912   5.325  15.732   0.849 -0.1739 -0.2371  0.2210
23652W        W39913  14.569  12.149   2.975 -0.0050  0.0209  0.1900
23653W        W39914  16.708  16.799  16.023 -0.0105 -0.2225  0.1358
23654W        W39915   2.329   4.373  14.559  0.1461  0.0013 -0.1344
23655W        W39916  14.268   0.692   2.232 -0.1348  0.3651 -0.1190
23656W        W39917   9.168   5.872   3.545  0.1669 -0.1800  0.0690
23657W        W39918  13.661   2.737   3.129 -0.1464  0.0379 -0.3184
23658W        W39919   0.995   1.347  15.532 -0.1038  0.1337 -0.1499
23659W        W39920   2.351   5.682  15.073 -0.1025 -0.3388 -0.0780
23660W        W39921  13.923   1.909   4.731  0.1107 -0.1099  0.0204
23661W        W39922   3.710  16.953  15.580 -0.0025 -0.0515  0.0915
23662W        W39923   5.734   5.070   1.661  0.4140 -0.1982 -0.1417
23663W        W39924  17.032  13.371   5.704  0.1907  0.3076  0.0336
23664W        W39925   7.428  11.459   0.485 -0.0259 -0.2505 -0.2139
23665W        W39926   0.673  14.240  15.505  0.2963  0.2850 -0.1389
23666W        W39927  13.711  11.184   4.273 -0.1022 -0.0760 -0.2885
23667W        W39928   1.306  14.430  14.947 -0.2388  0.1030  0.0069
23668W        W39929   5.387   6.346  11.873  0.3272 -0.1915 -0.1354
23669W        W39930   4.905  15.690   1.111  0.2128 -0.0374 -0.0755
23670W        W39931   5.760  12.758  15.355 -0.0760 -0.1323 -0.2666
23671W        W39932   8.727  11.237  10.431  0.2684  0.1237  0.0381
23672W        W39933  11.328  17.905   2.782 -0.0444  0.1074  0.2100
23673W        W39934   6.770   7.125  10.624 -0.1806 -0.2188 -0.1049
23674W        W39935  17.595  14.571   1.228  0.0791  0.2509 -0.0751
23675W        W39936  12.397  15.891   2.325  0.1505  0.1684  0.2897
23676W        W39937   4.028  15.891  15.921 -0.1127  0.2360  0.3017
23677W        W39938  17.790  16.812  12.632  0.1240  0.0785 -0.0969
23678W        W39939  10.326   1.199   2.414  0.2797 -0.1276  0.2738
23679W        W39940   1.552   7.321   0.403 -0.1601 -0.0862 -0.0680
23680W        W39941  17.612   6.027   1.631 -0.0600 -0.2710  0.2948
23681W        W39942  16.039   0.327   4.477 -0.1352 -0.2447  0.1476
23682W        W39943   2.330   7.943   5.326  0.0434 -0.1681 -0.0871
23683W        W39944   8.362   3.371  11.145 -0.1616  0.1093  0.0064
23684W        W39945  13.113  11.250  14.391 -0.2443  0.0935  0.3556
23685W        W39946  17.769   9.854   1.992  0.4745 -0.0479  0.2611
23686W        W39947   6.909   6.688  15.130 -0.0084 -0.0624  0.0803
23687W        W39948   9.017  16.761  14.209 -0.1694  0.1385  0.0369
23688W        W39949  17.251   0.881  15.431  0.1373  0.0919  0.0263
23689W        W39950   8.811   2.933   4.049  0.4836 -0.2975  0.1726
23690W        W39951   4.968   6.587  11.724  0.0434  0.0501 -0.1025
23691W        W39952   4.722  15.500   5.454  0.0598  0.1447  0.3718
23692W        W39953  10.674   5.658   0.668 -0.0151 -0.5759  0.5740
23693W        W39954   6.746  15.023   0.710 -0.2486 -0.0280 -0.3438
23694W        W39955   5.721   5.069  12.547  0.0006  0.0266 -0.2296
23695W        W39956  13.680  14.418  15.651  0.1166 -0.1125  0.1260
23696W        W39957   9.406   2.631   5.774 -0.2951 -0.3707  0.0332
23697W        W39958  16.726   5.668  10.523 -0.2929 -0.2452 -0.2230
23698W        W39959   1.321  13.905   2.703 -0.0449  0.2311  0.1708
23699W        W39960   6.196   7.061  11.447 -0.1603 -0.1402 -0.0715
23700W        W39961   4.024  13.729  12.435  0.2133 -0.0315  0.0224
23701W        W39962  14.525   1.270  12.829  0.0540 -0.1081  0.2773
23702W        W39963  15.750  18.337   2.594  0.4990 -0.1133 -0.0405
23703W        W39964  17.008   9.696  11.153 -0.1869  0.0539  0.2047
23704W        W39965  13.903  14.737   2.337  0.1737  0.2489 -0.1740
23705W        W39966   1.086   6.692  14.026 -0.2783 -0.0022  0.1056
23706W        W39967  17.861   0.078   2.964 -0.1118 -0.0314  0.4115
23707W        W39968  13.783  15.083   4.905 -0.1138  0.0022 -0.0074
23708W        W39969   5.219   5.785  12.513 -0.2159  0.1072  0.0511
23709W        W39970   6.312   1.751   3.515  0.1693  0.0145  0.1603
23710W        W39971  12.349   8.625   1.807 -0.2223 -0.1916  0.0816
23711W        W39972  10.693   3.243   2.606  0.2619  0.0217  0.3271
23712W        W39973   9.743   3.175  14.225  0.1735  0.0754 -0.1011
23713W        W39974  11.904  13.516   1.360  0.1045 -0.0233 -0.0275
23714W        W39975   5.903  11.726  13.162 -0.0646 -0.0719 -0.3629
23715W        W39976   5.524  12.350   5.333  0.0019  0.2933  0.1363
23716W        W39977   4.280  13.544   4.002  0.2183 -0.1309  0.1098
23717W        W39978   1.337   1.643   3.956  0.0044  0.1676  0.1083
23718W        W39979   3.814  12.624  13.983 -0.2362 -0.0091  0.1084
23719W        W39980   4.929   7.905   5.526 -0.1671  0.2647  0.2768
23720W        W39981  17.600  14.970   2.511  0.0767 -0.3452  0.1758
23721W        W39982  12.444  14.948   4.699 -0.1416 -0.1818 -0.1619
23722W        W39983  16.973   2.320  13.750  0.2522  0.1974  0.2727
23723W        W39984  17.337   9.706  14.031 -0.1609  0.1797  0.2259
23724W        W39985  13.195   2.704   3.380 -0.1804 -0.3266 -0.0014
23725W        W39986   8.917   0.061   1.542 -0.1823  0.2013  0.3719
23726W        W39987   8.596   0.637   3.427  0.1690 -0.1560  0.1713
23727W        W39988  11.458  12.854  14.389 -0.1754  0.1186  0.3211
23728W        W39989  13.052   2.489  14.634  0.1967 -0.0005  0.1178
23729W        W39990  10.278  17.894  12.360  0.4867  0.0578 -0.0703
23730W        W39991  16.406  11.944   4.351 -0.0518  0.0009  0.2211
23731W        W39992  12.966   5.205  14.899  0.5081  0.0122 -0.1023
23732W        W39993   4.202  13.104   3.688  0.2132  0.2860 -0.0599
23733W        W39994  15.012  16.655   5.938 -0.0102 -0.1662 -0.0743
23734W        W39995  16.188   8.048   4.472 -0.1118  0.1213 -0.1634
23735W        W39996  10.472  13.015  15.418  0.1588  0.1990  0.1224
23736W        W39997  13.934   6.339   2.116  0.1785 -0.1855 -0.2548
23737W        W39998  10.446   2.169  13.786 -0.0979  0.0207 -0.1076
23738W        W39999  15.031   7.380  14.494 -0.2149  0.1839  0.3371
23739W        W40000   8.576   6.147  12.596 -0.1234 -0.0339  0.0083
23740W        W40001   7.136  11.158   5.325 -0.0562 -0.0680  0.1293
23741W        W40002   1.521  10.562  15.033 -0.1187 -0.1951  0.1087
23742W        W40003  16.939   1.056  15.099  0.2715  0.1617 -0.1750
23743W        W40004  15.805   6.908  12.654 -0.1413 -0.0649  0.0572
23744W        W40005   9.328  17.446   0.347 -0.1821 -0.0381 -0.0749
23745W        W40006   7.296   8.839   0.107 -0.0014 -0.0759  0.0712
23746W        W40007  14.151  13.832  12.095 -0.1554 -0.1463  0.0381
23747W        W40008   4.097  14.583   3.559 -0.0520 -0.0400  0.0735
23748W        W40009   3.868   1.658   1.570  0.3658  0.1348 -0.1001
23749W        W40010   1.381   3.599  14.222  0.2054 -0.1313  0.1660
23750W        W40011  10.699  16.828  16.203 -0.2512 -0.0484  0.0633
23751W        W40012   7.043  10.465  15.045 -0.1095  0.1612  0.1933
23752W        W40013  14.350   2.377   0.862  0.0572  0.1630 -0.0689
23753W        W40014   3.489  10.798  14.999  0.1193 -0.4652  0.2304
23754W        W40015   4.417  12.006  12.748  0.1400  0.0958  0.1420
23755W        W40016   0.346  17.851   2.941 -0.1040  0.0335 -0.2875
23756W        W40017   2.116  10.706  14.996 -0.0020  0.1842  0.0993
23757W        W40018  17.856  14.901  14.056 -0.0032  0.0781 -0.1124
23758W        W40019  18.316   6.423   0.372 -0.0354  0.1572  0.0332
23759W        W40020  17.442  15.080   0.589 -0.2525  0.0469  0.0859
23760W        W40021  14.933   9.328  11.118 -0.0271  0.0721  0.2096
23761W        W40022  13.569   0.035   4.926  0.1783  0.2994 -0.2574
23762W        W40023  16.611   4.627   2.156  0.0835 -0.3067 -0.2655
23763W        W40024   4.834   6.056   1.380  0.1905  0.2952 -0.1250
23764W        W40025  12.911   4.756   3.594  0.2041 -0.1197 -0.2326
23765W        W40026   7.052  15.218  11.314  0.0286 -0.4196  0.1150
23766W        W40027   7.545  13.576  11.669 -0.1852  0.0827  0.1722
23767W        W40028  12.846  16.164  15.960  0.1984  0.0561  0.1764
23768W        W40029   1.424   8.092  13.295  0.0350 -0.0146 -0.0576
23769W        W40030   7.096  16.462   0.895 -0.0787 -0.0460  0.0674
23770W        W40031   5.656   3.076   5.052 -0.3828 -0.4208 -0.1620
23771W        W40032   8.179  12.665  12.486  0.3034  0.2237 -0.1036
23772W        W40033   4.600  15.527  15.472  0.1400 -0.0838 -0.3007
23773W        W40034  14.034   3.063   4.585  0.3164 -0.0065 -0.2352
23774W        W40035   6.154   5.008  14.903  0.2812 -0.1174 -0.1188
23775W        W40036  11.973   2.919   6.209 -0.2929 -0.1341 -0.1679
23776W        W40037  14.538   6.473  15.720 -0.3505  0.1389 -0.0040
23777W        W40038   8.004   4.551  15.266  0.1564 -0.2972 -0.0235
23778W        W40039   2.071   6.969   0.362  0.0118 -0.5471 -0.0508
23779W        W40040  14.900   6.811  15.335 -0.0724  0.0831 -0.3234
23780W        W40041  12.390  10.857  16.141 -0.1680  0.2469  0.0241
23781W        W40042   7.964   7.329  11.617  0.0175 -0.2366  0.2047
23782W        W40043   8.218   1.427  14.646  0.0634  0.0164 -0.1640
23783W        W40044  16.493   4.480  13.579  0.1481 -0.1716  0.1841
23784W        W40045  10.953   4.532  13.317 -0.1939  0.0717 -0.1239
23785W        W40046   1.523   7.406  14.559 -0.0354  0.0590  0.2384
23786W        W40047   5.781  13.975  11.996 -0.1369 -0.2733 -0.2288
23787W        W40048  11.621  10.166  14.554  0.0253 -0.0891  0.1053
23788W        W40049  12.858  10.949   3.241 -0.2605 -0.0477  0.1371
23789W        W40050   2.428   0.739   1.390 -0.1797  0.2326 -0.0121
23790W        W40051  12.557  12.769  10.262  0.3765  0.1769 -0.2583
23791W        W40052  14.902  17.098   2.279 -0.1333  0.2349 -0.1021
23792W        W40053   2.666  17.155   2.537 -0.1443 -0.1657  0.0107
23793W        W40054   6.098   7.431   1.520 -0.2546 -0.1450 -0.0668
23794W        W40055   6.889   4.793  12.399 -0.1690 -0.0508 -0.1321
23795W        W40056  11.462   9.803  11.274 -0.1827  0.3773 -0.0833
23796W        W40057  12.215  18.137   3.245  0.2767 -0.1243 -0.1202
23797W        W40058   5.457   0.629   1.054  0.1612  0.0632  0.0268
23798W        W40059   1.525   9.846   6.129 -0.1430 -0.0448 -0.0598
23799W        W40060   8.456  16.845  15.925  0.1997 -0.4277  0.0255
23800W        W40061  16.658  11.491   0.528 -0.2954 -0.0300 -0.0097
23801W        W40062  10.124  13.630   4.959  0.1282  0.1629  0.0327
23802W        W40063   4.866  14.284   0.633  0.1357  0.2678 -0.0118
23803W        W40064   6.831  13.013   4.965  0.3842 -0.3094 -0.1922
23804W        W40065  12.872  15.269   0.321 -0.0660  0.0769  0.0418
23805W        W40066   8.024  14.566   4.628 -0.1939 -0.1825 -0.1981
23806W        W40067   7.214   2.467   2.018  0.0688 -0.1569  0.1618
23807W        W40068  12.127   4.653  11.524  0.3246  0.0396  0.1609
23808W        W40069   2.644  11.093   1.699  0.1015 -0.0452  0.1038
23809W        W40070   6.864  10.837  14.801  0.2372  0.1845 -0.1261
23810W        W40071   8.617  14.830  14.908  0.0544 -0.0281 -0.0106
23811W        W40072   5.541   1.675  15.901 -0.2092  0.2264  0.2542
23812W        W40073  11.064  14.448  16.095  0.0056  0.1889  0.1887
23813W        W40074  15.824   6.982   0.002 -0.0498 -0.3306 -0.1910
23814W        W40075  13.962   5.751  11.207  0.3182  0.0341 -0.1723
23815W        W40076   5.077   7.332  12.782 -0.0609 -0.3840  0.0252
23816W        W40077  14.248   8.471   1.829  0.0274  0.1442 -0.0990
23817W        W40078   1.916  17.529   4.829  0.1684 -0.1128 -0.0988
23818W        W40079   1.089  16.084  15.758 -0.0977 -0.0185 -0.1869
23819W        W40080   1.777   9.673  11.660  0.2496  0.0170 -0.4047
23820W        W40081  11.735   6.107  15.712 -0.1064 -0.3107  0.1579
23821W        W40082   2.185   1.745   4.921  0.1572  0.1897  0.1236
23822W        W40083  13.197   1.444   5.319 -0.0979 -0.1130  0.2797
23823W        W40084  12.480   2.374   5.203 -0.0926  0.0354 -0.0363
23824W        W40085   8.399   1.645  11.783 -0.1421  0.0573 -0.4531
23825W        W40086  10.081   0.423   5.312  0.0984  0.0300  0.0540
23826W        W40087   5.702  16.891  14.169 -0.0300 -0.0362  0.0214
23827W        W40088   2.228  16.389  14.699  0.2807  0.0592 -0.0135
23828W        W40089  14.815  15.993  15.864 -0.2796  0.0741 -0.0481
23829W        W40090  14.715   5.524  14.095 -0.1933  0.2346  0.1064
23830W        W40091  13.261   8.704   0.158  0.0638  0.2301 -0.1334
23831W        W40092   1.258   1.120  14.949  0.1294  0.0305  0.1519
23832W        W40093   1.321   9.314   2.620  0.1754  0.2099  0.0826
23833W        W40094   3.395  11.216   5.646 -0.2394  0.0090  0.1872
23834W        W40095   8.321   7.819   0.583  0.1093 -0.2458 -0.0185
23835W        W40096  14.146  13.744  14.665  0.2757 -0.0858 -0.2190
23836W        W40097  10.593   6.137  12.029  0.4683 -0.1072  0.0478
23837W        W40098  12.117  13.992   1.591 -0.2424 -0.0241  0.1267
23838W        W40099  17.348  16.927   1.535 -0.0941  0.0046 -0.3083
23839W        W40100   0.021   7.745  12.735 -0.1136  0.3451 -0.4045
23840W        W40101   8.828  10.164   4.605  0.3038  0.3527  0.1466
23841W        W40102   5.409  11.154  16.207 -0.1008 -0.1887 -0.0427
23842W        W40103   8.271   3.283  14.836 -0.1739 -0.2267  0.0779
23843W        W40104   6.802   3.939   2.188  0.0793 -0.0122 -0.0837
23844W        W40105   5.160   8.632  11.747 -0.2764  0.0858  0.2282
23845W        W40106  16.608  18.174  14.558  0.0908 -0.0923 -0.2268
23846W        W40107   5.657  15.516  14.067 -0.0235 -0.0398 -0.0922
23847W        W40108   0.969   5.035   2.449  0.0958  0.1530  0.0766
23848W        W40109  16.072  14.187  15.380 -0.0395 -0.1904  0.0737
23849W        W40110   4.652   1.206   3.485 -0.1344  0.1594  0.0428
23850W        W40111  13.227   0.716   5.767 -0.1601  0.1253 -0.1378
23851W        W40112   1.872   7.925   3.087 -0.3443 -0.1886  0.1537
23852W        W40113   8.335   1.392   4.459 -0.0648 -0.1424  0.2509
23853W        W40114   7.591  12.283  11.113  0.1764 -0.0167 -0.0458
23854W        W40115   9.373  16.040  14.668 -0.0050  0.2403 -0.0757
23855W        W40116   1.259   2.229   2.366 -0.1166 -0.2902 -0.5625
23856W        W40117   3.281   9.082  13.356 -0.0899  0.3984  0.1769
23857W        W40118   3.070  15.407   1.038 -0.2145  0.2891 -0.0950
23858W        W40119  17.933   4.957   3.672  0.1906  0.2885 -0.0158
23859W        W40120  14.831  11.222   3.617  0.1349  0.0726  0.0508
23860W        W40121  18.287  13.663  16.031 -0.1682 -0.3192  0.1261
23861W        W40122   6.108   0.687  13.517  0.2271 -0.1176 -0.0212
23862W        W40123   1.564  13.387  13.566 -0.1157 -0.2565  0.1806
23863W        W40124   4.741  16.095   4.445 -0.0101  0.2873 -0.0676
23864W        W40125  10.332  17.562   2.927  0.0240 -0.1043 -0.0399
23865W        W40126  13.106   2.551   1.251 -0.0573  0.1884 -0.0900
23866W        W40127   9.072   3.360   1.272 -0.1354 -0.0019 -0.1418
23867W        W40128   9.451  15.577   0.082  0.0346 -0.1595  0.2450
23868W        W40129  17.763  10.097   2.402  0.2559 -0.1263 -0.1233
23869W        W40130  13.483  11.829   2.854 -0.0509 -0.0154  0.0471
23870W        W40131   7.262   9.850   0.347 -0.2634  0.1454 -0.0924
23871W        W40132  10.265   1.985  12.815  0.1424  0.2300 -0.2658
23872W        W40133   8.373   3.162  13.365 -0.1526 -0.1076 -0.0970
23873W        W40134   5.402   7.797  14.869 -0.1406 -0.0928  0.0228
23874W        W40135  16.402  10.624  12.319 -0.1367 -0.2792  0.4246
23875W        W40136   5.729   0.400   4.242  0.1952  0.2813  0.1754
23876W        W40137   9.976   7.443   5.740 -0.3101 -0.3382 -0.1248
23877W        W40138   8.529  15.529   1.422  0.0230 -0.2629  0.0563
23878W        W40139  16.169  12.955   4.473 -0.0829 -0.0185  0.0901
23879W        W40140   6.686  14.631  14.198 -0.2313 -0.1142  0.2227
23880W        W40141  12.216   1.742  12.432  0.3549  0.0251  0.1532
23881W        W40142  15.246  10.132  11.318  0.0520  0.2728  0.0216
23882W        W40143   4.575   0.766  14.613 -0.4845 -0.1469 -0.1413
23883W        W40144   8.334  14.463   2.132 -0.3051  0.1832  0.1095
23884W        W40145  12.206   8.220  15.310  0.4591  0.0804  0.2388
23885W        W40146  18.339   2.126  14.684 -0.0536 -0.3140 -0.1931
23886W        W40147   4.566  11.112   0.330 -0.0237 -0.2959  0.3009
23887W        W40148   1.799   4.246   2.413 -0.0855  0.2105 -0.2305
23888W        W40149   1.007  14.060  15.776 -0.0937  0.0347 -0.1542
23889W        W40150   5.435   9.832   4.625  0.0214 -0.0912 -0.2074
23890W        W40151   1.251  14.090  15.330  0.5808 -0.1314 -0.1304
23891W        W40152  15.283  15.750  12.417 -0.3722 -0.1816  0.1603
23892W        W40153   8.956  17.926   5.073 -0.1054  0.2603  0.1190
23893W        W40154   6.283   5.150   0.678  0.1339 -0.1589 -0.0252
23894W        W40155  16.582   8.000   3.174 -0.1143  0.1183  0.1808
23895W        W40156  14.597  11.476  13.282 -0.2656 -0.0844  0.1950
23896W        W40157   2.377   8.693   0.147 -0.1214  0.0230  0.0487
23897W        W40158   6.398   0.329   1.928 -0.2492  0.6177 -0.0066
23898W        W40159  10.371  12.154  13.609 -0.0348  0.0887  0.1259
23899W        W40160   4.829   7.587   3.003 -0.0365 -0.0261 -0.1467
23900W        W40161  14.007   8.824   2.761  0.0293 -0.1367 -0.1573
23901W        W40162  11.689   9.455   4.576 -0.1672 -0.2442  0.1203
23902W        W40163   8.517   7.803   4.696  0.0894 -0.0170  0.1578
23903W        W40164  10.514   7.551  14.878  0.0638 -0.3964  0.0076
23904W        W40165   8.014  10.140   4.856  0.0696  0.0633  0.0745
23905W        W40166   4.528  15.101  11.574  0.0439 -0.1541  0.2888
23906W        W40167   5.699  12.240  11.663  0.3426 -0.0188  0.2419
23907W        W40168   0.065  17.757  13.075 -0.2515  0.4136 -0.0145
23908W        W40169   6.366   3.773  14.160  0.0182  0.2968 -0.1429
23909W        W40170   2.213  14.867   2.641  0.0264  0.3953 -0.0812
23910W        W40171  13.105  18.262   0.223  0.0348 -0.0240  0.2649
23911W        W40172   7.358   1.335   2.287 -0.1168 -0.1453  0.0367
23912W        W40173   8.548   8.470   1.524 -0.1367  0.0041  0.1112
23913W        W40174   8.054   4.615  12.358  0.1701  0.2732  0.1959
23914W        W40175   3.818   8.533  11.144  0.1009  0.2608  0.3082
23915W        W40176   1.960  17.537  14.292  0.0046  0.0899 -0.5099
23916W        W40177   9.122  14.457   1.511  0.0343  0.2107  0.2040
23917W        W40178   8.474  18.357   1.839  0.3064  0.0535  0.0643
23918W        W40179  14.216   9.326  16.128  0.0374  0.1583 -0.1224
23919W        W40180   7.272   9.561   3.774  0.3944 -0.3547  0.3599
23920W        W40181   3.769   7.441  15.382  0.0673  0.0980  0.2533
23921W        W40182   2.318   3.322   0.510 -0.1406  0.0634  0.1794
23922W        W40183   5.541  18.326   1.760  0.0128 -0.1795  0.0295
23923W        W40184  13.612   1.472   0.022  0.2324  0.2812 -0.0133
23924W        W40185   3.427   8.578  14.807 -0.0263  0.2452  0.0112
23925W        W40186   1.873  13.167   1.887 -0.2545  0.0289 -0.0102
23926W        W40187   4.339  18.022   3.010  0.3453  0.4156  0.2164
23927W        W40188   0.387  11.846  12.444  0.1399  0.1063 -0.1916
23928W        W40189   9.761  11.753   3.712 -0.2085 -0.1653 -0.2085
23929W        W40190  15.746   2.801   2.430  0.2533  0.2910 -0.4180
23930W        W40191   7.085  11.721  14.071 -0.1065 -0.2133 -0.0707
23931W        W40192  13.317  13.921  12.236 -0.0137 -0.2676  0.0373
23932W        W40193   8.297   2.884  15.842 -0.2198  0.0117  0.0775
23933W        W40194  15.825  14.774  13.272 -0.4853  0.1984  0.2041
23934W        W40195  10.339   2.037   3.763  0.3814  0.1603 -0.2659
23935W        W40196   9.527   6.550   1.652  0.0093  0.2125 -0.0242
23936W        W40197  12.996  11.051  12.656  0.2502  0.3540 -0.1171
23937W        W40198  10.324   2.696   5.296 -0.1749  0.0737 -0.0402
23938W        W40199  11.846   2.108   2.460 -0.0407  0.1425 -0.1059
23939W        W40200   5.989   0.239  15.299 -0.0297  0.2494  0.1391
23940W        W40201  16.393  14.363   1.607  0.0654  0.1523  0.0512
23941W        W40202  13.051   8.620  13.400 -0.2356 -0.0192  0.4918
23942W        W40203  10.910  18.009  12.538  0.1211  0.1911 -0.3478
23943W        W40204   4.783   5.309   0.976 -0.0318  0.2225  0.0062
23944W        W40205   6.162  13.651  15.253 -0.2203 -0.1635  0.1789
23945W        W40206  16.957  18.129  12.703  0.0151 -0.0372  0.0864
23946W        W40207  10.978   7.407   6.051 -0.2050  0.3670  0.1616
23947W        W40208   6.070   8.820  13.557  0.1748 -0.3641  0.3651
23948W        W40209   9.811  13.140   3.052  0.2709 -0.1384 -0.1191
23949W        W40210   3.100  18.042   4.090  0.1985  0.0611  0.0510
23950W        W40211   9.332   5.473   3.043 -0.1385 -0.2407 -0.0182
23951W        W40212  17.330  13.491   0.693  0.0233 -0.1073  0.2040
23952W        W40213  13.068   0.868  14.386  0.1373  0.0713 -0.0076
23953W        W40214  11.462  17.365  11.790 -0.1133  0.0349 -0.1068
23954W        W40215  17.850   1.833   5.861  0.1140 -0.0877 -0.1644
23955W        W40216   5.232   7.779   5.946  0.0561 -0.3063 -0.0534
23956W        W40217   6.107   1.037  12.280  0.0552 -0.1162 -0.1305
23957W        W40218   2.471  15.673  11.838 -0.0259 -0.1239 -0.3870
23958W        W40219   3.846  11.179  11.138  0.2044  0.0813  0.1158
23959W        W40220  12.465   2.044   3.315 -0.0649  0.0395  0.0042
23960W        W40221  15.928  17.609   5.579  0.1752 -0.1010 -0.1173
23961W        W40222   7.936  10.158  15.026 -0.1480 -0.1846 -0.2443
23962W        W40223   2.298   9.656  12.543  0.0353  0.1796  0.1214
23963W        W40224   3.940   4.144  13.142 -0.0222 -0.1788  0.1619
23964W        W40225  17.425  18.054  12.944  0.0621 -0.0366 -0.0461
23965W        W40226  10.683  16.301  15.551 -0.0855  0.1937  0.2013
23966W        W40227  12.661  15.203  14.120  0.0237  0.4785 -0.1538
23967W        W40228  16.097   3.696  13.403 -0.2423 -0.1741 -0.3373
23968W        W40229   1.098   4.751   1.290 -0.3371 -0.1699  0.1921
23969W        W40230   1.330   4.086   4.581 -0.0522 -0.0210 -0.1240
23970W        W40231  14.230   5.762  13.843  0.0626 -0.0058 -0.0774
23971W        W40232  10.145   9.904   2.766  0.1469 -0.1688 -0.1320
23972W        W40233   1.472  11.624   1.568 -0.1410  0.1688 -0.0698
23973W        W40234  10.605  15.909   1.939 -0.0980 -0.1535  0.2532
23974W        W40235  16.288   3.865   0.116  0.0244  0.2970 -0.1063
23975W        W40236   2.537   1.710  12.613 -0.1845 -0.1605  0.0313
23976W        W40237   9.625  10.743   0.010  0.0061  0.0072  0.2542
23977W        W40238   0.887  10.962  12.107 -0.2918 -0.2087  0.0328
23978W        W40239   5.126  13.343  13.142 -0.1209  0.1091  0.2807
23979W        W40240  16.548   2.094  14.085 -0.0029  0.0011 -0.1220
23980W        W40241   4.684   3.990  11.375 -0.2095 -0.2216  0.0848
23981W        W40242  13.060   1.044   1.462  0.0012  0.0123  0.0230
23982W        W40243   9.653   4.573   2.619 -0.3006  0.2441  0.1079
23983W        W40244  15.113  18.385   0.354 -0.1095 -0.0866  0.1833
23984W        W40245  13.128   8.103   2.066 -0.1141  0.2746 -0.0588
23985W        W40246  15.593  17.150   1.187  0.2089  0.2352  0.0110
23986W        W40247   8.403  10.685  14.115 -0.0574 -0.0722 -0.1612
23987W        W40248  10.479   1.686  11.599  0.2185  0.1420 -0.0874
23988W        W40249   1.159  12.187   0.755  0.0688  0.1353  0.1888
23989W        W40250   8.765  12.886   5.136  0.1852  0.1521 -0.1588
23990W        W40251   9.287  11.959   2.734 -0.2476  0.0333 -0.0718
23991W        W40252   6.812  11.944   2.537 -0.3251 -0.0570 -0.2195
23992W        W40253   6.966   0.116  16.232 -0.0728  0.2059 -0.2922
23993W        W40254  10.071   4.761   0.436  0.0043  0.1163  0.2120
23994W        W40255   0.465   2.091   5.401 -0.2505 -0.1443 -0.0146
23995W        W40256   4.827   4.078  12.876  0.2233 -0.2312  0.1706
23996W        W40257  16.045   5.381  12.143 -0.1514  0.1860 -0.0793
23997W        W40258  14.127   6.868  14.618 -0.0410  0.3765 -0.1058
23998W        W40259   6.882  11.864   1.708 -0.2441 -0.0613  0.2329
23999W        W40260   6.446   8.090  15.036 -0.0499  0.1415 -0.1181
24000W        W40261   4.017  17.913  13.986  0.1832 -0.0392  0.3144
24001W        W40262   1.822   8.941  12.632 -0.1574  0.0972 -0.1324
24002W        W40263   2.567  12.343  15.295  0.0423  0.0647 -0.0282
24003W        W40264  14.954  16.068   4.275 -0.0827  0.0061  0.1887
24004W        W40265   1.579   6.834   4.757 -0.3182  0.0748 -0.0815
24005W        W40266  16.675   0.468   1.685  0.0090  0.1494 -0.2921
24006W        W40267   3.398  11.177   1.127  0.3039 -0.0173 -0.0726
24007W        W40268  13.732   8.704  11.759 -0.0675  0.2329  0.0338
24008W        W40269  11.421   1.862  14.193 -0.0893  0.0575  0.0295
24009W        W40270  18.183   0.177   3.412  0.3347 -0.1431 -0.1104
24010W        W40271   9.487   4.009  13.208  0.0945 -0.0466 -0.1102
24011W        W40272  16.982  11.249   1.191  0.0488 -0.0417  0.0676
24012W        W40273   5.446  17.241  10.862  0.2320 -0.0326  0.3037
24013W        W40274  13.868   3.619  15.463 -0.0864  0.1167 -0.0563
24014W        W40275  17.246  14.682  11.488 -0.1083  0.0877 -0.0733
24015W        W40276  17.863   8.140   2.339 -0.3509  0.0201  0.0017
24016W        W40277  14.798   0.063  12.753  0.0025 -0.1510 -0.0465
24017W        W40278  15.528   7.723  12.166  0.0929  0.3544  0.3314
24018W        W40279   6.232   1.655   5.226  0.0615 -0.2406  0.0002
24019W        W40280  11.489   6.681   4.878 -0.0733  0.2696 -0.1352
24020W        W40281   9.981   6.557   4.033 -0.1315 -0.0467  0.0447
24021W        W40282  17.915  17.933   2.873 -0.3837  0.2355 -0.1793
24022W        W40283   1.030  10.894  13.281 -0.1569 -0.0125 -0.0195
24023W        W40284   9.737  12.560  12.756  0.2045  0.1913 -0.0937
24024W        W40285  16.032  15.202   2.553 -0.1391  0.0533  0.1640
24025W        W40286  11.200   2.813   3.834 -0.0768  0.2721  0.2502
24026W        W40287   2.633   9.299  12.642 -0.3274 -0.4075 -0.1084
24027W        W40288   7.954  18.110   0.108 -0.4912  0.2172 -0.0705
24028W        W40289  11.953  12.344  13.559 -0.2452 -0.0423  0.2623
24029W        W40290  14.122  11.861   4.600 -0.0723  0.1480 -0.2192
24030W        W40291   2.624   4.069   5.267  0.2785 -0.3909  0.1470
24031W        W40292  15.304   0.381   4.146 -0.0030 -0.0030 -0.0941
24032W        W40293  14.894  17.441  13.125 -0.1919  0.0278 -0.0256
24033W        W40294  17.662  10.114  14.797 -0.2378 -0.1990  0.1159
24034W        W40295   7.178   9.925  12.899  0.1305 -0.4478  0.0861
24035W        W40296  16.296   2.956  10.904 -0.3445  0.2596 -0.0020
24036W        W40297  11.827  18.085   1.115  0.0960 -0.3592  0.0508
24037W        W40298   3.069   0.169   3.652 -0.2049  0.3319 -0.2663
24038W        W40299  16.982   9.826  15.796  0.1747  0.0526 -0.1842
24039W        W40300   4.828  12.215  15.153 -0.2343  0.3059  0.1106
24040W        W40301   7.497  10.887  10.785 -0.0620  0.2447  0.0469
24041W        W40302   9.629  14.555  14.817 -0.2582 -0.0650  0.3213
24042W        W40303   2.101  16.281  16.142  0.0574 -0.1823 -0.1417
24043W        W40304  17.529   8.863   5.478 -0.0640  0.0781 -0.0435
24044W        W40305  16.301   8.729  13.231 -0.2957  0.0116 -0.2213
24045W        W40306  12.403   5.825  12.790 -0.1001 -0.0937 -0.1019
24046W        W40307   0.610  16.080   0.472 -0.1217  0.2987  0.0798
24047W        W40308   0.592  12.300   1.602 -0.0854  0.2579  0.0330
24048W        W40309   9.792  10.817  12.112  0.0331  0.0329  0.3121
24049W        W40310  11.643   9.241  14.475 -0.0309 -0.1173  0.0056
24050W        W40311  12.646  14.524  15.522  0.0437  0.2670 -0.3835
24051W        W40312  17.852   6.402   1.063  0.2236  0.0087 -0.0405
24052W        W40313   1.198  15.774  15.142 -0.1120  0.0289 -0.0763
24053W        W40314  11.053  16.230   3.294 -0.1461  0.1377 -0.0516
24054W        W40315   9.041   2.011   3.504 -0.3422 -0.0220 -0.2170
24055W        W40316   5.496   4.171   1.678  0.1019 -0.1037  0.3188
24056W        W40317  15.536  10.068  13.794 -0.1896  0.0908  0.3421
24057W        W40318  16.026   9.075   4.390  0.1993 -0.1978  0.1801
24058W        W40319   9.306   9.149  13.085 -0.1373 -0.0669 -0.0559
24059W        W40320   1.262   5.541  11.401  0.1220 -0.0273  0.0761
24060W        W40321  12.048  13.852   0.982  0.3678 -0.0257  0.0321
24061W        W40322   5.647  12.407  15.018  0.4234  0.0062  0.0592
24062W        W40323   6.035  17.254  11.385  0.0747 -0.2191 -0.1925
24063W        W40324  15.835  13.126   0.938 -0.0980  0.1649  0.0730
24064W        W40325   3.657   5.528  16.089 -0.0435  0.0495  0.1765
24065W        W40326  14.079  16.709  13.151 -0.0262  0.0720 -0.0399
24066W        W40327   9.770   0.064  13.991 -0.2585 -0.2974  0.1825
24067W        W40328  14.349  15.231   2.815  0.2245  0.3702  0.3187
24068W        W40329   8.605   3.870   2.866 -0.0627 -0.0071  0.0222
24069W        W40330   2.013   8.797  13.876  0.0194  0.1700 -0.0840
24070W        W40331   2.380   3.594   5.278 -0.2560  0.1329 -0.0571
24071W        W40332  14.771   4.677  12.990  0.2439 -0.0141 -0.1861
24072W        W40333   7.348   0.687  12.749 -0.0053  0.2371 -0.0120
24073W        W40334  14.457  13.197   0.622 -0.1197 -0.1010  0.1019
24074W        W40335  17.728  14.413   3.514 -0.1572 -0.1523  0.0146
24075W        W40336  15.433  16.660  15.639 -0.0358 -0.3291  0.2672
24076W        W40337   0.500   7.487   0.672 -0.0267  0.1541 -0.0308
24077W        W40338   9.470  16.998   5.473  0.0173  0.1055  0.0432
24078W        W40339  16.009  12.595   4.880  0.0376  0.3309 -0.2360
24079W        W40340  11.191  10.701  10.943  0.2794 -0.4977  0.0939
24080W        W40341  14.939   2.988  12.340  0.2668  0.2591 -0.0275
24081W        W40342  12.213   2.144   4.891  0.3015 -0.0028 -0.0695
24082W        W40343  15.387   2.590  13.569  0.0224  0.3052  0.0638
24083W        W40344  12.050   2.742  16.120 -0.0109  0.0894  0.0541
24084W        W40345  12.393  12.352   0.017 -0.2032  0.4128  0.1334
24085W        W40346   2.617  16.035   0.876  0.1165 -0.0194 -0.3446
24086W        W40347  10.290   0.617   1.900  0.0971  0.0593  0.0906
24087W        W40348  17.983  15.472   3.398 -0.1026 -0.1143  0.1978
24088W        W40349  16.806   5.221  13.507  0.3507  0.1424  0.0291
24089W        W40350   1.175   9.669   1.259 -0.0676  0.1881 -0.0324
24090W        W40351  14.805   1.584  14.326 -0.0966  0.1615  0.1471
24091W        W40352  17.741  16.852   3.700  0.2401  0.0628 -0.0878
24092W        W40353  18.194   4.707   1.032 -0.2800  0.0907 -0.3643
24093W        W40354   9.549   8.863   4.940 -0.1971 -0.4750  0.1984
24094W        W40355   2.041   6.263   2.637  0.0574 -0.0475  0.4563
24095W        W40356  12.795  16.409   2.853  0.1398 -0.3141 -0.1796
24096W        W40357  15.547   1.349   4.538 -0.1343 -0.0123  0.3024
24097W        W40358   8.438   3.855  15.802 -0.0675 -0.2492 -0.0564
24098W        W40359   2.731  13.797   1.688  0.1489 -0.3808  0.0216
24099W        W40360   1.539   0.562   2.733  0.0924 -0.2928  0.1294
24100W        W40361   9.046   2.612   4.381  0.3721  0.0340  0.1107
24101W        W40362   6.804   1.292  15.866  0.1149  0.0370  0.1123
24102W        W40363   6.714   4.519   3.552  0.0776  0.0041 -0.1338
24103W        W40364   8.944  15.646   5.483 -0.2793  0.3536 -0.2803
24104W        W40365   1.462   8.110   5.037  0.2648  0.1278 -0.2453
24105W        W40366   3.741  15.205  15.837  0.2239  0.1487  0.0124
24106W        W40367  13.146  11.273   2.470  0.0625  0.2823  0.2389
24107W        W40368   1.518  13.036   0.593  0.0591 -0.2952  0.0141
24108W        W40369   3.451  13.162  16.028 -0.3477 -0.1882 -0.0585
24109W        W40370   5.083   6.222   2.556  0.1918  0.1256 -0.3736
24110W        W40371   7.716   2.594  14.887 -0.0454 -0.1087  0.0769
24111W        W40372  10.909   5.403   0.996 -0.2444  0.0408 -0.1921
24112W        W40373   9.110   8.373  12.641  0.0241  0.0201  0.0248
24113W        W40374   3.636  11.196   6.081 -0.1459 -0.1923  0.0528
24114W        W40375  14.595  10.612   4.425 -0.1463  0.0554  0.2590
24115W        W40376  16.043  13.462  15.075 -0.2775 -0.1100 -0.1190
24116W        W40377   8.821  17.144  14.452 -0.1643  0.5723 -0.1813
24117W        W40378   7.056   6.950  12.973  0.1406 -0.0036 -0.1983
24118W        W40379   9.365  12.099   3.758  0.1932 -0.0681  0.0244
24119W        W40380  14.010   3.950  13.511  0.0765 -0.1196 -0.1794
24120W        W40381   0.158  15.758   4.560 -0.3684 -0.0361  0.1721
24121W        W40382   2.244   0.422  16.203  0.1603  0.2842  0.2623
24122W        W40383   9.442  16.531   1.694  0.0595  0.3313 -0.2721
24123W        W40384   7.458   3.497   0.239 -0.3352 -0.1177  0.1888
24124W        W40385   1.013  12.532  12.103  0.1575  0.0446  0.1172
24125W        W40386  13.901  10.893  16.248  0.0655  0.0961 -0.0286
24126W        W40387   8.186  13.997   0.658  0.0636 -0.2558  0.4742
24127W        W40388  15.873   4.692   2.471  0.0986  0.0536  0.4793
24128W        W40389  13.964  15.355  13.124  0.1936  0.0754  0.1725
24129W        W40390   2.354   6.525   5.772  0.0278 -0.0859 -0.1707
24130W        W40391  13.422   5.525   5.381 -0.2328  0.0408  0.0061
24131W        W40392  17.485  17.241   0.015 -0.2842  0.1920  0.0608
24132W        W40393  10.951   4.907  13.668 -0.1311  0.0305 -0.0062
24133W        W40394  16.046  11.363  12.812  0.0782 -0.0529  0.1611
24134W        W40395   4.529   4.006  11.862 -0.0294 -0.0958 -0.2834
24135W        W40396   2.168   8.530   4.179 -0.0256 -0.0384 -0.2043
24136W        W40397   7.445  14.664   0.812  0.0608 -0.0458 -0.0169
24137W        W40398   9.934   1.948   3.318 -0.0926 -0.0157  0.2633
24138W        W40399   1.687  13.222  14.959  0.1645  0.1363  0.1413
24139W        W40400   9.327   6.313   5.402 -0.1715 -0.0092 -0.0675
24140W        W40401  10.182  12.708  13.496 -0.1795  0.0627  0.1235
24141W        W40402   2.524   9.557  15.095 -0.2118  0.2439 -0.2625
24142W        W40403   0.744   7.146   1.695  0.4651  0.1261  0.1169
24143W        W40404   0.897  15.261   5.224  0.0249  0.3521  0.0301
24144W        W40405   5.691   7.053  12.351  0.0358 -0.1712  0.3704
24145W        W40406  18.002   5.140   1.129 -0.2805 -0.2426 -0.1386
24146W        W40407   2.016   9.889   2.566  0.1597  0.3209 -0.4416
24147W        W40408  10.307  11.805   3.806 -0.4052  0.0457  0.2124
24148W        W40409   9.157   1.569   4.944  0.1909  0.0986  0.0079
24149W        W40410   8.227  14.950  13.550 -0.0658 -0.2050  0.2010
24150W        W40411  17.658   3.620  12.611 -0.0533 -0.1464  0.0800
24151W        W40412  17.882   8.066  15.785 -0.0150 -0.2143  0.0008
24152W        W40413   6.407   7.494   0.260  0.1334 -0.1072  0.1691
24153W        W40414  11.178  16.770   5.730 -0.1087 -0.1051  0.2658
24154W        W40415   2.209   8.198   2.645  0.0269  0.2733 -0.3120
24155W        W40416   4.174  17.815   1.976 -0.1350  0.0948  0.2125
24156W        W40417   7.993  13.570   0.321 -0.1156  0.0628 -0.2105
24157W        W40418  11.056  17.495  16.054  0.2005 -0.5253 -0.1899
24158W        W40419   4.895   4.764   0.276 -0.0231  0.0058  0.1536
24159W        W40420   3.456  13.267   2.714  0.0390  0.1591  0.0157
24160W        W40421   3.406  13.861  12.641  0.1229 -0.1198  0.3049
24161W        W40422   5.218   4.438  14.608  0.1348  0.0310 -0.0241
24162W        W40423   8.053   9.267  11.389  0.0509 -0.0346 -0.1688
24163W        W40424   8.777  18.387   5.924 -0.2202 -0.0517  0.1347
24164W        W40425   7.194   5.998  11.635  0.2114  0.0955 -0.1283
24165W        W40426   9.427  15.205   0.419 -0.2029  0.1726 -0.0458
24166W        W40427  14.151  13.510  13.140  0.1528  0.1152  0.0469
24167W        W40428  12.183   8.412   2.240  0.1003 -0.2777 -0.1019
24168W        W40429  18.261   5.906   2.329 -0.2155 -0.2780 -0.2244
24169W        W40430  14.616   5.984  15.947  0.1034 -0.1526 -0.1278
24170W        W40431   0.643   2.044   2.168  0.1741 -0.2486  0.5733
24171W        W40432  12.011  15.806  13.802  0.0716  0.3010  0.1471
24172W        W40433  16.564  17.307  16.260 -0.0682 -0.4057 -0.2582
24173W        W40434   8.426   9.597  11.161  0.0852  0.1175 -0.0334
24174W        W40435   8.573  15.833   2.975  0.2447  0.2710  0.4575
24175W        W40436  16.049  17.926  15.734 -0.1009 -0.1149  0.1581
24176W        W40437   1.831  12.539  14.671  0.2901  0.2182  0.1458
24177W        W40438   4.219   3.114   2.195  0.1253  0.1548 -0.0580
24178W        W40439   2.868  14.158  15.868  0.2129 -0.0231 -0.0528
24179W        W40440   3.760   0.234   2.540  0.0067 -0.0808  0.1059
24180W        W40441  13.731   6.038  12.533  0.2456 -0.2879  0.0606
24181W        W40442  16.734   8.252   3.568 -0.1502 -0.3692 -0.0932
24182W        W40443  12.719  10.690  14.940  0.1681 -0.0924 -0.0952
24183W        W40444   1.689   2.620   0.295  0.2866  0.1066 -0.0756
24184W        W40445  10.528  17.420   1.801 -0.4251 -0.1810 -0.0416
24185W        W40446  14.544  10.049  12.232  0.0916 -0.0234 -0.0574
24186W        W40447  10.204   0.815   0.660 -0.1460 -0.0382 -0.0669
24187W        W40448  15.778   5.320  14.310  0.0386  0.1499  0.4525
24188W        W40449   3.589  16.515   4.581 -0.2643  0.3440 -0.0768
24189W        W40450  17.450  10.139   2.798  0.1899 -0.2102 -0.2987
24190W        W40451   0.746   0.733   6.334  0.0979  0.0536  0.2845
24191W        W40452  17.435   7.481  13.142  0.1686 -0.1858  0.2235
24192W        W40453   9.147   6.819   3.664 -0.3404  0.3162 -0.4125
24193W        W40454  16.512   8.483  13.675 -0.0316 -0.0467 -0.0352
24194W        W40455  14.111   4.492  15.314 -0.1600 -0.2326 -0.0952
24195W        W40456  13.558   2.676   3.803 -0.0504  0.2628 -0.0767
24196W        W40457   0.914   8.306   5.047  0.1746 -0.0218  0.0535
24197W        W40458   9.264  13.993   4.039  0.1565  0.2630 -0.2284
24198W        W40459   5.040   3.967  15.052 -0.0890 -0.2472  0.0232
24199W        W40460   2.651  11.717   5.691 -0.0995  0.2039  0.2090
24200W        W40461  10.741   8.913  12.163  0.0569 -0.2202  0.3244
24201W        W40462  17.747  11.180   2.713 -0.0992 -0.2897  0.0397
24202W        W40463  17.781  13.113   3.793  0.0052 -0.1024  0.1151
24203W        W40464   5.046   3.421  12.177 -0.0378  0.1506  0.3524
24204W        W40465   8.198   0.219  13.118 -0.2747  0.0660 -0.0339
24205W        W40466   5.158   5.760   1.758  0.1525 -0.0075  0.1729
24206W        W40467  11.281   3.796  12.817 -0.0087 -0.0824 -0.1819
24207W        W40468  15.175  15.952  16.292  0.1521  0.1425 -0.1460
24208W        W40469   4.539  12.360   3.901 -0.1302  0.2477 -0.4458
24209W        W40470   6.582  16.319   1.694 -0.2263  0.3596  0.1672
24210W        W40471  13.565   2.895   2.127  0.2480  0.3666 -0.3828
24211W        W40472  15.269   6.960   5.615  0.0922  0.0111 -0.1924
24212W        W40473  14.319  11.194  12.165  0.0841 -0.2305 -0.1269
24213W        W40474   3.713   8.787   5.732  0.3219 -0.0017 -0.0435
24214W        W40475   2.178  10.077   0.300 -0.2277  0.2870  0.2981
24215W        W40476   9.518   2.076   2.502 -0.0438  0.0041  0.1930
24216W        W40477   3.875   3.102   0.489 -0.4314 -0.0891  0.1474
24217W        W40478   9.690   3.332  13.653  0.1251  0.1931  0.0457
24218W        W40479   2.167   6.187  16.120  0.1899  0.0847  0.0909
24219W        W40480  11.277   7.962   3.422  0.3543 -0.1380 -0.0493
24220W        W40481   0.355  14.116  12.934 -0.0816 -0.0290 -0.2458
24221W        W40482   2.910  13.343   5.010 -0.1059  0.0395 -0.1292
24222W        W40483  16.554   5.557   1.283  0.0441 -0.0724  0.0883
24223W        W40484   7.850  15.036   5.811  0.0626  0.3108 -0.0988
24224W        W40485   1.665   6.442   2.878 -0.0229  0.3117  0.0256
24225W        W40486   4.051   5.284   3.998 -0.0492  0.2436  0.1382
24226W        W40487   6.998   3.434  15.683  0.3214  0.3353  0.1716
24227W        W40488  10.581   6.738  14.625 -0.0591  0.0824  0.0808
24228W        W40489  12.347  11.675   0.869  0.0935 -0.0285 -0.1140
24229W        W40490   7.791   1.809   1.088 -0.2314 -0.1863 -0.1313
24230W        W40491  15.977  13.310  12.076 -0.2796 -0.1564 -0.0905
24231W        W40492   6.822  10.827  15.384 -0.2484  0.1056  0.0494
24232W        W40493  16.653  10.513   0.839  0.1204  0.0731  0.1206
24233W        W40494   1.267   8.348   3.650  0.0851 -0.0320 -0.1213
24234W        W40495   6.381   1.140  14.237 -0.2250  0.0426  0.2963
24235W        W40496  11.152  13.148   4.016 -0.2171 -0.1506  0.3038
24236W        W40497   3.494   0.384   5.711 -0.3032  0.0865  0.0274
24237W        W40498   6.874  15.194  15.967 -0.1915 -0.0210  0.0249
24238W        W40499   2.362   8.170  12.919 -0.1403 -0.1872  0.1407
24239W        W40500  15.812  11.700  15.596 -0.2088 -0.2156  0.0635
24240W        W40501   8.921   8.090   2.810 -0.0994 -0.3367 -0.1012
24241W        W40502   6.162   2.078  15.291  0.1045  0.0044  0.2995
24242W        W40503   5.096  13.593   5.249 -0.2619  0.1856  0.0423
24243W        W40504  15.358   2.069  15.529  0.1920 -0.0244 -0.0743
24244W        W40505   4.651   8.835  13.419  0.0625  0.0846 -0.1464
24245W        W40506  15.785   3.165   5.005  0.0724  0.3322 -0.1522
24246W        W40507   5.013  16.316  14.167  0.0203  0.0787  0.1211
24247W        W40508  10.668  15.042  11.105  0.1095 -0.0476 -0.1002
24248W        W40509  10.698   4.803   1.344  0.0591  0.2442 -0.0788
24249W        W40510  15.445  11.856  13.172 -0.0093 -0.0385 -0.0342
24250W        W40511   7.719  13.885   2.031 -0.0436  0.0598 -0.2670
24251W        W40512  14.669  12.281   0.202  0.1250  0.2979 -0.0792
24252W        W40513  14.602  10.595  13.843  0.3730  0.0040  0.0884
24253W        W40514  12.218  16.156   1.937 -0.2869  0.1387 -0.0673
24254W        W40515   6.180   2.943   5.004 -0.2578 -0.1203  0.1401
24255W        W40516   6.227   2.642   1.390 -0.2575  0.0798  0.1494
24256W        W40517  11.963  10.150   3.081  0.3364  0.0601  0.0406
24257W        W40518  16.545   8.623   2.477 -0.2800  0.0382  0.1209
24258W        W40519  13.969   0.498  14.538  0.2590  0.1875 -0.1842
24259W        W40520  16.035  16.002   2.304  0.1458  0.0821  0.3469
24260W        W40521   1.272  12.109   4.133  0.0209 -0.0085  0.2351
24261W        W40522   2.556   1.890   4.098 -0.1611  0.1941 -0.0432
24262W        W40523   6.867   0.055  14.913  0.0828  0.0253  0.1794
24263W        W40524   5.265  11.404  11.675  0.2946 -0.0758 -0.1132
24264W        W40525  13.773  12.892   1.337  0.0464 -0.0705 -0.1388
24265W        W40526   2.178  17.888   2.804 -0.0722 -0.1913  0.0128
24266W        W40527  16.163   7.502   2.366  0.1496 -0.2081  0.0178
24267W        W40528   5.228  18.315  14.668 -0.0063  0.2151  0.0166
24268W        W40529   5.147  17.195   0.556 -0.0392  0.2510  0.0633
24269W        W40530   1.550  17.005   4.607 -0.0094 -0.2146 -0.2794
24270W        W40531   7.322   1.905   1.242 -0.0624  0.1355  0.1065
24271W        W40532   7.869   5.767   2.072 -0.0763  0.2590 -0.1762
24272W        W40533  15.383  11.160   5.316 -0.1504 -0.3598 -0.1246
24273W        W40534   2.086   4.789  12.427 -0.0773 -0.0167 -0.2381
24274W        W40535  16.364  10.522   1.380  0.2769  0.0357  0.0049
24275W        W40536  10.725   0.349  14.404  0.1424 -0.0001 -0.0623
24276W        W40537  17.013   0.789   5.824 -0.1657 -0.1177 -0.1123
24277W        W40538   8.269   2.107   3.856 -0.2077 -0.0077 -0.0874
24278W        W40539   7.320   6.309   2.864  0.3661  0.0648  0.2347
24279W        W40540  14.282   8.039   0.559 -0.1063  0.0859  0.1629
24280W        W40541   5.898  15.800  13.200  0.1163  0.1484  0.0215
24281W        W40542  17.894  14.109   1.284 -0.0038 -0.0622  0.0544
24282W        W40543   7.184  11.235  12.897 -0.2323 -0.1783 -0.1358
24283W        W40544   7.250  16.948   3.787  0.0937 -0.4490  0.3205
24284W        W40545   4.346   9.228   4.611 -0.0219  0.0763 -0.1841
24285W        W40546   7.856  18.103  13.526  0.3180 -0.0418  0.0468
24286W        W40547   0.766  14.925   1.291 -0.0709 -0.1241 -0.2666
24287W        W40548   8.404   5.733  15.347 -0.1528  0.0925  0.0684
24288W        W40549  16.133   3.070   4.177  0.1070 -0.1764 -0.0892
24289W        W40550   2.230   6.518   3.238  0.1516  0.2014 -0.2211
24290W        W40551  18.135  10.091   4.034  0.1189 -0.0141 -0.4960
24291W        W40552   0.383  10.594   0.386  0.1008 -0.1840 -0.1689
24292W        W40553   8.179  12.685   1.499 -0.4196  0.2595 -0.2544
24293W        W40554   0.216   7.767  15.141 -0.2145  0.0410 -0.0483
24294W        W40555  14.642   7.819   4.972  0.1656 -0.0718 -0.4918
24295W        W40556  15.863   0.335   1.765  0.0647 -0.1241 -0.2817
24296W        W40557  11.683   4.857  11.345  0.2010 -0.1500  0.1086
24297W        W40558   3.602   8.242   1.061  0.3058  0.0260  0.1131
24298W        W40559   6.074   4.744   2.329  0.0508 -0.1988 -0.0326
24299W        W40560   4.427  12.355   5.538 -0.2899 -0.3224  0.2029
24300W        W40561  12.072  14.991  14.332  0.0408 -0.2609 -0.0465
24301W        W40562   9.179  15.642  15.978  0.2306 -0.1999 -0.3942
24302W        W40563  10.188  11.650  15.916 -0.1034  0.2378 -0.1446
24303W        W40564  15.545   5.977  11.676  0.1490 -0.4921  0.3307
24304W        W40565   6.539   8.209  15.544  0.0446  0.0476 -0.0145
24305W        W40566   2.562  17.114   1.953 -0.0846  0.0130  0.0588
24306W        W40567   2.571  13.072  12.133  0.3576 -0.3366  0.4482
24307W        W40568   2.377   5.202  12.649  0.0997 -0.1184 -0.1827
24308W        W40569   0.994  14.823  14.971 -0.1087  0.0730 -0.2567
24309W        W40570   1.044  11.629   4.142 -0.0504  0.0493 -0.0040
24310W        W40571   0.079   9.408  15.271 -0.0244 -0.1134  0.0569
24311W        W40572  12.739  12.370   1.524  0.0933 -0.0254  0.2177
24312W        W40573   8.137   8.650   4.551 -0.0359  0.5416  0.1091
24313W        W40574  16.603   5.542   2.245  0.0981 -0.2454  0.0139
24314W        W40575  16.559   7.455   4.147 -0.0074 -0.2481  0.0727
24315W        W40576  12.161  15.909   5.469 -0.0648 -0.2184  0.1753
24316W        W40577   8.045  15.010   5.325 -0.0531 -0.1019 -0.3096
24317W        W40578  16.076   0.151   0.890  0.1003  0.3987 -0.0811
24318W        W40579   7.817  13.399  14.171  0.3161 -0.1954  0.0500
24319W        W40580  12.708   8.651  13.747  0.1924  0.1277  0.0935
24320W        W40581   8.909   6.862   4.702  0.2344  0.2094 -0.0446
24321W        W40582  12.578   9.699  14.699  0.1984  0.1470 -0.0549
24322W        W40583   1.115   5.983   1.552  0.5162 -0.1279  0.1318
24323W        W40584   7.414   5.753  14.412 -0.0877  0.0633  0.1620
24324W        W40585  12.586  17.334  12.135  0.1966 -0.1491  0.0047
24325W        W40586   1.294   0.623   0.006 -0.1415  0.1146  0.0784
24326W        W40587  15.514   2.651   5.965 -0.1899  0.0270  0.2970
24327W        W40588   4.715  11.890  14.107  0.4235 -0.0881  0.5465
24328W        W40589   5.150   9.609  13.813  0.1941  0.2468  0.1572
24329W        W40590  13.440  18.200   5.751  0.2300  0.0293  0.1134
24330W        W40591   9.302   9.666   0.691 -0.0534 -0.1450 -0.1973
24331W        W40592  14.773   9.417  13.320 -0.2665  0.1722  0.0529
24332W        W40593   6.682   6.240  15.025  0.1211  0.0860  0.2804
24333W        W40594  12.755   6.722   4.327  0.1734 -0.1939 -0.1349
24334W        W40595   9.742   3.583  11.854  0.1186 -0.1063 -0.1120
24335W        W40596   8.551   2.439   2.636 -0.1504 -0.2696 -0.1676
24336W        W40597   0.590   5.829  14.437  0.4767 -0.3562 -0.1865
24337W        W40598  18.081   2.761   0.249 -0.0029 -0.1235  0.0538
24338W        W40599  13.304   6.696  13.632 -0.1553 -0.1687 -0.0646
24339W        W40600  13.013   0.040   2.584  0.0433 -0.1217  0.2416
24340W        W40601  14.538  11.563  15.706 -0.1807  0.0843 -0.0960
24341W        W40602   1.928  11.658   2.249 -0.0344 -0.2959 -0.0611
24342W        W40603  11.891  17.553  11.608  0.0490 -0.0876 -0.0026
24343W        W40604  10.520  17.570   1.322 -0.0776  0.1406 -0.5354
24344W        W40605   2.888  11.939  10.971  0.1348  0.3281 -0.1973
24345W        W40606   0.938   8.216  15.630 -0.2274 -0.1252 -0.0969
24346W        W40607  16.288  16.850   0.509  0.0432  0.0510 -0.3862
24347W        W40608   7.392   2.015  13.692  0.1183 -0.0114  0.1294
24348W        W40609   7.301  11.202  11.196  0.2701 -0.0314  0.2126
24349W        W40610  15.173   9.250   3.238 -0.2396 -0.0089 -0.0244
24350W        W40611  14.666   5.695   4.756  0.4214  0.0947 -0.1040
24351W        W40612   3.205  15.887   0.848 -0.1152  0.3915 -0.0657
24352W        W40613   8.410   6.687   3.442 -0.0268  0.1305 -0.3697
24353W        W40614  17.466  11.403   1.170  0.3008 -0.2463  0.1023
24354W        W40615  12.998   2.934   6.081  0.2492  0.1545  0.0380
24355W        W40616  17.939  11.477  12.260 -0.0958  0.0850 -0.1013
24356W        W40617  17.360  10.325  13.241  0.0533  0.0711 -0.1614
24357W        W40618   8.061  10.506   2.930 -0.1964 -0.0786  0.1508
24358W        W40619  10.049   2.374   5.545 -0.1759 -0.0390  0.1803
24359W        W40620   2.106  15.960   2.450 -0.3432 -0.0983 -0.0046
24360W        W40621   8.842   0.863   0.016  0.2043  0.0476 -0.1511
24361W        W40622  17.133   6.056  12.081 -0.1180 -0.2921  0.1297
24362W        W40623   5.663  14.705  13.658  0.1572  0.1765  0.0703
24363W        W40624  16.566   5.377  10.874  0.1772  0.1834 -0.0505
24364W        W40625   9.046   6.088   5.021  0.1426 -0.4571  0.0479
24365W        W40626   1.351   6.561  14.954 -0.0680  0.0782  0.1060
24366W        W40627   5.178   5.668  14.569  0.4815  0.3021 -0.2609
24367W        W40628   4.105  17.576  16.120  0.2100 -0.2438 -0.0297
24368W        W40629   8.021  17.459   1.059  0.2419  0.2697 -0.0644
24369W        W40630  17.755   1.061  14.550 -0.0728  0.3224  0.2099
24370W        W40631  16.359   8.982  11.106  0.0285  0.2690  0.2511
24371W        W40632  14.181   5.350   2.393  0.0629  0.2067  0.2661
24372W        W40633   5.589  10.602  13.132  0.0929  0.3344 -0.3258
24373W        W40634  15.818   7.963   4.889 -0.4867 -0.2893 -0.2579
24374W        W40635  18.240   1.730  15.052  0.3854 -0.0326  0.1631
24375W        W40636   1.248   3.410   2.991 -0.2093 -0.1564 -0.0566
24376W        W40637  15.268   1.910   3.387  0.1746  0.0509  0.0388
24377W        W40638   3.738  17.904   5.813  0.2438  0.0601 -0.1088
24378W        W40639  12.241  16.564  14.100 -0.1665  0.2332  0.1613
24379W        W40640  16.310   1.101  15.583  0.0698 -0.2126  0.0643
24380W        W40641  12.158  10.672  14.297  0.0531 -0.0458  0.0005
24381W        W40642  18.253   2.920   1.985 -0.0184 -0.0865  0.1326
24382W        W40643   8.546  14.529  11.264  0.1219 -0.2637  0.0161
24383W        W40644   4.897  14.537   6.019  0.0465  0.0017  0.1659
24384W        W40645  14.203   2.916  15.068 -0.0702 -0.2449 -0.0724
24385W        W40646   3.703   6.400   0.313 -0.1234 -0.1667 -0.0457
24386W        W40647  16.026   2.546   6.665 -0.2683 -0.3265  0.0406
24387W        W40648   1.568  11.700  12.298  0.0617 -0.3480 -0.0814
24388W        W40649  16.705   0.816   0.507  0.2120 -0.2655  0.3374
24389W        W40650  16.654   1.107   5.440  0.0311 -0.2321  0.0496
24390W        W40651  15.396   0.802   2.982 -0.2455  0.0896  0.1170
24391W        W40652   8.265  11.515   3.616  0.0042 -0.1535  0.4100
24392W        W40653  16.976   1.824  13.408 -0.0163  0.0617  0.3349
24393W        W40654  15.504  14.307   4.946 -0.3952 -0.1319 -0.2058
24394W        W40655  17.093   4.001  15.765  0.0179  0.0906 -0.2164
24395W        W40656   3.720   3.874   2.382  0.4297  0.0708  0.0014
24396W        W40657  16.011  15.891   4.014 -0.0255  0.1769 -0.2312
24397W        W40658  17.176  16.890   4.530  0.1195  0.0369 -0.0633
24398W        W40659  17.044   2.838   2.219  0.0591  0.0673 -0.0120
24399W        W40660  10.267  15.107  12.654  0.0501 -0.1443  0.1224
24400W        W40661  10.451   7.394   3.825 -0.0913  0.0432 -0.2267
24401W        W40662  13.485   1.126   3.392  0.0885  0.0446 -0.1560
24402W        W40663   8.917  16.430   1.629  0.0764 -0.0325  0.0753
24403W        W40664   0.522  17.261   0.173  0.2824 -0.2193  0.0859
24404W        W40665  10.384  14.984   3.497 -0.0868  0.1015 -0.2316
24405W        W40666  13.504   5.029  14.653  0.0002  0.1441  0.1919
24406W        W40667   2.577   0.014  11.815  0.0409  0.1119 -0.0717
24407W        W40668  10.107   8.503  12.056 -0.0377  0.0007  0.0573
24408W        W40669  11.300   7.499   4.325 -0.0838  0.0646 -0.0399
24409W        W40670  13.603  15.421  14.548  0.0763  0.0289 -0.1016
24410W        W40671  11.772   8.919  14.893 -0.1089  0.2611 -0.0423
24411W        W40672  15.636  10.404  12.950 -0.1435  0.1385 -0.0945
24412W        W40673  14.254   3.319  15.346  0.1741  0.0920  0.0699
24413W        W40674  15.766   0.622   5.019  0.1255  0.2214 -0.1713
24414W        W40675   5.101  14.620   4.486  0.2431  0.1476  0.0864
24415W        W40676   9.658  11.123  13.017 -0.2252 -0.1355 -0.0912
24416W        W40677   1.177   7.746   5.170  0.1408 -0.4707  0.1027
24417W        W40678   5.619   6.523   0.782  0.0526 -0.2478  0.2103
24418W        W40679   7.563  14.585  12.439 -0.2248 -0.0663 -0.0029
24419W        W40680   3.123  10.990  15.573  0.2763 -0.0298  0.1294
24420W        W40681  16.090  18.092   4.700  0.2466 -0.4572  0.1170
24421W        W40682  17.505   9.374  14.395 -0.1058  0.1376  0.1264
24422W        W40683   4.846  18.248   3.631 -0.0212 -0.3342  0.2395
24423W        W40684   1.146   3.670  13.103  0.0657 -0.0922 -0.0867
24424W        W40685   4.148   2.900   6.286 -0.3178 -0.1541  0.1412
24425W        W40686   6.322   8.120  11.160 -0.1278 -0.1809 -0.3135
24426W        W40687   5.526   7.596  11.575 -0.1217  0.0244  0.1168
24427W        W40688  17.377  10.889  12.999  0.1519  0.0726  0.0790
24428W        W40689   3.723   2.028   5.205  0.1120 -0.1375  0.1884
24429W        W40690   6.262   0.071   4.923  0.1820  0.2217  0.2129
24430W        W40691   0.554   8.330   0.278 -0.0373  0.1159  0.0532
24431W        W40692   8.094  13.499   4.808 -0.1250 -0.2276 -0.0520
24432W        W40693  14.832  11.575   5.876  0.4070  0.2439  0.0058
24433W        W40694   9.858  13.131  12.528  0.1650  0.2398  0.0252
24434W        W40695   9.831   3.909  15.684 -0.2486 -0.1378 -0.1493
24435W        W40696   1.982   6.858   1.641  0.1908  0.2341  0.0080
24436W        W40697   2.465   7.484   3.680 -0.2599 -0.0751  0.0086
24437W        W40698   2.722   5.021   4.289 -0.2017 -0.3303 -0.0933
24438W        W40699  15.146   7.355  12.128 -0.3627  0.2501 -0.0236
24439W        W40700   2.163   2.426  12.523 -0.2883  0.0515 -0.1634
24440W        W40701  11.661  15.374  10.887 -0.0868 -0.2630  0.1791
24441W        W40702   6.924  12.540   4.986 -0.2303 -0.1183  0.2366
24442W        W40703   2.239  13.251  14.203 -0.2589  0.2345  0.2212
24443W        W40704   7.241  13.514   3.252 -0.0982  0.0017 -0.0511
24444W        W40705   6.841   3.656  14.301  0.0979 -0.0682 -0.0838
24445W        W40706   1.710  14.060  15.175  0.0269 -0.0659  0.2486
24446W        W40707  11.998   9.899  15.522  0.0289 -0.1157  0.0105
24447W        W40708  10.714  17.197   4.873  0.0541 -0.1009 -0.2196
24448W        W40709   3.410   1.030  11.104 -0.1058 -0.4627  0.5814
24449W        W40710   8.986  15.441   3.309  0.0537  0.0879  0.0232
24450W        W40711   2.138  11.264  12.853  0.1264 -0.0145  0.0230
24451W        W40712   1.267  15.044  14.643 -0.0960  0.0107  0.1276
24452W        W40713  13.879  13.406  14.898 -0.1010  0.1509  0.1980
24453W        W40714  14.635  15.399  15.161  0.4273 -0.0643 -0.1128
24454W        W40715   7.141   2.569  15.329 -0.0603  0.0362  0.1558
24455W        W40716  11.337   5.201  13.859  0.4182 -0.1103 -0.0737
24456W        W40717  12.064  12.481  10.288 -0.4652 -0.1106  0.2757
24457W        W40718  16.233   0.589  15.630  0.0542  0.0618 -0.0905
24458W        W40719  15.008  11.351   4.984 -0.2896 -0.0215  0.1975
24459W        W40720   9.802   9.145  15.871 -0.0381 -0.1077  0.2495
24460W        W40721  13.637   1.643   4.288  0.0938 -0.1456 -0.0010
24461W        W40722   1.442   7.116   1.103  0.0365 -0.1806 -0.3628
24462W        W40723  17.883   6.593  11.478  0.0540  0.0581 -0.2409
24463W        W40724  10.766  17.734   4.800 -0.2087 -0.0225  0.0088
24464W        W40725   6.041   7.218  13.748  0.1728  0.2107  0.1514
24465W        W40726   5.540  14.231  14.879 -0.0447 -0.1446 -0.0480
24466W        W40727  10.964  17.827  13.035 -0.1311  0.0864  0.1303
24467W        W40728  17.072  12.876  11.089 -0.0247  0.2641  0.0117
24468W        W40729   2.180  11.906  15.228  0.0148  0.0180  0.4127
24469W        W40730   0.543  17.834  15.612 -0.2913  0.1145 -0.4076
24470W        W40731   0.142   7.553   3.968  0.1156 -0.3075 -0.1912
24471W        W40732   7.135  15.742  12.251  0.0323 -0.0978  0.0932
24472W        W40733  13.445   3.573  12.199 -0.1388 -0.1128  0.0140
24473W        W40734  11.159  14.902   3.205  0.0568  0.0923 -0.1570
24474W        W40735   1.960   4.017   2.832  0.2299 -0.1684  0.1553
24475W        W40736  13.973   8.522   3.887  0.0063 -0.2057 -0.0547
24476W        W40737   7.658   0.850  11.301 -0.1991  0.0033  0.1027
24477W        W40738   2.988  15.404   1.507 -0.2106 -0.0737 -0.1368
24478W        W40739   2.220   9.989  15.149  0.2090 -0.1977  0.3255
24479W        W40740  18.272  14.000  13.775 -0.0390  0.2165  0.2793
24480W        W40741  16.080   3.086   5.365  0.1225  0.0440 -0.1105
24481W        W40742   1.925   1.349   4.754  0.0810 -0.3581  0.4416
24482W        W40743  14.586   9.921   5.163  0.0219  0.1872 -0.1393
24483W        W40744   3.353  16.668  15.916  0.3864 -0.4389 -0.2077
24484W        W40745   6.194  15.534  10.812  0.0391 -0.3315  0.1866
24485W        W40746  17.975   7.196  14.106  0.0215  0.4311  0.0794
24486W        W40747   0.638   1.030   1.243 -0.0213  0.0289  0.2306
24487W        W40748  14.905  14.881  13.994  0.1261 -0.0340  0.0166
24488W        W40749  13.199  14.254  12.950  0.2424  0.0140 -0.3241
24489W        W40750   4.448   5.152  13.290  0.0425 -0.1096  0.0568
24490W        W40751  11.856   9.330  13.665 -0.0483  0.0080 -0.0813
24491W        W40752  11.394  17.739   1.380  0.2775  0.1501  0.1170
24492W        W40753   7.560  18.151  13.083  0.1891  0.2087 -0.1413
24493W        W40754   1.171   4.416  13.712  0.1447  0.1021  0.0455
24494W        W40755  11.330   1.843   2.646  0.4015  0.1537  0.0872
24495W        W40756  15.720   3.943  15.569 -0.0428  0.0248  0.0576
24496W        W40757  11.309   8.250  13.596 -0.0393  0.0936 -0.2318
24497W        W40758  13.111   5.128   5.179 -0.2924 -0.0869  0.1068
24498W        W40759   2.253  13.120   2.224 -0.0356  0.0152 -0.0766
24499W        W40760  16.938  10.769   1.525  0.3235 -0.0295 -0.1641
24500W        W40761   1.104   1.984   0.929  0.2284  0.1777 -0.1599
24501W        W40762  14.738  14.923   1.909 -0.1864 -0.0687 -0.2740
24502W        W40763  14.271   3.210   0.561  0.2800  0.3033 -0.0460
24503W        W40764   1.885  17.268   4.380  0.1280 -0.0871 -0.1284
24504W        W40765   4.575   1.000   2.981 -0.2058 -0.0834 -0.0114
24505W        W40766   4.175  10.278   4.027 -0.1649  0.1982 -0.2442
24506W        W40767  11.634  18.158   2.092  0.0697  0.1699  0.1634
24507W        W40768   7.618   4.094   4.919  0.0585  0.3521 -0.0202
24508W        W40769  12.708  12.722  13.644 -0.2842  0.0436  0.1362
24509W        W40770   8.651  12.753  15.484 -0.0889 -0.1412 -0.0972
24510W        W40771   1.918  11.804   5.487 -0.0709 -0.4387 -0.0585
24511W        W40772   1.902  17.973   3.943 -0.1977 -0.2386  0.0926
24512W        W40773   9.261   5.698   0.547  0.0081  0.1701  0.2185
24513W        W40774   7.459   0.725  15.800 -0.2412  0.1993 -0.0504
24514W        W40775   8.790   7.699   1.045  0.0554  0.1073  0.0186
24515W        W40776  10.702   8.855  12.822  0.1899  0.1357  0.0591
24516W        W40777   6.463  10.710  16.077 -0.1575  0.2440 -0.2511
24517W        W40778  14.437   8.054   5.881  0.3033 -0.2811 -0.3925
24518W        W40779  15.480   3.366   3.918  0.1514  0.1637 -0.3842
24519W        W40780   6.854  15.988  10.752 -0.0460  0.0789  0.0398
24520W        W40781   6.775   1.433  14.936  0.2191 -0.1089  0.2306
24521W        W40782   6.459   4.413  12.353 -0.0012  0.1044  0.1466
24522W        W40783  17.034   7.444   2.045  0.2668 -0.1971 -0.0830
24523W        W40784  14.654   9.484   0.111 -0.2837 -0.0036 -0.2260
24524W        W40785  11.651   4.593  15.259  0.3768  0.2340 -0.1968
24525W        W40786   2.361   2.993  11.879 -0.1311 -0.2046 -0.0655
24526W        W40787   2.491  13.505   3.346 -0.3781 -0.4126  0.1646
24527W        W40788   1.380  12.399   4.623  0.0901  0.2539 -0.0079
24528W        W40789   4.685   3.621   5.296  0.2521 -0.2727  0.2368
24529W        W40790   4.267   9.743  15.790 -0.0698  0.0661 -0.5219
24530W        W40791  16.904  11.333   4.485 -0.1146  0.2302 -0.2021
24531W        W40792  13.105   8.949   2.390  0.1115 -0.4426  0.0734
24532W        W40793  12.329  17.111   0.014  0.3120  0.0731  0.1050
24533W        W40794  15.636   4.494   3.433  0.0224  0.0258  0.3192
24534W        W40795   3.427  16.900  10.730 -0.3319  0.0076  0.1890
24535W        W40796   6.649   6.077  11.599 -0.2551  0.0095 -0.2143
24536W        W40797  10.733   9.089   3.388  0.1504 -0.0565  0.0292
24537W        W40798   7.697   6.065   3.033 -0.0067 -0.2543  0.0597
24538W        W40799   1.623   8.709   4.401  0.1892  0.3144 -0.1031
24539W        W40800   9.061   2.962  14.297  0.0850 -0.1722  0.0383
24540W        W40801  13.180  15.254   4.194 -0.2647  0.3771 -0.1650
24541W        W40802  14.427  15.095  12.311 -0.2922  0.0649 -0.0486
24542W        W40803  10.703   0.301   3.127  0.1200  0.0814 -0.0468
24543W        W40804   1.273   9.507  12.038  0.1454  0.1061  0.4156
24544W        W40805   7.169   1.340   4.176  0.0609  0.1628 -0.1116
24545W        W40806  17.257   9.182  11.804  0.3094 -0.2511 -0.3838
24546W        W40807   6.936   6.100  14.401 -0.0103  0.0454 -0.0894
24547W        W40808   6.798  14.944   1.931  0.2314 -0.2153  0.0469
24548W        W40809   1.258   0.838   4.436 -0.0060  0.0676  0.0355
24549W        W40810  14.220  10.879  11.771 -0.0043  0.1176  0.0421
24550W        W40811  16.244  14.696  15.612  0.0196 -0.0939  0.0509
24551W        W40812   1.687   8.167   4.544 -0.0524  0.0575 -0.0184
24552W        W40813  14.621   5.329   2.663  0.0451 -0.0396  0.0172
24553W        W40814   3.395  15.438  12.690  0.2350 -0.0609 -0.1936
24554W        W40815   5.934  10.992   1.702  0.0619  0.1191  0.2029
24555W        W40816  17.766   2.810   5.875 -0.0891  0.2420  0.2596
24556W        W40817   8.867  14.953  14.477  0.2492  0.0862  0.0258
24557W        W40818  12.490  16.272   4.685 -0.0050  0.0994 -0.0603
24558W        W40819   5.755  13.604   4.643  0.1110 -0.2789  0.1757
24559W        W40820   7.141  10.329   4.407 -0.2585 -0.2906  0.0082
24560W        W40821  14.018   9.046  12.298  0.0754  0.0201  0.2623
24561W        W40822   1.343  17.099   4.157  0.1580  0.0067  0.0861
24562W        W40823   1.316  12.032   3.583 -0.2346 -0.0524 -0.0147
24563W        W40824   7.324   0.022   4.162 -0.0920  0.2209 -0.0236
24564W        W40825   8.039  17.500   1.538 -0.1382 -0.1894 -0.1027
24565W        W40826   1.520  15.261  11.044 -0.0744 -0.4015  0.2050
24566W        W40827  11.915  16.881   3.803  0.0162  0.0213 -0.0632
24567W        W40828  15.083   4.408  12.280  0.5203 -0.0639 -0.0178
24568W        W40829  15.278   9.470  14.711  0.3762  0.2580 -0.0227
24569W        W40830  11.215   6.181   1.322 -0.0824 -0.2206 -0.5490
24570W        W40831   0.748   5.467  12.494  0.3120 -0.2925  0.2647
24571W        W40832   0.668  16.170  12.342  0.2035 -0.0611 -0.0098
24572W        W40833   7.996   5.294  14.575  0.0784 -0.2086  0.1813
24573W        W40834   9.894   4.397  15.889 -0.0015  0.0676  0.0683
24574W        W40835   5.071   4.522  12.231  0.1846  0.0032 -0.5384
24575W        W40836   0.595   9.387   2.965  0.1165 -0.1219 -0.0673
24576W        W40837  17.043  13.472  12.770 -0.0276 -0.2509 -0.0580
24577W        W40838  12.385   5.084  13.529  0.2965  0.2413 -0.0220
24578W        W40839  13.277  13.839  12.709 -0.0761  0.1492  0.0390
24579W        W40840   6.668   7.124   3.979 -0.2898 -0.1117  0.4681
24580W        W40841  12.983   9.800   3.301  0.0383  0.3750  0.0468
24581W        W40842  13.889  11.382  15.324 -0.0215 -0.0286 -0.4698
24582W        W40843   2.246  11.603  14.556 -0.2518 -0.1049  0.2164
24583W        W40844   7.894   0.683   4.122 -0.3164 -0.2815 -0.1905
24584W        W40845  18.318   6.799  14.849 -0.2004  0.4235 -0.4209
24585W        W40846   3.339   8.841  11.967 -0.0147  0.2047 -0.1037
24586W        W40847  12.890  10.765   4.809  0.2707  0.2082  0.0811
24587W        W40848   8.250  14.950  11.191 -0.0457 -0.0759  0.2465
24588W        W40849   6.005  16.872  13.155 -0.1175  0.0901  0.0314
24589W        W40850   1.594  14.328  16.257  0.3691 -0.1900  0.1169
24590W        W40851   4.966   7.753  14.449  0.0375  0.1046 -0.0975
24591W        W40852   2.942   4.444   5.120  0.0528 -0.0910 -0.2010
24592W        W40853  11.685   0.782   0.465 -0.1310  0.0192 -0.2993
24593W        W40854   9.710   9.813  12.584  0.0031  0.1525 -0.5083
24594W        W40855  16.008   2.194   1.955  0.0336  0.2593  0.0176
24595W        W40856  16.887   1.170   0.773  0.2257  0.2225  0.0261
24596W        W40857   3.319   5.550   1.780  0.1515  0.0486  0.4126
24597W        W40858  10.059  10.363   2.522  0.1513  0.3403 -0.0747
24598W        W40859   9.405  14.107   3.273 -0.1553 -0.5391 -0.2109
24599W        W40860   7.682  11.897  10.546  0.2875  0.0862  0.1482
24600W        W40861  10.966   1.489   4.717 -0.0608 -0.0344 -0.0706
24601W        W40862  16.250  12.190  12.982  0.0985  0.0196  0.0197
24602W        W40863  10.284  15.463  14.133 -0.1168 -0.1281 -0.2483
24603W        W40864  13.042  11.217  14.879 -0.1853 -0.0601  0.1711
24604W        W40865  13.352   7.988   5.638  0.0017  0.1951  0.3587
24605W        W40866  11.519  13.663   0.892  0.4327 -0.0611  0.1110
24606W        W40867  18.282  16.205  14.610  0.3553  0.0749  0.0982
24607W        W40868   2.622   9.392   2.973 -0.2057 -0.1431 -0.1244
24608W        W40869  17.797   5.507  13.034 -0.4516 -0.0341  0.0191
24609W        W40870   5.195  15.397  13.457  0.2809 -0.0139 -0.1449
24610W        W40871   0.847  13.869  15.093 -0.2359 -0.0332 -0.0088
24611W        W40872   8.891  10.331  11.464 -0.0559  0.1492  0.2147
24612W        W40873  12.699   6.017  12.445 -0.0561 -0.2686 -0.0131
24613W        W40874   2.645   3.203   4.869 -0.2538 -0.1300 -0.0104
24614W        W40875  18.366  17.033   3.942  0.1438 -0.1989  0.1917
24615W        W40876  12.505   3.595  11.495  0.1128  0.0703  0.0694
24616W        W40877  11.474  17.840  16.068 -0.1598 -0.0408 -0.1613
24617W        W40878   1.008   9.038  15.467  0.0109  0.5855  0.0404
24618W        W40879  10.642   8.818  11.678  0.1993  0.1347  0.0560
24619W        W40880   2.162   4.450   2.685  0.1312  0.2789  0.1512
24620W        W40881  10.311  13.560   3.733 -0.1169  0.0340  0.5049
24621W        W40882   0.062   9.987  15.918 -0.0916  0.0398  0.1602
24622W        W40883   7.731  15.980  13.429  0.0932 -0.0892 -0.0191
24623W        W40884  17.266   2.339  13.201 -0.0089 -0.1431  0.0063
24624W        W40885   1.414   5.335  13.932 -0.4100 -0.0862  0.0958
24625W        W40886   8.958   8.368  14.126  0.0831 -0.1250  0.2106
24626W        W40887   7.504  15.593  14.636 -0.1663 -0.2617  0.1135
24627W        W40888   4.516   4.587  11.988 -0.0562 -0.4920 -0.2790
24628W        W40889  18.268  10.827  14.779  0.1724 -0.0381 -0.0032
24629W        W40890   5.763  17.291  13.167  0.1153 -0.1341 -0.1833
24630W        W40891   9.425   3.177  15.068 -0.1608 -0.0297 -0.1755
24631W        W40892   7.126   4.796   0.924 -0.1973 -0.2974  0.3756
24632W        W40893   6.068  11.623  15.097  0.0133  0.1020  0.2425
24633W        W40894   1.740   9.203  11.597 -0.0345 -0.0272 -0.1002
24634W        W40895   4.887   7.076   0.232 -0.0072 -0.0679 -0.0596
24635W        W40896  12.995  13.198  14.306  0.0013  0.0236 -0.2496
24636W        W40897   1.848   3.676  15.643  0.0386 -0.3054 -0.0125
24637W        W40898  13.653  17.295  15.146 -0.2209  0.0548  0.0928
24638W        W40899   9.000   7.022  12.948  0.2872 -0.0281  0.2208
24639W        W40900  14.546  12.572  14.023 -0.0494 -0.0637 -0.0610
24640W        W40901  10.073   3.923  14.985 -0.0842 -0.1420 -0.1397
24641W        W40902  17.926   6.610   4.709  0.2651 -0.1914  0.1423
24642W        W40903   3.836   9.123   2.008 -0.0965  0.2883 -0.1528
24643W        W40904  16.855  14.966   2.119  0.1768  0.2838 -0.1756
24644W        W40905   0.360  13.189   3.557  0.2396 -0.2993  0.0380
24645W        W40906   9.678   2.414  13.393  0.1177  0.0602 -0.2600
24646W        W40907   7.654   8.915  11.457 -0.1856 -0.2326 -0.0428
24647W        W40908  10.046  12.487  10.382 -0.1816  0.1415  0.0748
24648W        W40909   6.759  13.533  13.183 -0.2598  0.1418 -0.0208
24649W        W40910   3.415   3.240   0.358  0.0604  0.0387 -0.0616
24650W        W40911   0.771   6.145   4.471 -0.2584  0.1270  0.2005
24651W        W40912   3.245   0.655   3.407 -0.0174 -0.0356  0.0404
24652W        W40913   5.373  17.699  13.913  0.1493 -0.0273  0.4896
24653W        W40914  14.650  11.788   6.299 -0.0021  0.1945  0.0527
24654W        W40915  17.842   9.619  14.784 -0.0935  0.1727 -0.2559
24655W        W40916  10.701  17.598   4.138 -0.1039  0.0718 -0.0007
24656W        W40917   7.506   3.173   1.808 -0.0164  0.0915 -0.0171
24657W        W40918  11.531  13.964   2.535  0.0576 -0.1037  0.2374
24658W        W40919  11.968  11.978   0.709  0.2088 -0.1474  0.3778
24659W        W40920   7.598   2.251  12.708 -0.0687  0.2199 -0.4070
24660W        W40921  17.767   2.346   5.227 -0.1375  0.1238 -0.2227
24661W        W40922   6.373   6.541  15.236  0.0226 -0.0423  0.0394
24662W        W40923  15.652  17.132  14.484  0.1428 -0.0097 -0.0966
24663W        W40924   6.232  16.247   3.313  0.2923  0.1532  0.0824
24664W        W40925   2.088  15.632   5.579 -0.0477 -0.1629 -0.2470
24665W        W40926   9.114   3.929   3.012  0.3849 -0.1593 -0.1628
24666W        W40927   9.243  17.880  15.594 -0.2571  0.0243 -0.1425
24667W        W40928  11.409   3.369  13.502 -0.0003  0.1812  0.0224
24668W        W40929   5.261   0.640  11.996 -0.1822 -0.0433 -0.1282
24669W        W40930   7.030   7.697  13.235  0.2412 -0.1638  0.0947
24670W        W40931  14.845  16.575   2.426  0.0536  0.0045 -0.0815
24671W        W40932   2.224  14.751   4.605 -0.2013  0.1730 -0.1471
24672W        W40933   8.194  17.393   5.281 -0.2315 -0.1862  0.0247
24673W        W40934   6.912   7.233   1.710  0.3947  0.3223  0.2028
24674W        W40935   3.204   4.294   3.427 -0.0314  0.1340 -0.0296
24675W        W40936  14.376   6.349  11.737 -0.1103  0.2089 -0.1044
24676W        W40937   7.112  13.447   2.008  0.0806 -0.2486 -0.2386
24677W        W40938  11.939   2.715  12.256  0.1883  0.3762 -0.0552
24678W        W40939   4.293  13.981   3.733  0.1611 -0.0559 -0.1353
24679W        W40940   5.711   1.353  12.349  0.1274  0.1447 -0.0273
24680W        W40941   7.313  13.059   2.356 -0.1670  0.0051  0.0113
24681W        W40942   8.001   2.734   4.589  0.0807 -0.1919 -0.2025
24682W        W40943   5.144  14.929   5.895 -0.0480 -0.1395 -0.1469
24683W        W40944   6.980  13.914   3.865 -0.2615  0.0935 -0.0917
24684W        W40945   6.999   5.916  12.928 -0.2072 -0.2130  0.1648
24685W        W40946   8.098  15.554  12.052 -0.0345  0.0771  0.1510
24686W        W40947  12.545   3.387   1.364 -0.1248 -0.3343 -0.1692
24687W        W40948   6.735   0.822  14.082 -0.0945  0.1874 -0.2460
24688W        W40949  17.648   9.392  11.033  0.1883  0.1416  0.0169
24689W        W40950   5.148  11.928  11.668  0.0534  0.1931 -0.2558
24690W        W40951   9.966   1.072  14.710  0.1567 -0.0930  0.2590
24691W        W40952  18.088  14.355  12.120 -0.0612  0.3354  0.1034
24692W        W40953   6.163   8.303  14.681  0.2554  0.0999 -0.2343
24693W        W40954  11.383   4.082  15.325  0.0290 -0.0010  0.1267
24694W        W40955   3.796   8.626  11.607  0.1198 -0.0648 -0.1366
24695W        W40956   1.601   0.034   2.060  0.0643 -0.0305 -0.0232
24696W        W40957   3.064  17.139   3.367 -0.0319 -0.3056 -0.2555
24697W        W40958  11.758   1.618   2.170 -0.1910 -0.2148  0.0409
24698W        W40959  10.332  10.176   4.448  0.0125 -0.1677 -0.2332
24699W        W40960   1.539  13.184   5.700  0.2944 -0.1387  0.1164
24700W        W40961   2.767  11.550   4.181  0.0920 -0.0613  0.0168
24701W        W40962  11.489   9.495  14.016 -0.4802 -0.3685  0.0029
24702W        W40963   1.385   9.932   0.903 -0.1242 -0.0201  0.0135
24703W        W40964   7.821  15.149  14.476  0.1400  0.0403  0.2402
24704W        W40965  13.995   7.930  15.369  0.1683  0.0602  0.2641
24705W        W40966   9.744   6.012  10.956  0.0357  0.0222 -0.1577
24706W        W40967  10.270   6.784   2.351 -0.0970  0.0494 -0.0552
24707W        W40968   5.405  14.379  12.080  0.0536 -0.1093 -0.1330
24708W        W40969  10.881  10.217  13.964 -0.3274  0.1125  0.1812
24709W        W40970   2.357   4.522   5.132 -0.0208  0.1011 -0.2173
24710W        W40971   9.172  14.395   0.978 -0.0688 -0.0447  0.0931
24711W        W40972   9.481  15.621  14.903  0.0263  0.1061 -0.0279
24712W        W40973   1.575   7.746  12.475  0.1427 -0.2992  0.0337
24713W        W40974   7.295   9.994  14.256 -0.1259 -0.1673 -0.1403
24714W        W40975   9.489   5.742  13.412  0.1990  0.1869  0.0804
24715W        W40976   9.300   7.687   4.153  0.1722  0.1166  0.0025
24716W        W40977   8.440   3.381  15.781 -0.0757 -0.0053 -0.2361
24717W        W40978   2.315   6.847   0.773  0.3561  0.2717 -0.1030
24718W        W40979   6.351   7.732  13.062  0.0386  0.2659 -0.2701
24719W        W40980   2.694  16.262  13.602  0.3776  0.0941 -0.4537
24720W        W40981  12.490   6.496   3.137  0.2635 -0.4248 -0.0316
24721W        W40982  10.542  10.048  11.076 -0.2431 -0.0840  0.0796
24722W        W40983  12.243  10.583  13.306 -0.0896 -0.3568  0.2720
24723W        W40984  18.081  11.277   0.510 -0.1547 -0.2455 -0.0793
24724W        W40985   8.872   4.334  12.561 -0.0872  0.1596 -0.0046
24725W        W40986  10.173  14.706  14.765 -0.2500  0.2874  0.2390
24726W        W40987   6.908  16.548   5.191 -0.3271 -0.1665  0.2489
24727W        W40988  15.971  16.172   0.710  0.0810 -0.2170 -0.1737
24728W        W40989   5.030   2.928  15.353 -0.1527 -0.1058  0.2085
24729W        W40990   0.879  12.517  14.922 -0.2192  0.1308  0.0873
24730W        W40991   6.508  13.218  15.931 -0.3378  0.0004 -0.2332
24731W        W40992   5.494   5.320  11.766  0.0910 -0.0727  0.2491
24732W        W40993   0.070   3.591  16.298 -0.0656  0.3006 -0.0375
24733W        W40994  14.998   2.921  14.405 -0.1752 -0.0006 -0.3179
24734W        W40995   8.478  14.493  15.268 -0.3406 -0.3908  0.1524
24735W        W40996   1.028   1.032  16.289  0.0107  0.0521  0.0292
24736W        W40997  10.229  14.008   4.610  0.0381  0.0381 -0.3689
24737W        W40998  17.000   9.533  14.384  0.0013  0.3634 -0.1045
24738W        W40999  12.546   1.426  15.013  0.1444  0.2210 -0.0579
24739W        W41000  12.186  14.643   0.482  0.1554 -0.4004  0.0022
24740W        W41001   1.668   4.404   5.652 -0.3863  0.0449  0.1774
24741W        W41002  16.594   4.138  11.424 -0.0060 -0.2214  0.0377
24742W        W41003   8.210   4.068  15.415  0.3317  0.4912  0.0759
24743W        W41004   5.819   6.663   1.200 -0.2110 -0.1271  0.2947
24744W        W41005  17.446   2.471  12.701  0.1198 -0.0906  0.0446
24745W        W41006   3.203   3.019   1.166 -0.1574 -0.3275  0.2499
24746W        W41007  14.260  12.436   0.381  0.2580 -0.0415 -0.2112
24747W        W41008   1.597   8.321  14.460  0.0917  0.0824 -0.2099
24748W        W41009   8.349  18.324  12.345 -0.4892 -0.1751  0.1583
24749W        W41010   4.036  10.784  14.235  0.2839  0.1236  0.1660
24750W        W41011  13.373   7.047  11.599 -0.0571 -0.1311 -0.0614
24751W        W41012   5.647  13.539  14.354 -0.1444 -0.0977  0.0204
24752W        W41013   5.476   8.551  12.889 -0.2326  0.4165  0.2505
24753W        W41014   7.715  11.414  14.693  0.2106 -0.0218  0.0061
24754W        W41015  10.038  13.539   3.320  0.0867 -0.1337 -0.1754
24755W        W41016  10.127   8.100  13.767  0.1988 -0.3957 -0.3760
24756W        W41017   2.337   3.613   4.178 -0.5258 -0.1524  0.1567
24757W        W41018  12.020   9.793  11.817 -0.2981  0.1766  0.0330
24758W        W41019   2.583  10.554   1.491 -0.1328 -0.0380  0.1100
24759W        W41020   9.316   9.939  14.656  0.2274 -0.0268 -0.0294
24760W        W41021   7.001   5.481  14.542  0.0384  0.3767 -0.0770
24761W        W41022  14.863   6.493   0.376  0.1517 -0.0615 -0.0894
24762W        W41023   4.390  13.589   0.057 -0.4231  0.4924  0.1654
24763W        W41024   9.214   9.942  10.758 -0.0404  0.1144  0.0259
24764W        W41025   7.663   2.044   3.403 -0.0090 -0.0806  0.0726
24765W        W41026  14.166  17.106   3.619  0.0361  0.0598  0.0546
24766W        W41027   2.096   0.814   5.030  0.4405 -0.1518  0.2791
24767W        W41028   4.361   3.019  11.906 -0.3338  0.1060 -0.1756
24768W        W41029  10.191  12.188  10.900  0.3185 -0.0613  0.0569
24769W        W41030  15.168  16.862   3.743  0.1945 -0.1387 -0.0554
24770W        W41031  15.795  18.049   4.230 -0.0185  0.1088  0.1362
24771W        W41032   2.633   4.508   5.588 -0.1720  0.0323 -0.2816
24772W        W41033   2.271  11.273   4.132 -0.2001 -0.1686  0.0521
24773W        W41034   5.383   4.462  15.987  0.2182  0.2787 -0.1181
24774W        W41035  14.808   0.787   5.541  0.4102 -0.4350 -0.2127
24775W        W41036   7.297  10.772   2.762  0.1060 -0.0516  0.2679
24776W        W41037   0.356  16.502   5.677  0.2180 -0.2601  0.0848
24777W        W41038   7.520   4.446  15.222 -0.1175  0.2176  0.1047
24778W        W41039  12.718   0.894  13.427 -0.1866  0.1506  0.4567
24779W        W41040   9.296  18.275   4.907  0.0473  0.0966  0.0415
24780W        W41041   4.816   7.223  15.663  0.2043  0.0795  0.2018
24781W        W41042  15.059  18.147   1.721 -0.2244  0.1137 -0.0571
24782W        W41043   8.167   2.638  14.292 -0.0128  0.1929 -0.0850
24783W        W41044  14.945   6.365  15.991  0.0287 -0.0819  0.1625
24784W        W41045  10.052  16.331  14.095 -0.1776  0.1330  0.1078
24785W        W41046  13.233  15.828  10.087  0.1599 -0.1377  0.0532
24786W        W41047   4.157  10.629   3.025 -0.2819 -0.1195  0.3266
24787W        W41048   2.683   7.436  14.902 -0.0745 -0.0416 -0.0701
24788W        W41049  12.035   8.760  15.756  0.0637 -0.0322 -0.1559
24789W        W41050   9.131  16.899   5.978 -0.0477 -0.0341  0.0021
24790W        W41051   9.911  12.486  15.940  0.0086 -0.2301  0.2651
24791W        W41052   0.126  10.748  15.689  0.0239 -0.0764  0.1088
24792W        W41053   1.095   4.490   3.811  0.0717  0.1975  0.0091
24793W        W41054   3.777  11.903   1.582  0.1663 -0.1198  0.1754
24794W        W41055   6.652  15.027   5.445 -0.0339 -0.2392  0.0255
24795W        W41056  14.687   9.921  11.756  0.4299  0.2166 -0.2636
24796W        W41057  11.598   9.388   1.977  0.1683  0.0326 -0.0491
24797W        W41058  17.024  10.068   4.480 -0.0346 -0.0686  0.2220
24798W        W41059  10.571   4.179   0.909  0.0325  0.1646 -0.1199
24799W        W41060   1.841   3.203   0.751  0.1283 -0.0306 -0.0518
24800W        W41061  11.524  10.049  15.837  0.0760  0.1478  0.2889
24801W        W41062   5.171   7.476   4.278 -0.0086  0.2688 -0.2563
24802W        W41063   8.568   2.533   3.943  0.1415 -0.0044 -0.0015
24803W        W41064   8.982   7.038  16.016  0.1145  0.0690  0.1583
24804W        W41065   7.405  14.727   4.149 -0.0468 -0.2307  0.0084
24805W        W41066   2.955  14.575  15.605  0.2351 -0.0285 -0.0157
24806W        W41067  16.737   3.599   2.667 -0.0976 -0.0356 -0.0015
24807W        W41068   8.778   5.263   4.930  0.0872  0.0764 -0.0393
24808W        W41069   9.230   6.857  15.343 -0.0281  0.1812  0.1535
24809W        W41070   7.711  15.481   2.760 -0.2827  0.0197  0.0709
24810W        W41071  15.581  18.154  15.776  0.0839  0.1344  0.1557
24811W        W41072   1.723   8.126  12.133  0.1062  0.2798  0.1663
24812W        W41073  11.508  14.238  13.940  0.0461  0.2219  0.1246
24813W        W41074   9.033  14.477   3.464  0.0594 -0.0757  0.0800
24814W        W41075   5.249   7.791   2.182 -0.1071  0.2592  0.2053
24815W        W41076  13.462  15.084  13.051 -0.0607  0.1392  0.1928
24816W        W41077  16.695  13.321  13.732 -0.2079  0.1392  0.1392
24817W        W41078   3.149  11.251   3.773 -0.0869 -0.0629 -0.1319
24818W        W41079  17.931   9.141  16.200 -0.3017 -0.2033 -0.0507
24819W        W41080  18.349  13.976   1.085  0.0307 -0.2685 -0.0957
24820W        W41081  14.508   1.731   2.080  0.1442 -0.0105 -0.1367
24821W        W41082  12.099  12.864   4.067 -0.5568  0.2725  0.1487
24822W        W41083   3.894  17.435   1.638 -0.4182  0.1538  0.0280
24823W        W41084  13.939   4.783  14.870  0.0440  0.0350  0.4502
24824W        W41085  15.012  14.453   2.946  0.0535 -0.2510 -0.1314
24825W        W41086  12.320   9.583  13.781  0.2540  0.0714  0.2028
24826W        W41087   7.479  17.293   3.320 -0.0520  0.1885 -0.0599
24827W        W41088  12.562   2.072  12.355  0.0626  0.1433  0.1068
24828W        W41089   2.273   5.006  11.579 -0.5637 -0.1015 -0.1728
24829W        W41090  14.456  16.994   0.275 -0.1979  0.0111  0.0317
24830W        W41091  16.155   5.701   4.488  0.1125  0.1775 -0.1319
24831W        W41092   5.177  15.713   5.522  0.0089  0.2292 -0.1343
24832W        W41093   8.271  14.919   1.940 -0.0119  0.2187  0.1835
24833W        W41094   4.594  13.577  14.339  0.2829  0.1654 -0.1956
24834W        W41095  12.928  16.525  13.987  0.2002  0.0097 -0.1360
24835W        W41096  16.987   3.311   1.456 -0.0858 -0.1439  0.0896
24836W        W41097  14.765  13.365  11.164 -0.2379 -0.2399 -0.0448
24837W        W41098   9.680   4.928  13.344 -0.1337  0.0340 -0.0203
24838W        W41099   7.928   6.902   3.314 -0.0883 -0.2549 -0.1457
24839W        W41100  11.201  11.832  11.490 -0.0354  0.2161 -0.2447
24840W        W41101  17.724   5.527  12.480 -0.0087  0.2047  0.1614
24841W        W41102   2.093   7.443   4.008 -0.0330 -0.1118  0.0352
24842W        W41103  15.185  18.092  12.713  0.1249 -0.0893 -0.0588
24843W        W41104  14.900   2.377   2.454  0.2588 -0.0794  0.0953
24844W        W41105   8.018   9.084   3.537  0.0201  0.0689 -0.1789
24845W        W41106  13.152   4.461   1.047 -0.1142  0.1075  0.0090
24846W        W41107  10.479   5.952  16.000  0.0691  0.3104  0.1609
24847W        W41108  16.039  14.236  12.016  0.2974 -0.2079  0.1479
24848W        W41109   8.233   5.868  15.829 -0.1642 -0.4739  0.1201
24849W        W41110   0.278  14.156   5.198 -0.1947  0.1114 -0.0397
24850W        W41111  15.971   5.538  13.923  0.2511 -0.1206 -0.2978
24851W        W41112   6.867  14.389   0.057 -0.1855  0.1355  0.0290
24852W        W41113   9.558  13.517   0.009 -0.0169 -0.0808  0.3090
24853W        W41114  15.093   6.770   5.154 -0.2328  0.1547 -0.0651
24854W        W41115   3.144  17.954  15.107  0.3229 -0.3302  0.1877
24855W        W41116   4.293  15.636   1.576  0.1741 -0.0661  0.2713
24856W        W41117   4.523   6.295   1.768  0.4415  0.0368  0.0456
24857W        W41118   8.637  17.956   0.775  0.0440 -0.3155 -0.2772
24858W        W41119   0.962  17.742  12.164 -0.2408 -0.0068  0.0126
24859W        W41120   3.391  14.373  15.899 -0.1597  0.2033 -0.1823
24860W        W41121  17.976  10.381  15.145  0.4213  0.1107 -0.1241
24861W        W41122   5.973   9.870  13.770  0.0923  0.1120 -0.1128
24862W        W41123  18.357   5.028  14.810  0.1163 -0.0469  0.0398
24863W        W41124  10.370   1.156   5.364 -0.2134 -0.0359  0.1058
24864W        W41125   1.663   8.703  12.202  0.0599 -0.1246  0.2035
24865W        W41126  16.284   5.694  11.778 -0.2319  0.1628 -0.2900
24866W        W41127   1.971   7.615  12.139  0.1505 -0.3136  0.0363
24867W        W41128  17.951  14.683  14.867 -0.1702 -0.1166  0.1023
24868W        W41129   8.773   4.790   5.104  0.1054  0.3025 -0.1729
24869W        W41130   0.863  10.973   5.230 -0.3208 -0.0304  0.2421
24870W        W41131   0.613  14.751  15.280 -0.0801  0.0784  0.0010
24871W        W41132   7.541  13.157   0.447 -0.1187 -0.0526  0.1977
24872W        W41133   7.336   8.994   4.524 -0.1484  0.1672  0.0087
24873W        W41134  15.116  12.922   4.601 -0.2144 -0.3251 -0.3132
24874W        W41135   1.563   9.193   2.191  0.3440  0.1286 -0.1125
24875W        W41136  15.201  11.596  14.074  0.1938 -0.2078  0.1025
24876W        W41137  16.449   4.632  12.505  0.0863  0.0142 -0.4845
24877W        W41138  13.215   2.861  12.650 -0.0096  0.0439  0.0023
24878W        W41139   8.693  17.647  14.305  0.0564  0.1177 -0.3340
24879W        W41140   7.807   1.449   5.963  0.0992 -0.0414 -0.0310
24880W        W41141   6.016   1.036   0.662 -0.0201  0.1104  0.0599
24881W        W41142   6.272   9.619   5.399  0.0094 -0.3407 -0.2550
24882W        W41143   3.947   0.129   0.058  0.0479 -0.0276 -0.2711
24883W        W41144  11.246  14.635  12.619 -0.2521 -0.1692 -0.2155
24884W        W41145   9.239   0.504   1.679  0.2642 -0.0248  0.0045
24885W        W41146   6.393  17.241  15.804 -0.0029 -0.0673  0.0641
24886W        W41147   7.312  16.158   0.583  0.1449 -0.0339  0.1156
24887W        W41148  13.972  14.376   4.240 -0.0274 -0.0002 -0.2712
24888W        W41149  15.331  18.262   5.368 -0.1990  0.1133  0.1387
24889W        W41150  10.965  14.632  11.212  0.1456 -0.0271 -0.2601
24890W        W41151   0.240   8.760   0.549  0.1966 -0.0326 -0.1906
24891W        W41152   7.985  14.123   2.914  0.2364  0.2657 -0.2943
24892W        W41153   4.486  13.694  15.329 -0.1132  0.1483  0.0910
24893W        W41154   1.613  14.623  11.783 -0.3313 -0.1967 -0.1056
24894W        W41155  12.372  14.818   3.599 -0.0198 -0.1792 -0.0625
24895W        W41156   7.483  17.733   4.780 -0.0518 -0.1378  0.2640
24896W        W41157   6.702   1.699   5.428  0.0884  0.1127  0.0824
24897W        W41158  12.358   6.469  13.026 -0.1280 -0.1076  0.3268
24898W        W41159   2.147  12.569  16.189 -0.2019 -0.0509  0.0786
24899W        W41160   9.823   8.046   0.362  0.4357 -0.2582 -0.0219
24900W        W41161  10.892   0.359  13.411  0.0016 -0.1127  0.3194
24901W        W41162   1.378  15.614  10.719  0.0154  0.0925  0.2454
24902W        W41163   5.539   3.746   2.022 -0.3033 -0.0973  0.2933
24903W        W41164   6.579   1.220  11.952 -0.0441 -0.4205  0.0853
24904W        W41165   4.574  14.980   1.026  0.0035  0.0825 -0.4056
24905W        W41166  11.803   1.719   0.103 -0.1973 -0.0429 -0.1732
24906W        W41167   7.747  17.267   2.460  0.1012 -0.1833  0.1022
24907W        W41168   4.113   7.375   5.158 -0.2130 -0.4510 -0.0362
24908W        W41169   7.863  10.420   1.496 -0.1624  0.1295  0.1410
24909W        W41170   3.543  14.601  14.844  0.2064  0.0538 -0.0491
24910W        W41171  14.938   1.982   2.097  0.0710  0.2932  0.1828
24911W        W41172   3.971  13.038  13.758 -0.0948  0.0729  0.2496
24912W        W41173   0.871   8.814   4.153  0.1043 -0.1061 -0.1683
24913W        W41174  14.593   8.884   1.108  0.1093 -0.2465  0.0500
24914W        W41175   6.565   2.594  11.277 -0.1359 -0.0552  0.0722
24915W        W41176  16.321   9.299   0.327 -0.0360  0.0516  0.0919
24916W        W41177  14.748   2.828   6.301  0.1291  0.0194 -0.2626
24917W        W41178   1.573  14.359   0.876  0.1971 -0.0422 -0.0339
24918W        W41179   1.721   1.240  10.940  0.1258 -0.0418 -0.1910
24919W        W41180   2.963  14.454   2.518  0.3397 -0.1164 -0.0830
24920W        W41181  10.250   8.143  12.889 -0.1532  0.3645 -0.2376
24921W        W41182  14.055   2.046   2.117  0.0449  0.0287 -0.0127
24922W        W41183  14.037   9.134   0.344  0.1366 -0.1329 -0.0032
24923W        W41184   8.518   5.820  12.261  0.1566  0.0046  0.0974
24924W        W41185   0.513  16.321   0.024  0.0194 -0.0399  0.1163
24925W        W41186  16.951  11.080  14.458 -0.2293 -0.1961 -0.1883
24926W        W41187  10.306  10.954  14.661  0.0260  0.1106 -0.0400
24927W        W41188   1.849  10.720   5.304  0.0917 -0.1648  0.0455
24928W        W41189  15.242   5.508   4.036 -0.0830  0.1545 -0.0632
24929W        W41190   9.935   1.247   4.767 -0.0794  0.1275  0.1510
24930W        W41191  13.904  13.281   0.833  0.2687  0.0696 -0.2900
24931W        W41192  11.675   6.032   4.897 -0.2117 -0.0362  0.3653
24932W        W41193  18.370   6.653   4.436  0.0852  0.0393  0.0159
24933W        W41194  15.676  17.942  12.755 -0.0961  0.1519 -0.2790
24934W        W41195   3.995  12.185   0.329  0.0285  0.2361  0.2325
24935W        W41196   5.254   9.191  14.573  0.4570  0.3468  0.1309
24936W        W41197  12.827   0.375   3.005  0.3268  0.3045  0.2861
24937W        W41198  18.273   2.183  15.223  0.2238 -0.2163 -0.1020
24938W        W41199   2.881  12.066   5.383 -0.1695 -0.3020 -0.1389
24939W        W41200  16.018   0.823   6.097  0.1322 -0.0402 -0.2755
24940W        W41201  17.645   7.957  15.341 -0.2971  0.2091  0.5684
24941W        W41202   8.612   5.505   2.481  0.1795  0.0002  0.0472
24942W        W41203  14.240   1.728  14.396 -0.3459  0.2215  0.0042
24943W        W41204  10.728   4.056  13.649 -0.1830 -0.1713  0.4804
24944W        W41205   5.061   4.093  16.024  0.1087  0.0703  0.1378
24945W        W41206  18.203  16.946  13.500  0.0203 -0.2096  0.3116
24946W        W41207   7.936  16.561   1.620 -0.0633 -0.2773  0.2930
24947W        W41208  17.322  12.684  13.049 -0.0176  0.0817 -0.1006
24948W        W41209   1.539   3.762   2.577 -0.1388 -0.3443 -0.0055
24949W        W41210   3.719   7.743   4.625 -0.0894 -0.0003  0.1422
24950W        W41211   8.075   9.146  12.268 -0.2813  0.0801  0.1755
24951W        W41212   1.204  14.763   3.008  0.1719 -0.3783  0.1152
24952W        W41213   4.801  12.688  15.344  0.2387  0.3127 -0.4285
24953W        W41214   1.328  11.046  12.346 -0.0296 -0.1173  0.0925
24954W        W41215   4.806   2.306   2.388  0.0122 -0.2065  0.1012
24955W        W41216   0.185   0.985   0.342  0.1080 -0.0490  0.1752
24956W        W41217   1.126  17.640   2.240 -0.0826 -0.1070 -0.1988
24957W        W41218  14.667   2.819  14.721 -0.1704 -0.0894 -0.0203
24958W        W41219   6.466   2.872   2.505 -0.1822  0.2000 -0.0349
24959W        W41220  18.305   2.408  13.532 -0.0374 -0.2998  0.1188
24960W        W41221  12.496   9.318  12.541 -0.0231 -0.1085 -0.1472
24961W        W41222  14.165   2.481   0.340  0.0473  0.0704 -0.4423
24962W        W41223   1.221  17.123  14.682  0.1706 -0.0153 -0.0616
24963W        W41224  10.188   2.119  11.832  0.0831  0.0217  0.0210
24964W        W41225  16.201  16.574  13.294 -0.2540 -0.1295  0.0019
24965W        W41226   3.644  16.255   3.566  0.0190 -0.0640  0.0599
24966W        W41227   6.886   1.214   5.552  0.0554 -0.2296 -0.0769
24967W        W41228   0.415   8.121  14.261 -0.0871 -0.0332  0.2508
24968W        W41229   4.352  14.865  13.450  0.0594  0.0342  0.2573
24969W        W41230   2.629  13.699  15.745  0.1006 -0.0332 -0.0151
24970W        W41231   1.806  11.226   3.866 -0.0715 -0.3585  0.2487
24971W        W41232  11.055   1.172  14.932 -0.0724 -0.1576 -0.2172
24972W        W41233  17.356  16.758  14.755  0.0707 -0.1732 -0.1103
24973W        W41234  16.270   8.494   1.929 -0.0362 -0.1874 -0.2016
24974W        W41235   0.087  11.410  14.585 -0.1013 -0.1017 -0.3536
24975W        W41236  13.433   0.243   0.372 -0.0494 -0.0323 -0.2182
24976W        W41237  11.903   9.066   4.187  0.0630 -0.0535 -0.0907
24977W        W41238   3.606   3.457   4.277 -0.1253  0.0344  0.1316
24978W        W41239  16.160   7.236  12.741 -0.1391  0.2412  0.1125
24979W        W41240   9.430   1.994   3.887 -0.3585  0.0988 -0.0181
24980W        W41241  17.126   7.223  14.388  0.1390  0.1966 -0.0663
24981W        W41242   3.659  14.878  12.807 -0.0977  0.2112  0.1297
24982W        W41243  11.339  12.782   4.983  0.3700 -0.2396  0.2620
24983W        W41244  13.904  12.196   3.182 -0.2976  0.0105 -0.1014
24984W        W41245   9.879  11.279  14.751  0.0458  0.4022  0.3989
24985W        W41246  17.403   7.904   1.394  0.2008  0.0065  0.0710
24986W        W41247  17.369  16.615  13.890 -0.0069  0.0020 -0.2596
24987W        W41248   6.651   6.609  13.191  0.1270 -0.3396  0.1790
24988W        W41249   3.948   9.677   1.796 -0.2960 -0.0792  0.3706
24989W        W41250  14.858   1.070   1.123  0.2517 -0.0405 -0.2122
24990W        W41251   2.058   7.419   1.651  0.0406  0.1851 -0.1500
24991W        W41252   4.391   9.796   5.159  0.2125  0.0189 -0.1873
24992W        W41253   2.593   5.876   5.198  0.1321  0.1531  0.3225
24993W        W41254   4.414  17.978   2.457 -0.0014 -0.2050 -0.2651
24994W        W41255   0.729  10.642  12.602 -0.0335  0.1836  0.1272
24995W        W41256  18.023  14.339  15.237 -0.1484  0.2042 -0.2298
24996W        W41257  13.933  10.404  15.849 -0.0359 -0.1465 -0.0468
24997W        W41258   0.840  11.976  14.603 -0.0923 -0.0443 -0.3758
24998W        W41259  11.368   9.202   4.208  0.3460  0.0217 -0.0347
24999W        W41260  16.225   3.652   2.895 -0.3842  0.2006  0.3264
25000W        W41261  15.033   5.993  14.224  0.2066 -0.0853 -0.0924
25001W        W41262   4.791  13.380  13.887  0.4101 -0.0137 -0.0828
25002W        W41263   6.885   5.665  11.254 -0.1649  0.2538  0.0264
25003W        W41264   4.493  13.200   2.540 -0.0948 -0.0171 -0.0083
25004W        W41265   7.966   7.176  13.313  0.0116  0.0301  0.0297
25005W        W41266   8.183  16.711  15.371 -0.0739  0.1144  0.2012
25006W        W41267   4.262   8.850  15.422 -0.0265 -0.2070  0.0198
25007W        W41268  12.211  12.442   0.544  0.1318 -0.0170 -0.0049
25008W        W41269   9.488  14.475   4.634 -0.3410  0.2426  0.1642
25009W        W41270   0.098  18.275  12.284 -0.0442 -0.0429  0.2376
25010W        W41271   5.367   2.860  13.443  0.0351  0.4798  0.2369
25011W        W41272   6.829   1.602   3.586 -0.1682 -0.0123  0.3306
25012W        W41273   2.846   1.906  13.477 -0.0993 -0.2876  0.2191
25013W        W41274  14.290   6.720   1.132  0.2138 -0.0391  0.1643
25014W        W41275  16.099   4.294  16.042 -0.0571  0.0659 -0.3367
25015W        W41276   0.178  14.753  11.911  0.1310  0.0625  0.0600
25016W        W41277  15.984   6.512   4.894 -0.3392  0.0380 -0.0683
25017W        W41278  14.491  11.250   5.079 -0.0999 -0.2559 -0.2786
25018W        W41279   5.200  10.375  15.476  0.1108  0.0045 -0.1597
25019W        W41280   1.626   4.512   2.018 -0.1182  0.2235  0.1392
25020W        W41281   2.343   0.526   2.981 -0.3721  0.1616  0.0648
25021W        W41282  16.114  14.023  12.973 -0.2949  0.0503 -0.1778
25022W        W41283  16.461   7.499  13.474 -0.1370 -0.1656  0.0997
25023W        W41284   4.010   8.149   0.662  0.2000  0.1448 -0.0763
25024W        W41285   2.499  10.313  11.669 -0.0395 -0.1206  0.2332
25025W        W41286  17.565  11.896  12.430  0.5850  0.0728  0.0268
25026W        W41287  17.344   8.156   4.974  0.0056  0.1348 -0.1368
25027W        W41288  12.234   0.039  13.008 -0.3884 -0.0476 -0.1139
25028W        W41289   4.265   1.348   0.720 -0.0552 -0.2511 -0.2278
25029W        W41290   3.110  12.460  12.537  0.3106 -0.3081  0.4040
25030W        W41291  17.795  11.084  12.630 -0.3017  0.0439  0.0884
25031W        W41292   7.940   5.822   1.204 -0.3042 -0.0816 -0.3288
25032W        W41293  15.466  17.987   2.160  0.1544 -0.0180  0.0942
25033W        W41294  15.888   2.985  11.881  0.1019  0.0383 -0.0883
25034W        W41295  15.203   1.345   0.306 -0.0774  0.0220  0.0167
25035W        W41296  18.240   2.172  13.109 -0.0356 -0.0188  0.0619
25036W        W41297   4.737   4.926  15.841  0.1536  0.1704 -0.1545
25037W        W41298   8.112  12.136  14.274 -0.0689  0.3537  0.2030
25038W        W41299   6.395   6.376  11.855  0.0595  0.1780  0.2760
25039W        W41300  13.826   3.788   1.992  0.2040 -0.1076  0.0493
25040W        W41301   1.147  14.828   1.596  0.2828  0.3890 -0.0469
25041W        W41302  16.569  11.969  13.918  0.0526  0.1355 -0.0348
25042W        W41303  10.920  10.681  10.548 -0.2017  0.0671  0.0537
25043W        W41304  11.483   3.826   1.995  0.0868  0.3016 -0.1048
25044W        W41305  11.072  12.839   2.590 -0.0251  0.0053  0.1313
25045W        W41306   1.669  13.588   1.630  0.0340  0.3210 -0.1334
25046W        W41307  17.932  15.330   0.244  0.1484  0.0651  0.2960
25047W        W41308   1.157   7.853  13.637 -0.1045  0.1951  0.2667
25048W        W41309   6.557  16.280   4.834 -0.0881  0.2059 -0.2093
25049W        W41310   6.408  13.102   2.402  0.0562  0.1368  0.1233
25050W        W41311   6.499  12.472  11.248 -0.0317 -0.1069 -0.0659
25051W        W41312   7.971   6.501  11.195  0.0162 -0.3429 -0.0010
25052W        W41313   0.158  14.312  15.456 -0.4057  0.1804 -0.0350
25053W        W41314   4.946  13.274   0.439  0.1130  0.2698  0.3561
25054W        W41315   7.790  15.088   4.899  0.1538 -0.0825  0.1971
25055W        W41316   6.901   4.027   9.993  0.0896  0.1826  0.1832
25056W        W41317  10.725  12.373  11.669  0.1963  0.3158  0.1023
25057W        W41318   4.194  10.281  12.711  0.4087 -0.1688  0.1280
25058W        W41319  14.404   5.520  14.667  0.2400 -0.2145  0.0134
25059W        W41320  12.934   4.385  11.847  0.0236  0.2185  0.0219
25060W        W41321  11.545   8.957  12.940 -0.2300  0.1808  0.0658
25061W        W41322   5.178  12.406  11.540  0.1360 -0.1940 -0.2450
25062W        W41323  10.396   2.681   3.207  0.0081  0.1638  0.0607
25063W        W41324   5.836   3.348   0.317  0.1529 -0.2590  0.1406
25064W        W41325   3.657  16.306  16.021 -0.2119  0.2695  0.1174
25065W        W41326  14.811   6.333   1.380 -0.1381  0.0040 -0.1654
25066W        W41327   8.066  10.354   0.804  0.2201  0.3267  0.2051
25067W        W41328  17.771   2.279   3.793 -0.2613  0.1803 -0.0399
25068W        W41329   5.344  16.409  15.601 -0.0093 -0.0826 -0.3381
25069W        W41330   7.267   0.268  15.845 -0.0043  0.1723  0.0504
25070W        W41331  17.765   2.721   2.084  0.1921 -0.2458 -0.0032
25071W        W41332  15.543  13.256   0.049  0.3200  0.3128  0.0388
25072W        W41333   8.232   7.765   1.114  0.1767 -0.0015 -0.0512
25073W        W41334  15.043   6.639   4.615  0.1571 -0.0647  0.3425
25074W        W41335  11.211  10.582   1.217 -0.2216 -0.2247  0.1280
25075W        W41336   8.168  13.677   3.259 -0.2155 -0.0960  0.1674
25076W        W41337  17.552   6.412   0.635 -0.0941  0.1347  0.1022
25077W        W41338   7.526   3.369  15.656 -0.2943 -0.0317 -0.2025
25078W        W41339  18.229  10.045   1.013 -0.2069 -0.1511  0.2576
25079W        W41340  17.099   6.541   2.754 -0.0412 -0.1311  0.0156
25080W        W41341   3.962   1.497  12.617 -0.1709 -0.1979 -0.1481
25081W        W41342  13.111   3.026   1.972 -0.1966  0.0738  0.0733
25082W        W41343   4.119  17.811   0.711 -0.0185 -0.1040  0.0130
25083W        W41344  11.740  17.992  15.137  0.0566  0.0397 -0.0357
25084W        W41345  17.970  14.891  13.076  0.0297  0.2070 -0.1893
25085W        W41346   2.328   7.611  14.574  0.2358  0.2010  0.0969
25086W        W41347  18.156   8.664  14.752 -0.3490  0.0656 -0.3810
25087W        W41348  10.334   0.086   4.496 -0.0918 -0.0132  0.1456
25088W        W41349  14.630   8.503  11.581  0.1664  0.0885  0.0146
25089W        W41350   2.200   5.436   3.619  0.1194  0.1738 -0.0730
25090W        W41351   4.448   1.243  13.467 -0.0283 -0.0745 -0.1091
25091W        W41352  10.824   3.203  14.422  0.0294  0.1247  0.0367
25092W        W41353  12.564   5.944  11.725 -0.2023  0.2327  0.1224
25093W        W41354   3.811   1.481  14.956 -0.2881  0.0627 -0.0158
25094W        W41355   0.789   9.556   3.531  0.4698  0.0021 -0.1452
25095W        W41356  17.974   9.393  14.258  0.1774  0.0903  0.3181
25096W        W41357   3.838  15.609   1.278 -0.2415 -0.1217  0.0143
25097W        W41358   8.177   5.612   0.599 -0.0042 -0.1327 -0.1958
25098W        W41359   1.215  15.732  13.267 -0.0123  0.1857  0.2668
25099W        W41360  17.650  13.441  14.338  0.1330  0.0764 -0.0532
25100W        W41361   3.356   5.866  12.750 -0.0343  0.2978  0.1815
25101W        W41362   6.880   3.049   4.434 -0.2557  0.1569 -0.1251
25102W        W41363  15.563   4.084  12.424  0.2614 -0.0039  0.1761
25103W        W41364  14.559  10.267   1.156 -0.0880 -0.0176  0.1091
25104W        W41365  12.101  17.024  11.586 -0.0700 -0.1088 -0.0483
25105W        W41366   6.159   1.915   4.460 -0.0044 -0.1386  0.2670
25106W        W41367   8.827  11.820   5.251  0.0045  0.2026 -0.0102
25107W        W41368  17.215  12.057   1.905 -0.0435  0.5041 -0.0977
25108W        W41369  14.995  12.182   2.721  0.0943 -0.2765  0.1330
25109W        W41370   6.487   6.933   0.258 -0.4086  0.0842  0.2412
25110W        W41371   3.518  17.556   2.619 -0.2150  0.2501 -0.0327
25111W        W41372   7.518   7.072  12.034 -0.2864  0.0513 -0.1275
25112W        W41373   5.779  12.234   3.524  0.0466 -0.2459  0.3572
25113W        W41374  11.062  17.417   2.177 -0.0740  0.3060  0.0631
25114W        W41375  17.255   7.252   1.668  0.0842 -0.1166  0.1728
25115W        W41376   0.072   0.649  16.297  0.0875  0.1099  0.3178
25116W        W41377   8.692  10.658  15.101  0.2132 -0.0161  0.3268
25117W        W41378  10.575   7.726   4.211 -0.2384 -0.1348 -0.0405
25118W        W41379  17.688  10.404   3.185 -0.0072  0.2040  0.1135
25119W        W41380  17.067   8.237  13.802 -0.1164 -0.0619 -0.2388
25120W        W41381   8.779  16.714  13.196  0.1200 -0.0186 -0.0930
25121W        W41382   8.401  14.870   4.389 -0.0134  0.1877  0.1310
25122W        W41383  14.419   2.752   4.370  0.3295 -0.2146 -0.0205
25123W        W41384  16.545  17.282   3.352  0.2137  0.0168 -0.0096
25124W        W41385  10.761   4.680  10.673  0.0432 -0.2103  0.1735
25125W        W41386   2.877   1.858   3.728  0.4002 -0.1795  0.1211
25126W        W41387   3.692   6.405   0.811  0.2446 -0.0741  0.0423
25127W        W41388   2.043   9.367  12.912  0.0592  0.0117 -0.1953
25128W        W41389   8.418  13.706  10.796 -0.0540 -0.1370 -0.0430
25129W        W41390   7.802  10.921  12.894  0.0237 -0.1403  0.0170
25130W        W41391   2.818   8.677   5.526 -0.1692  0.2951 -0.1440
25131W        W41392  16.792  16.695   1.881  0.2903 -0.0515  0.4739
25132W        W41393  17.804   7.502   1.381 -0.1647  0.1299 -0.0001
25133W        W41394   2.238   9.825  14.661 -0.3231  0.3665  0.1757
25134W        W41395   6.763  10.830   5.411  0.2834  0.0311 -0.2819
25135W        W41396   0.020   2.568   3.230  0.1173 -0.2108 -0.0677
25136W        W41397  14.719  14.603   2.314 -0.0903  0.0048 -0.1085
25137W        W41398   0.469  10.478   2.283 -0.1809  0.0406 -0.0324
25138W        W41399   9.559  16.103   0.892  0.0066 -0.2081 -0.0215
25139W        W41400   3.794   5.637  14.378  0.0840  0.1187 -0.1397
25140W        W41401   0.268   6.533  13.778  0.0474 -0.1680  0.2780
25141W        W41402   3.266   1.813  13.681  0.1780 -0.1019 -0.0647
25142W        W41403   3.164  17.994   4.673  0.2086  0.0608 -0.2122
25143W        W41404  14.203   5.006   3.559  0.5912  0.0721 -0.1545
25144W        W41405   4.389   0.936   2.475  0.1266  0.0931 -0.1271
25145W        W41406   5.699   1.166  11.830  0.2384 -0.3277 -0.0862
25146W        W41407  13.418   6.197  14.797  0.2015  0.1232 -0.1820
25147W        W41408   3.767   0.812   4.350  0.0778  0.2756 -0.3779
25148W        W41409   2.318   4.562   1.064 -0.1126  0.2912  0.0986
25149W        W41410   7.321   6.512  12.979 -0.0306  0.0344 -0.0927
25150W        W41411  13.560  14.567  12.994 -0.1520 -0.0837  0.0258
25151W        W41412  12.279   6.790  15.050  0.1516 -0.2011 -0.1215
25152W        W41413  10.065  10.897  15.166 -0.0585  0.3298 -0.0454
25153W        W41414   8.000  14.006  11.021  0.0006 -0.0443 -0.2667
25154W        W41415   2.115  12.032   5.024 -0.0632  0.2979  0.0127
25155W        W41416  12.388  15.940  15.679 -0.1025  0.0508  0.1100
25156W        W41417  11.703   5.274  13.007  0.0576  0.0079  0.0313
25157W        W41418   9.612   6.817   9.712  0.1135  0.1774  0.1070
25158W        W41419  10.397   6.003   1.954 -0.1842  0.0721  0.3362
25159W        W41420  14.037   0.340   4.603 -0.1585  0.1726  0.2805
25160W        W41421  14.259  11.847   2.117  0.0958  0.1781 -0.1417
25161W        W41422  13.108   3.801   4.207  0.1995  0.1300 -0.3191
25162W        W41423  14.774  12.634   4.336  0.1190 -0.0150  0.1198
25163W        W41424   2.018   9.674  11.219  0.3243  0.0687  0.3272
25164W        W41425  10.401   5.586   3.001 -0.3464 -0.4087  0.1455
25165W        W41426   1.325  18.070  14.206 -0.2577 -0.0343  0.1024
25166W        W41427   8.692   8.949   0.843  0.3477 -0.0031 -0.1428
25167W        W41428  17.569  10.536  12.713  0.0324 -0.0471  0.0496
25168W        W41429  15.359  14.503  15.909  0.0576 -0.1220  0.2063
25169W        W41430  11.839   4.071  16.017  0.3141 -0.3068  0.0639
25170W        W41431   3.065   1.815  12.628 -0.1603  0.1794 -0.2320
25171W        W41432  12.893  13.155   5.300 -0.0986 -0.0102  0.0684
25172W        W41433   8.385   5.571  10.947  0.2316 -0.2600 -0.2200
25173W        W41434   0.663  10.165   0.349  0.0420 -0.1436  0.0182
25174W        W41435   3.745  11.522  13.815 -0.3874  0.2506 -0.0727
25175W        W41436   7.401  12.974  15.837 -0.0574  0.0606 -0.1169
25176W        W41437  17.525   9.370   2.048 -0.0137 -0.0347  0.0408
25177W        W41438   5.958   9.388   1.634  0.2751 -0.1975 -0.3230
25178W        W41439  13.765  13.871   4.806  0.0016  0.1425 -0.0740
25179W        W41440  16.574   2.593   2.289 -0.1118  0.1122 -0.3200
25180W        W41441  16.479   9.951   5.881  0.1325  0.0622 -0.0658
25181W        W41442  10.183   2.513   4.602  0.4045 -0.0083 -0.1842
25182W        W41443   6.087  18.022  12.608 -0.0018 -0.0394 -0.1277
25183W        W41444  17.749   5.740  14.326  0.3119  0.0636  0.0603
25184W        W41445   0.899   9.739  11.573 -0.1060  0.0356  0.3489
25185W        W41446  14.308   3.778  13.913  0.0464 -0.0278 -0.0253
25186W        W41447  11.681   5.084   3.698 -0.0691 -0.1496 -0.4482
25187W        W41448  12.104  17.863   4.581  0.1917 -0.0730  0.0016
25188W        W41449   7.995   6.532  12.084 -0.0877  0.3100 -0.1436
25189W        W41450   3.407  16.888   3.093 -0.2431  0.1965  0.0560
25190W        W41451   0.296  14.390   3.707  0.3523 -0.0838 -0.0199
25191W        W41452   8.618  13.649   4.609 -0.3434  0.1285 -0.4887
25192W        W41453   3.293   6.627  13.986 -0.0414  0.2149  0.0192
25193W        W41454   3.758   7.674  14.477 -0.0704 -0.4150  0.0931
25194W        W41455   0.675   2.084  14.103 -0.0920  0.1670 -0.0569
25195W        W41456   9.846   9.036  15.081 -0.0883  0.0307 -0.2616
25196W        W41457  12.626   5.592  12.099 -0.1123  0.0840  0.2797
25197W        W41458  11.039  12.131   1.979  0.1332 -0.0134  0.2703
25198W        W41459   3.613  15.259  13.855  0.0846 -0.1616 -0.1225
25199W        W41460   0.398  12.232   0.279 -0.1539 -0.2097 -0.0996
25200W        W41461  12.343   3.648   4.991 -0.2708 -0.0461  0.0930
25201W        W41462   4.364   8.149  11.835  0.0984 -0.0634 -0.0282
25202W        W41463   8.083   7.822   3.293 -0.0247 -0.1044 -0.3360
25203W        W41464   2.115  13.814   1.495  0.1451  0.0308  0.2411
25204W        W41465   6.281   3.308  12.674 -0.2539  0.2483 -0.0265
25205W        W41466  15.099  15.668  15.269  0.0938  0.1259  0.1152
25206W        W41467  14.479  11.504   0.280 -0.2724  0.3556  0.0401
25207W        W41468  14.280  13.896  12.806 -0.0742  0.1750 -0.1616
25208W        W41469  13.862   8.401  11.371 -0.2101 -0.1736 -0.3517
25209W        W41470  16.906  13.075   3.347  0.1508 -0.0549  0.0179
25210W        W41471   4.907   5.805  12.007  0.3007 -0.0185  0.1244
25211W        W41472  18.270   9.267  14.790 -0.1707  0.0014  0.0424
25212W        W41473   4.528  11.535   0.033  0.0887  0.1910 -0.0582
25213W        W41474   5.968  16.449  15.035  0.2392  0.1661 -0.1404
25214W        W41475  11.693   2.330  14.044 -0.1272  0.0408 -0.0921
25215W        W41476  13.677  14.151  13.519  0.1432 -0.4739  0.0694
25216W        W41477   4.404  15.215  13.098  0.3809 -0.0780 -0.1750
25217W        W41478  11.326  14.591  12.128  0.2593 -0.3185  0.2786
25218W        W41479   2.505   6.407   0.964 -0.0834 -0.1719  0.0379
25219W        W41480  10.751  18.143  11.917  0.2810 -0.0685  0.1426
25220W        W41481  15.591   0.121  12.836  0.0796 -0.3443  0.2035
25221W        W41482   0.705   4.766   4.704  0.1625 -0.0188  0.0947
25222W        W41483  15.679  10.319   5.548  0.1753 -0.1325  0.0768
25223W        W41484   6.893  10.449  16.094 -0.0092  0.0088  0.1304
25224W        W41485   0.252   9.253   1.265 -0.3158  0.1028  0.2646
25225W        W41486   4.857   5.043   5.522 -0.1113 -0.2967  0.0255
25226W        W41487   4.261  10.866  11.896 -0.4085 -0.0874 -0.3214
25227W        W41488   7.777   5.549   4.983 -0.0512 -0.0752 -0.3437
25228W        W41489   7.198   9.377   0.807 -0.1239 -0.1078 -0.0284
25229W        W41490   1.405   0.996   3.586 -0.0787 -0.0634 -0.2774
25230W        W41491   8.683   2.580  16.248  0.0607  0.1539  0.0831
25231W        W41492   5.216  15.334  14.999  0.0962 -0.3840 -0.2171
25232W        W41493  14.846   4.946   1.572 -0.3979  0.2991 -0.3536
25233W        W41494   2.264   5.535   4.946 -0.2625 -0.0460 -0.0027
25234W        W41495  13.517  11.658  14.754  0.0188  0.1960  0.2702
25235W        W41496   8.971  16.615   2.453 -0.2503 -0.0150 -0.0536
25236W        W41497   2.251   9.023   5.712 -0.0828  0.2538  0.1136
25237W        W41498   4.387  10.676  12.989 -0.0624 -0.1492  0.1751
25238W        W41499  15.889  12.454  12.356 -0.0168 -0.0414  0.1863
25239W        W41500   3.221   6.664  11.092  0.0627  0.3655 -0.0237
25240W        W41501  18.340  10.821   0.569 -0.0590 -0.0577 -0.3531
25241W        W41502  15.451   1.146  11.836  0.0213  0.0680 -0.1031
25242W        W41503  16.843  12.878  14.028  0.0039 -0.2975 -0.0295
25243W        W41504  15.078   1.344   1.489 -0.1281  0.2372  0.0866
25244W        W41505   1.034   4.622  12.305  0.2699  0.0369 -0.1589
25245W        W41506  10.084  16.991  12.518  0.1224 -0.0860  0.1690
25246W        W41507  16.593   4.774  15.152 -0.0603 -0.2584 -0.1672
25247W        W41508   7.321  14.725   1.687  0.2427  0.0372 -0.1202
25248W        W41509  13.832   5.028   1.606 -0.1174 -0.1027  0.1264
25249W        W41510   2.604  17.305  14.307  0.0140  0.0616 -0.2000
25250W        W41511   5.676   6.648  12.865 -0.2609 -0.0404  0.0529
25251W        W41512   0.117   3.932  14.780 -0.2239  0.0903  0.0397
25252W        W41513   6.667   0.426   5.093 -0.0907  0.2181  0.3996
25253W        W41514   6.539   9.350   5.805 -0.1667  0.0123 -0.2021
25254W        W41515  17.051  12.578   4.021  0.0281 -0.1127  0.3885
25255W        W41516  12.491  17.551  15.523  0.0593  0.2977  0.0519
25256W        W41517  17.228  16.442  13.441  0.1790  0.1961 -0.0547
25257W        W41518  11.067  13.735   1.074 -0.2925 -0.2952 -0.0145
25258W        W41519   1.768  13.837   1.143 -0.0725 -0.0348  0.2701
25259W        W41520   1.098  17.338  13.624  0.1138  0.1804  0.3517
25260W        W41521  14.366   8.377  13.997  0.0312  0.1576 -0.1565
25261W        W41522   7.169  13.666   4.291 -0.1300  0.0146 -0.0626
25262W        W41523   3.283   5.090  15.282 -0.3008 -0.0787 -0.2452
25263W        W41524   5.544   9.373  13.117  0.0548  0.0626  0.0464
25264W        W41525  17.215   3.625   4.903 -0.0448  0.1579 -0.0117
25265W        W41526  15.414   5.682  14.423 -0.1700  0.0189 -0.1316
25266W        W41527   3.516  15.921   6.100  0.0157 -0.2354 -0.1669
25267W        W41528   6.098  16.101  11.456 -0.0798 -0.0866  0.0257
25268W        W41529  14.398   1.945   5.450  0.0374  0.1819  0.0582
25269W        W41530   3.938  10.595   1.558  0.2199  0.0316  0.2283
25270W        W41531  10.080  17.414   2.010 -0.0513 -0.1386  0.0433
25271W        W41532   8.462   4.143   1.592  0.0129 -0.3149  0.0036
25272W        W41533   5.497   4.529  15.243 -0.2274  0.2672 -0.2711
25273W        W41534  18.258   3.511  11.850  0.1643 -0.1089 -0.2155
25274W        W41535   2.572  13.971   3.373 -0.1155 -0.0072 -0.0658
25275W        W41536   4.198   2.923  16.054 -0.1038  0.0188  0.1098
25276W        W41537   9.854  14.876   4.893 -0.0826 -0.0448 -0.0145
25277W        W41538  16.356   0.304  16.128 -0.5076  0.4114 -0.2863
25278W        W41539  17.487  10.520  15.025  0.2115  0.0394  0.0567
25279W        W41540  16.575  17.996   6.104  0.1404 -0.2632  0.1703
25280W        W41541  11.398   5.584  12.107  0.0847  0.0038  0.0212
25281W        W41542  11.802  12.943  12.280  0.1118 -0.0156 -0.0025
25282W        W41543   6.635  17.368  15.423 -0.1983  0.0571 -0.2020
25283W        W41544   6.010  13.750  14.034  0.3126 -0.2308 -0.0139
25284W        W41545  11.476   0.209   4.634 -0.1433  0.0337 -0.3728
25285W        W41546   2.803   7.910   5.263 -0.3108 -0.3262  0.5720
25286W        W41547   3.282  12.295  11.628  0.0110  0.1958 -0.1441
25287W        W41548  17.686  17.099  14.952  0.2536  0.0306 -0.0038
25288W        W41549   6.831   8.912  15.626 -0.0419  0.1291 -0.2974
25289W        W41550   9.172  17.893   4.147 -0.0480 -0.3143  0.2564
25290W        W41551   8.534   2.863   5.318  0.2443 -0.2384 -0.2910
25291W        W41552  15.578  10.758   4.256  0.0872 -0.0059 -0.0590
25292W        W41553  13.939  17.182  12.916  0.1355  0.1110  0.2128
25293W        W41554   1.052   8.731  11.487 -0.0759 -0.1629 -0.0482
25294W        W41555   6.593   3.313  12.234 -0.0806  0.0721 -0.1594
25295W        W41556  17.945   7.860   2.734 -0.0660 -0.0448 -0.0766
25296W        W41557   3.047   8.430  13.000 -0.0940 -0.2347  0.2214
25297W        W41558  11.712   7.260   2.949  0.1780 -0.0625  0.0401
25298W        W41559   1.530   4.230   0.558  0.0812 -0.0157 -0.0155
25299W        W41560  15.609   7.170   6.152  0.0428  0.1369 -0.1328
25300W        W41561   1.513  15.721   1.371 -0.1874 -0.1595  0.0018
25301W        W41562  14.485   9.043  11.837  0.0931 -0.0108  0.0351
25302W        W41563   0.349   1.968  14.994  0.1420 -0.1046 -0.3555
25303W        W41564  11.592   9.580   1.249  0.0148 -0.1098  0.0788
25304W        W41565   1.387   3.626  11.807 -0.0216  0.2375 -0.0656
25305W        W41566   6.956   4.424  11.458 -0.0662 -0.0319  0.0362
25306W        W41567   3.712   4.919   5.397 -0.2154  0.3457 -0.0231
25307W        W41568   7.325   5.837  10.573 -0.1307 -0.2168  0.2998
25308W        W41569   5.637   8.714  13.789  0.0050  0.3247  0.1686
25309W        W41570  15.227  15.573   1.033 -0.1404 -0.0804 -0.4611
25310W        W41571  17.404   2.908   1.789  0.0798 -0.0514 -0.1955
25311W        W41572   2.821   5.894   4.207 -0.0419 -0.1300  0.2080
25312W        W41573   5.498   7.436   5.595  0.0151 -0.0002  0.0272
25313W        W41574   0.750  10.325  11.617 -0.3862 -0.1674  0.1552
25314W        W41575   9.711   3.634  12.430  0.0944  0.2821 -0.2868
25315W        W41576  13.823   9.083  12.774 -0.1643  0.1864 -0.2544
25316W        W41577   5.415  11.186   1.397  0.1000  0.0168 -0.2224
25317W        W41578   8.922  13.864   0.081  0.0446  0.2965  0.0066
25318W        W41579   9.356   2.465  10.216 -0.2857 -0.1574  0.0296
25319W        W41580  13.505   2.456  15.907  0.1496 -0.0492  0.0769
25320W        W41581  17.564   1.547  12.725  0.1040  0.1994  0.2158
25321W        W41582  17.527  11.976   3.943 -0.3595 -0.2764  0.1719
25322W        W41583   3.729   2.717  14.237 -0.1576  0.1121  0.1129
25323W        W41584   7.921   9.363   0.982  0.0220  0.0428  0.0957
25324W        W41585  10.168   2.333  14.996 -0.2008 -0.0457 -0.2255
25325W        W41586   5.782   6.377   3.387  0.0526  0.1181  0.3186
25326W        W41587   0.368   8.632   3.385 -0.1274 -0.0162  0.1071
25327W        W41588   6.291   2.206  11.809  0.1425  0.2297 -0.1356
25328W        W41589  17.495   5.378   3.051 -0.1447  0.3579  0.2250
25329W        W41590   3.943   3.083  14.640 -0.0441  0.0689 -0.2023
25330W        W41591  10.683   7.323   1.535 -0.1997 -0.0331 -0.0072
25331W        W41592   5.986   3.434  14.032  0.1410  0.4570 -0.1433
25332W        W41593   3.345   9.809  11.678 -0.2086  0.2230  0.2563
25333W        W41594   1.772  12.219  12.633  0.0713 -0.4291  0.0321
25334W        W41595   6.319   8.966  12.909  0.0257 -0.0804 -0.0783
25335W        W41596   5.814   7.164  15.961 -0.2471 -0.2050 -0.1404
25336W        W41597   8.910   3.798   3.681  0.4204  0.1072 -0.0088
25337W        W41598   9.898   9.966  15.028  0.0111  0.0318 -0.1498
25338W        W41599   5.744   4.364  13.543  0.0221  0.2451 -0.0278
25339W        W41600  16.400   7.640  12.408  0.0570  0.2631  0.0418
25340W        W41601  18.265   2.994   0.615 -0.1841  0.2611  0.2411
25341W        W41602   4.951  11.255  16.060  0.0126  0.0161  0.1764
25342W        W41603   3.449   6.911   6.256  0.2844  0.1000 -0.1878
25343W        W41604   2.210   8.748   3.717 -0.0588 -0.0545 -0.0813
25344W        W41605   3.559   6.625   3.902  0.0175 -0.0822 -0.2928
25345W        W41606   0.301  16.584   5.172 -0.0257 -0.0261 -0.0322
25346W        W41607  18.351   2.256  11.946  0.1799  0.2118  0.0446
25347W        W41608  14.133   2.363  12.141  0.0141  0.1899 -0.2180
25348W        W41609   2.814   6.722  11.868 -0.1875 -0.2292 -0.1393
25349W        W41610   1.847   0.387   2.246 -0.0502 -0.2037  0.0694
25350W        W41611  13.606  14.105   3.957 -0.0414 -0.1173  0.0376
25351W        W41612   3.577   2.112   1.652 -0.1559 -0.1987 -0.1452
25352W        W41613   0.875   0.169   5.514 -0.1698 -0.0881 -0.0384
25353W        W41614   5.451  16.189   5.468 -0.0033  0.3689  0.3593
25354W        W41615   2.690   1.292   3.807  0.2252  0.3146 -0.0294
25355W        W41616  15.066  10.087   2.960  0.1898  0.0880  0.0067
25356W        W41617   3.763  18.039   5.320 -0.2145 -0.2775  0.3781
25357W        W41618   1.231  13.279  13.984  0.2334  0.2688  0.4316
25358W        W41619   4.377   7.928  13.854  0.3392 -0.0255 -0.0728
25359W        W41620  16.736   9.196  11.720  0.1801  0.2522 -0.0146
25360W        W41621  13.354  12.442   4.238 -0.0424 -0.2710  0.2110
25361W        W41622  11.711   1.806   2.933 -0.1073 -0.1544 -0.0145
25362W        W41623  13.408   8.244  13.216 -0.0155 -0.1619  0.2854
25363W        W41624  10.296   9.235  10.624 -0.1468 -0.2259  0.2945
25364W        W41625  16.366   9.987   1.897 -0.0614 -0.0321 -0.1606
25365W        W41626  11.216   6.215   5.064  0.2075 -0.0250  0.1956
25366W        W41627  12.429  11.593   2.336 -0.1113 -0.2689  0.0667
25367W        W41628   3.600   7.078  12.253  0.1830 -0.2174 -0.2445
25368W        W41629  15.987  13.589  11.534 -0.0540 -0.0227  0.0962
25369W        W41630  14.631  16.801   0.995  0.0600 -0.2367 -0.0639
25370W        W41631  13.900   8.520  12.286  0.1448 -0.2151  0.1357
25371W        W41632  11.095  18.345  14.414  0.1774 -0.0215  0.1409
25372W        W41633   8.193   2.548   1.818  0.3300 -0.1512 -0.1536
25373W        W41634  10.566  16.250   4.058 -0.0238 -0.2724 -0.1536
25374W        W41635   0.372  17.228   0.925  0.1778  0.1247  0.0725
25375W        W41636   9.819   3.045  15.352 -0.0410  0.2182  0.1991
25376W        W41637   1.711   4.318   1.491  0.2418 -0.1608 -0.0940
25377W        W41638   7.332  13.378  11.130 -0.3950 -0.0987  0.2060
25378W        W41639   2.613  13.128  13.553 -0.0727 -0.3593  0.0940
25379W        W41640   2.962   9.690   2.630  0.1959  0.2285 -0.1864
25380W        W41641  14.480  16.117   1.359  0.1807 -0.2823 -0.3790
25381W        W41642  17.696  13.670   1.496 -0.4243 -0.2071  0.2366
25382W        W41643  18.323  15.216   0.513  0.1530 -0.1132 -0.0852
25383W        W41644   9.644  17.320  14.509 -0.0591 -0.1251  0.1045
25384W        W41645  12.201  16.110  14.811  0.0178  0.1415  0.2302
25385W        W41646   8.005   1.869   2.339 -0.1574  0.0702  0.2656
25386W        W41647   5.222   2.533  15.648  0.3387 -0.0899 -0.0185
25387W        W41648  10.171   3.790   0.132 -0.2312 -0.1199 -0.0045
25388W        W41649   4.174   3.446   3.647  0.1073 -0.1104 -0.0416
25389W        W41650   2.679   6.222   4.810 -0.2565 -0.1654  0.0755
25390W        W41651  14.310   0.900   4.196 -0.1463 -0.0560  0.1797
25391W        W41652   5.062  18.222   0.134  0.0066 -0.0056  0.1462
25392W        W41653  15.849  11.840  12.101 -0.1390 -0.0559  0.0734
25393W        W41654  15.757   5.480   2.940  0.0096 -0.0056 -0.0315
25394W        W41655   2.174  13.177  13.211  0.3154 -0.1160  0.0782
25395W        W41656   6.237   8.135  14.249 -0.0588 -0.0392  0.2662
25396W        W41657  16.521  12.757   1.612  0.3110  0.1949 -0.1546
25397W        W41658  17.827  13.478  11.181 -0.0494 -0.1003 -0.0530
25398W        W41659  15.168   3.194  16.080  0.4934  0.0050  0.0773
25399W        W41660  13.432   9.346  12.932 -0.1072  0.0897  0.2240
25400W        W41661  13.957  10.436   0.365  0.0564  0.2545  0.5475
25401W        W41662   9.677  16.356  12.159 -0.2496 -0.0257  0.0382
25402W        W41663   1.047  12.710   4.394  0.1853  0.2958 -0.0215
25403W        W41664  12.149   9.365   2.113  0.2434 -0.1251 -0.4161
25404W        W41665   8.392  17.333  12.990 -0.1702  0.1414  0.1114
25405W        W41666  15.423  10.902  15.663  0.1356 -0.1923  0.0839
25406W        W41667  11.239  16.837   4.497 -0.4277 -0.0903  0.1751
25407W        W41668  10.554   7.495  10.339 -0.0582  0.1757 -0.3335
25408W        W41669   5.738  16.548  13.456 -0.1162  0.1030 -0.3366
25409W        W41670   7.225   6.084  13.798  0.2821 -0.0899 -0.2166
25410W        W41671   5.804   9.539   4.487 -0.1143  0.1512  0.1552
25411W        W41672   9.319  12.193  15.695 -0.4744 -0.3951  0.1116
25412W        W41673  15.030  16.641   4.162  0.3641  0.0669 -0.0301
25413W        W41674  16.245   9.393  11.466 -0.0087 -0.2054  0.0662
25414W        W41675   3.442  14.918  13.442  0.2006 -0.0789  0.0950
25415W        W41676   8.949  17.629   1.887  0.2904  0.1910 -0.0938
25416W        W41677  10.152   5.799  10.799 -0.0962  0.0735 -0.0900
25417W        W41678   2.283  16.578  15.775 -0.2840 -0.0893  0.0592
25418W        W41679  12.427  12.361   4.637  0.1292  0.1320 -0.2503
25419W        W41680   7.177   2.799  14.185  0.1738 -0.0284  0.1646
25420W        W41681   1.709  12.041   4.341  0.0197  0.0016  0.0571
25421W        W41682   8.643   8.334   5.736  0.2995 -0.1808  0.1475
25422W        W41683  17.812   8.533  14.113 -0.0109 -0.2408 -0.0519
25423W        W41684  13.018   0.235  15.209  0.3038 -0.1110  0.0420
25424W        W41685  12.852  16.832  14.756 -0.1407 -0.4440  0.2383
25425W        W41686   7.713   1.041  15.451 -0.3605  0.0821 -0.1130
25426W        W41687   3.257  12.462   4.258  0.1410 -0.1479 -0.3788
25427W        W41688  13.929   3.168   2.773  0.0217  0.1377 -0.0838
25428W        W41689   6.457  13.153   1.421 -0.2687 -0.2144 -0.0384
25429W        W41690  10.914  15.647  12.063 -0.4063  0.1179 -0.3834
25430W        W41691  18.353   1.781   4.588 -0.1001  0.0491 -0.1797
25431W        W41692  11.429  12.267   3.870  0.1372  0.1225 -0.3331
25432W        W41693   1.725  17.498   4.006 -0.2036  0.0680 -0.1091
25433W        W41694  14.667   3.532   3.761 -0.0511  0.2985  0.0858
25434W        W41695   9.866   3.480   3.166 -0.2669 -0.2259  0.0137
25435W        W41696  17.555  10.604   2.699 -0.0004  0.0953 -0.1341
25436W        W41697   7.398  15.124  15.846 -0.1315  0.0952 -0.0484
25437W        W41698   1.102  17.500   4.042 -0.3310 -0.2338 -0.4101
25438W        W41699  11.656  16.939  16.261 -0.0874  0.2506  0.1835
25439W        W41700  17.120  16.144  11.611 -0.3843 -0.1555  0.1008
25440W        W41701   4.744   9.183   0.761 -0.0903 -0.0857  0.1462
25441W        W41702   6.917  16.988  14.632 -0.1170 -0.2655 -0.0141
25442W        W41703   0.054  16.446  13.481  0.0729  0.3216 -0.3228
25443W        W41704   6.353   5.458  13.662 -0.0911 -0.1391  0.0399
25444W        W41705   2.125  13.542  12.889 -0.0878 -0.3806 -0.0602
25445W        W41706   1.524  13.744  16.302 -0.2324 -0.0193  0.3151
25446W        W41707   5.748   0.483  12.953  0.1817  0.1831  0.3330
25447W        W41708   7.702  12.806  14.895  0.3963  0.0309  0.3292
25448W        W41709   4.095   3.356  13.425  0.0017  0.1258 -0.1592
25449W        W41710  16.984  13.759   0.411  0.0792 -0.1067  0.5039
25450W        W41711  10.362   0.156  15.681 -0.1810  0.1845 -0.0144
25451W        W41712  16.363   4.108  13.323  0.2142  0.3025 -0.0844
25452W        W41713   3.925  15.611  15.452  0.2551 -0.0793 -0.1339
25453W        W41714   8.903   8.582   0.558 -0.1232  0.0870  0.0303
25454W        W41715  17.479   0.009   4.535 -0.1185  0.4023  0.2001
25455W        W41716  18.240  15.342   4.381  0.0866  0.0259  0.0808
25456W        W41717   9.409   6.718  11.664 -0.0392 -0.1463 -0.3309
25457W        W41718   0.327   0.689   2.254 -0.1072  0.3881 -0.2372
25458W        W41719  16.914   8.085  14.585 -0.1930 -0.0545 -0.1393
25459W        W41720  10.856  18.027   2.687 -0.0503 -0.1060 -0.1765
25460W        W41721   7.923   1.012   0.513 -0.0875 -0.1101  0.0038
25461W        W41722   8.703  12.932  15.027  0.1345 -0.2629  0.3107
25462W        W41723  11.624   0.686  15.494  0.0363 -0.1197  0.3115
25463W        W41724  14.838  15.692  13.764 -0.1329  0.0080  0.2180
25464W        W41725   1.262  17.203   1.003  0.0316 -0.1607 -0.0913
25465W        W41726   0.193  12.130   1.793  0.2621  0.3288 -0.0533
25466W        W41727   7.327  16.244   5.162  0.1295 -0.0660  0.1459
25467W        W41728   5.703  18.099   5.744 -0.0639  0.3033 -0.1947
25468W        W41729   3.977   4.167   1.381 -0.0480 -0.1259  0.4264
25469W        W41730   8.207   5.543  11.972 -0.0943  0.0778  0.1841
25470W        W41731   4.767   7.123  12.406  0.1537  0.2239  0.3613
25471W        W41732  17.722   1.656   2.255  0.0076 -0.0684 -0.1986
25472W        W41733  13.144   8.453  14.503 -0.2783  0.2633 -0.2061
25473W        W41734   5.900   5.444  15.076 -0.0765 -0.2154 -0.0047
25474W        W41735   5.352   2.679   0.717  0.0143  0.3082 -0.1682
25475W        W41736   1.528   2.685   1.632 -0.1855 -0.2195  0.1531
25476W        W41737   5.931   5.351  15.613 -0.2538 -0.0065  0.1187
25477W        W41738  11.332   8.548  14.940  0.0140  0.1683  0.0668
25478W        W41739   9.898   6.286   0.786  0.2220 -0.3566  0.0263
25479W        W41740  14.816  13.974   3.520  0.1555  0.1578  0.2248
25480W        W41741   2.470   9.458   5.279  0.3605  0.3453 -0.0642
25481W        W41742  15.935  17.032   2.894  0.3173 -0.0384  0.1778
25482W        W41743  15.329   9.206  11.394  0.0423  0.2188 -0.2308
25483W        W41744  16.139  11.199   2.492 -0.0507  0.5123  0.3398
25484W        W41745  10.364   6.797  11.149  0.3480 -0.1704  0.0461
25485W        W41746  11.936   5.676   2.386  0.0498 -0.2104  0.0088
25486W        W41747   2.203  12.060  14.354 -0.0230 -0.2909 -0.0281
25487W        W41748   8.944  16.407   0.702 -0.1969  0.1254 -0.0404
25488W        W41749  13.346  15.163  13.565 -0.0712  0.2064 -0.1288
25489W        W41750   6.780   9.456   5.334 -0.4411  0.1080  0.0821
25490W        W41751  14.015  10.249  15.175  0.0200 -0.0040 -0.0571
25491W        W41752   6.844  11.920  15.652  0.0293 -0.1247  0.1113
25492W        W41753   1.470  12.076   2.571 -0.2181 -0.1841 -0.0061
25493W        W41754   3.253  18.316  15.458 -0.0490 -0.0040 -0.5136
25494W        W41755   5.831  15.473  15.541  0.1858 -0.0564  0.0245
25495W        W41756  15.822  10.963  13.533 -0.0429 -0.1240  0.4321
25496W        W41757   2.485  14.698   1.044 -0.3160  0.0000  0.1742
25497W        W41758  10.680   1.878  13.453 -0.2662 -0.1682  0.0271
25498W        W41759  10.421  17.495   4.593  0.0844  0.2515  0.0260
25499W        W41760   4.966   2.348   3.225 -0.0264  0.0531 -0.2264
25500W        W41761  16.483   3.760   4.689  0.1061 -0.3986  0.0173
25501W        W41762  13.340   0.475   5.144 -0.0152 -0.2259  0.0461
25502W        W41763   3.582   9.372   1.547 -0.0999 -0.0974  0.1549
25503W        W41764   8.711   8.160   4.376  0.0762  0.2075  0.2284
25504W        W41765   5.760   2.133   2.610 -0.0279  0.1401 -0.1287
25505W        W41766   9.072   9.857   4.307  0.1705 -0.3494  0.1668
25506W        W41767   0.099  14.250   4.659  0.0695 -0.1695  0.0249
25507W        W41768  12.190  16.037   5.934  0.0143  0.0300  0.0006
25508W        W41769  10.446  13.458  15.132 -0.1305  0.1070  0.0244
25509W        W41770  10.089  16.089   0.394  0.2240 -0.1794 -0.0590
25510W        W41771   9.851   1.638  16.076  0.2108  0.0172  0.0574
25511W        W41772   2.873   6.086  12.837  0.0878  0.0154  0.3802
25512W        W41773  14.603   6.794   2.281 -0.0113 -0.1226 -0.1448
25513W        W41774  11.598   9.770   2.265 -0.1069  0.0705  0.1030
25514W        W41775  12.464   9.636   1.833 -0.2268 -0.2080 -0.0040
25515W        W41776   8.329   8.092  15.490 -0.1126 -0.0730  0.1838
25516W        W41777  17.425  10.778  15.446 -0.0211 -0.1142 -0.0930
25517W        W41778   1.277  17.742   0.287  0.1318 -0.1032  0.0302
25518W        W41779   7.950   1.234   2.942  0.0745 -0.0560 -0.3767
25519W        W41780   7.271   3.912  15.684  0.0661  0.0948 -0.0417
25520W        W41781  11.447  14.795   4.025  0.1434  0.0384 -0.1986
25521W        W41782   0.651   6.121   4.002  0.1051  0.3254 -0.2473
25522W        W41783  18.094  12.526   2.044  0.2231  0.1506 -0.1776
25523W        W41784   5.272  13.533   2.244 -0.2609 -0.0364  0.0148
25524W        W41785   2.445  11.047   1.255 -0.1264 -0.2427  0.0410
25525W        W41786  12.301   5.035   1.171  0.1050  0.1426  0.0976
25526W        W41787   3.693   7.017   4.351 -0.3456  0.1781  0.1625
25527W        W41788  11.454   1.908   5.289  0.1879 -0.0413  0.3437
25528W        W41789  14.526   5.401   0.924  0.1739 -0.0812 -0.1114
25529W        W41790  13.089  15.472   3.797  0.0960 -0.2116 -0.1768
25530W        W41791   2.958  16.565  13.287  0.0009 -0.1646 -0.1339
25531W        W41792   2.089  10.619  11.875  0.1935 -0.2410 -0.0151
25532W        W41793   6.738  13.057  11.979 -0.4119  0.0474  0.3265
25533W        W41794  11.330   3.063  15.229 -0.1153 -0.0735  0.2324
25534W        W41795  16.138  10.761   0.070 -0.2065  0.0849  0.0968
25535W        W41796   8.021  11.868  13.813  0.4176 -0.2238  0.1527
25536W        W41797   8.018  17.919   1.298  0.0463 -0.1281  0.0589
25537W        W41798  16.552   9.145   0.824  0.1768 -0.4692  0.0516
25538W        W41799   7.484   6.667  11.784  0.0473  0.1945 -0.0862
25539W        W41800   9.134   1.921   1.690  0.0104  0.2238  0.2207
25540W        W41801  15.498   9.834   5.447  0.2153  0.1221 -0.1210
25541W        W41802  12.670   7.912  15.423 -0.0129 -0.1484 -0.1281
25542W        W41803   6.133  10.408  12.596  0.1080 -0.0206 -0.0499
25543W        W41804  14.522   5.067  13.147  0.0363 -0.1454 -0.0843
25544W        W41805  16.062   7.243   3.212  0.1117  0.2276  0.3125
25545W        W41806   3.229  14.059   0.020  0.1976  0.2288 -0.0028
25546W        W41807   1.207  11.301   0.988 -0.3133 -0.1566 -0.0230
25547W        W41808  13.044  13.293   1.665  0.1185  0.0700  0.1417
25548W        W41809   5.304  11.243  15.273  0.0000  0.0876 -0.1645
25549W        W41810  18.209  10.980  11.356 -0.1227  0.0313  0.0025
25550W        W41811   1.250  12.176   5.247 -0.0685  0.1580 -0.0058
25551W        W41812   5.646  11.712  10.893  0.1022 -0.1541  0.2389
25552W        W41813  18.070   7.650  15.060  0.0386 -0.0751  0.1849
25553W        W41814  11.006  15.534   5.266  0.0808  0.0222 -0.2651
25554W        W41815   2.222  16.354   0.792  0.2875 -0.2134 -0.0487
25555W        W41816   4.646   6.243   0.917 -0.2214 -0.0276 -0.2452
25556W        W41817   7.507   9.287  13.991  0.0547  0.0998 -0.2070
25557W        W41818   4.146  14.201   2.030 -0.1971  0.2651 -0.2603
25558W        W41819  13.775  10.746  11.564  0.2325 -0.0690 -0.0776
25559W        W41820   5.440  17.916   4.391 -0.2170  0.0339 -0.0183
25560W        W41821   2.881   7.533   0.598  0.4161 -0.1866 -0.2380
25561W        W41822   5.569  15.418   4.119  0.1819 -0.0564  0.1535
25562W        W41823  18.164  16.422   3.728  0.1418  0.1263 -0.2743
25563W        W41824  13.338  14.832   5.586 -0.0885  0.1105  0.2129
25564W        W41825   0.659   2.805   0.392  0.1647  0.3173  0.0386
25565W        W41826   0.977   6.880  15.271 -0.0489  0.0959 -0.0447
25566W        W41827   9.454  16.431   2.635  0.1797  0.1508 -0.1752
25567W        W41828   3.735   0.941   2.955  0.2540  0.2714  0.0895
25568W        W41829   2.811  13.188  12.593 -0.3014  0.1063  0.1696
25569W        W41830   3.416  11.370   2.107  0.0413  0.0107  0.2370
25570W        W41831   8.008   0.742  14.622  0.2384  0.5554 -0.2160
25571W        W41832   0.335  17.102   2.814 -0.1847  0.0407  0.0644
25572W        W41833  12.534   5.418   2.077 -0.3495 -0.2237  0.0676
25573W        W41834  16.302  13.662  15.463 -0.3321 -0.4815 -0.0768
25574W        W41835   6.196  14.603   2.236 -0.1212  0.1662  0.2850
25575W        W41836   1.550  15.619   4.522  0.2928 -0.2289  0.1678
25576W        W41837  11.335  17.073  13.535  0.1907 -0.2725  0.0701
25577W        W41838  14.435   0.219   1.180  0.0251  0.0827  0.0267
25578W        W41839  13.885  11.691  12.200 -0.1717 -0.2425  0.1708
25579W        W41840   0.935   0.112   3.159 -0.1371  0.1063  0.0087
25580W        W41841  15.690   1.520   0.080  0.2060 -0.0910 -0.2015
25581W        W41842   3.200   7.422   2.736  0.0969 -0.1143  0.2248
25582W        W41843  16.384  12.784  12.903  0.1072 -0.0200 -0.3492
25583W        W41844   4.659   8.038  12.515  0.1764  0.1696  0.3326
25584W        W41845   4.215   1.179   5.102  0.1529  0.1792  0.3291
25585W        W41846  13.367  17.322  15.543 -0.0517 -0.1467  0.0713
25586W        W41847   0.166   6.860   5.758 -0.0460  0.0004 -0.1251
25587W        W41848   6.440   6.133  14.392 -0.5220  0.0293 -0.0218
25588W        W41849   2.616   9.894   0.592  0.0951 -0.1355  0.0484
25589W        W41850  18.086   7.424   4.750  0.3783 -0.1380 -0.0454
25590W        W41851   5.305   8.893   2.797 -0.2460  0.1792  0.1677
25591W        W41852  16.145   1.875  13.800 -0.1388  0.1413  0.1981
25592W        W41853  15.737   9.532   4.810 -0.2222 -0.1647 -0.1319
25593W        W41854   0.565   4.995   1.415 -0.0700  0.0400 -0.3957
25594W        W41855  16.454   2.005   0.998  0.1144  0.0107 -0.0155
25595W        W41856   5.012   3.780   2.807  0.1547  0.0522  0.0082
25596W        W41857   8.519  11.152   3.307 -0.0988 -0.1432 -0.0923
25597W        W41858   7.926  17.094   4.472 -0.1576 -0.1423  0.1331
25598W        W41859  13.585   4.861   0.344 -0.2803 -0.0646  0.1193
25599W        W41860   6.556   4.109  11.077 -0.0576 -0.0403  0.0793
25600W        W41861   7.853   3.933  11.847 -0.1803 -0.2225 -0.1922
25601W        W41862  15.774  14.585  15.425  0.3744 -0.2478  0.3120
25602W        W41863  17.143   3.320   3.118  0.0821  0.1239 -0.0343
25603W        W41864   4.419   8.957   1.195  0.4415 -0.2906 -0.2472
25604W        W41865   0.258  11.778  15.477  0.1997  0.1213  0.0844
25605W        W41866  13.202   7.418  14.307  0.0582  0.1360 -0.1855
25606W        W41867  16.619   7.462  14.356 -0.5595 -0.0825  0.0147
25607W        W41868   8.745   0.948  12.697  0.0822  0.0146  0.1924
25608W        W41869   4.525   6.752   3.611 -0.1384 -0.1762 -0.3586
25609W        W41870  10.150   0.564   4.288 -0.1872  0.1589 -0.1963
25610W        W41871   8.472   6.406  14.156 -0.0603  0.3294 -0.0414
25611W        W41872   5.139  17.194   2.619  0.1566  0.0759 -0.1592
25612W        W41873  14.590  12.706   6.148 -0.1605  0.2349  0.0941
25613W        W41874   0.580  17.114  15.072  0.0447 -0.1140 -0.3088
25614W        W41875  13.118  12.883  13.923  0.0163 -0.1761 -0.2171
25615W        W41876  15.250   5.570  15.308  0.1685 -0.0299  0.3206
25616W        W41877  10.456  16.548  12.437 -0.1761 -0.5319 -0.1843
25617W        W41878  16.069  11.995   3.486 -0.3644 -0.1693 -0.0521
25618W        W41879   2.956   3.813  13.456  0.2437 -0.1323 -0.2103
25619W        W41880   3.773   1.720   1.056 -0.1875  0.1187  0.0400
25620W        W41881   4.772  14.883   2.542 -0.1671  0.0507  0.0637
25621W        W41882   4.944  11.515  12.052 -0.3263 -0.3549 -0.0028
25622W        W41883   7.161   4.842   4.118  0.0539  0.2302  0.0106
25623W        W41884   1.537  10.828   3.753 -0.0499 -0.2748 -0.0798
25624W        W41885   0.835   6.503   4.989 -0.2135  0.2359 -0.0677
25625W        W41886   2.505   9.683  13.732  0.0343  0.3004 -0.1310
25626W        W41887   3.093  13.445   4.012 -0.0933 -0.0302 -0.0216
25627W        W41888   8.400  14.062  11.311 -0.1274 -0.2099  0.1594
25628W        W41889  16.419   9.198  15.003 -0.0722 -0.0576 -0.1069
25629W        W41890  16.197   4.236   6.083  0.2141  0.3136  0.2141
25630W        W41891   8.794  13.180  11.200 -0.4825 -0.0916  0.3814
25631W        W41892  10.766  13.116  16.147 -0.2031 -0.1096  0.1573
25632W        W41893  17.408  14.640   3.904 -0.3073  0.1542 -0.1224
25633W        W41894   1.561   9.451   1.000 -0.2110 -0.1668 -0.0846
25634W        W41895  10.112  14.088  11.931  0.0630  0.0019  0.0425
25635W        W41896   7.913   5.015  15.378 -0.0688 -0.2073 -0.0058
25636W        W41897  12.604   9.000  13.039  0.0668 -0.1982  0.1729
25637W        W41898   4.986   5.845   4.877  0.0522 -0.0135  0.2232
25638W        W41899  18.209  17.080  15.683 -0.1385  0.1608  0.3880
25639W        W41900  11.085   7.615   0.653  0.2119  0.0131 -0.0114
25640W        W41901   9.081  15.547   4.057 -0.1398 -0.0689 -0.0267
25641W        W41902   3.015  15.365   4.822  0.3747  0.3302 -0.2505
25642W        W41903   2.952   9.945   4.772 -0.1895 -0.0805  0.2702
25643W        W41904  12.531   4.491   4.620 -0.3869 -0.2175  0.0691
25644W        W41905   5.018   5.783  15.992  0.0266  0.2430 -0.0557
25645W        W41906   3.431  12.838  14.925 -0.1463 -0.1240  0.1341
25646W        W41907   0.357  16.491  13.964  0.1646 -0.0314  0.1538
25647W        W41908  12.313  15.844   1.569 -0.0132  0.0029 -0.0777
25648W        W41909  16.019   1.007  12.542  0.0884 -0.1409 -0.1402
25649W        W41910   3.970  11.878  13.014 -0.0822 -0.1570  0.0102
25650W        W41911   5.026   4.259   3.016  0.0732 -0.0060  0.0314
25651W        W41912  12.392   7.105   4.271 -0.0436  0.0816 -0.0279
25652W        W41913  14.518  17.701   1.012  0.0066 -0.0637  0.4333
25653W        W41914   5.910  11.352   4.657 -0.2114 -0.0975  0.2507
25654W        W41915   0.627   9.846  14.036 -0.1083  0.1579 -0.1176
25655W        W41916  14.309  10.233  14.163 -0.3124 -0.1962 -0.1457
25656W        W41917  11.555   1.199   0.929  0.1355 -0.0969 -0.0369
25657W        W41918  15.478   2.401   3.243 -0.1009 -0.1803  0.0001
25658W        W41919   9.429  13.308   3.360  0.0897 -0.0663  0.0053
25659W        W41920   9.819  13.939   5.273  0.0544 -0.0067 -0.1625
25660W        W41921   1.587  16.135   1.833 -0.1151  0.2800  0.4055
25661W        W41922  11.666   4.125  12.078  0.1470  0.0247 -0.1152
25662W        W41923   2.300  17.688   4.356 -0.0470 -0.2057  0.0018
25663W        W41924  12.631  11.618  13.722  0.0875 -0.0034  0.2209
25664W        W41925   4.935  13.252  15.405 -0.1893 -0.1948  0.0550
25665W        W41926   8.669  12.584   4.261  0.5337  0.1914 -0.2972
25666W        W41927   5.008   7.426  11.399  0.0015  0.0593  0.0293
25667W        W41928   3.537  15.871  15.784  0.0073 -0.0548 -0.2134
25668W        W41929   5.985  15.333   3.700  0.0280  0.1612  0.0609
25669W        W41930  12.338  10.254   2.699  0.0765 -0.2440 -0.0118
25670W        W41931   4.315   3.313   5.476 -0.1184 -0.2464  0.1433
25671W        W41932   2.361   2.244   5.116 -0.0590 -0.2806 -0.1960
25672W        W41933   3.106   5.246  14.694 -0.4237  0.0624 -0.0168
25673W        W41934   3.855  16.824  14.077 -0.2815 -0.0190 -0.1914
25674W        W41935   8.357  10.355  15.342 -0.0610 -0.3286  0.0142
25675W        W41936   0.394  12.530   5.954  0.1622 -0.3674  0.1517
25676W        W41937  18.297   4.073   2.581 -0.0916 -0.2846 -0.1060
25677W        W41938   5.574   4.752  14.801 -0.2443  0.0343  0.0679
25678W        W41939  11.027   1.447  14.023  0.2215  0.1684  0.0664
25679W        W41940  15.164   8.433   0.719 -0.0840 -0.0501  0.1205
25680W        W41941   8.755  17.508  12.682  0.0822  0.1444 -0.0239
25681W        W41942   8.638  11.706   1.479 -0.0935 -0.0983 -0.3657
25682W        W41943  10.931   6.119  15.315 -0.1785  0.1373 -0.0004
25683W        W41944  17.911  17.454   1.066 -0.2878  0.3216 -0.0586
25684W        W41945   4.014  11.760  16.205  0.3853 -0.0821 -0.0927
25685W        W41946   1.319  16.013   3.206  0.0469  0.0749  0.1815
25686W        W41947   0.324   8.272   0.726 -0.1238 -0.0858  0.0262
25687W        W41948   2.947   2.835  12.262  0.0046  0.0716 -0.2011
25688W        W41949  17.713  12.198   0.545 -0.1568  0.1167 -0.1898
25689W        W41950  12.543  11.154  11.403 -0.1902 -0.0411 -0.3098
25690W        W41951   7.691   5.598   0.786  0.1274  0.0300 -0.1270
25691W        W41952  14.927   0.389  15.652  0.5450 -0.0959 -0.0327
25692W        W41953   6.365  13.028  12.393 -0.6443  0.2359 -0.1994
25693W        W41954  15.654   9.764  15.121 -0.1359 -0.3715 -0.0446
25694W        W41955  16.403  17.804  13.070  0.0137  0.0318  0.0895
25695W        W41956  14.365  14.796  13.996  0.2507  0.1531 -0.0413
25696W        W41957  17.407  14.252  12.226 -0.1893 -0.1591 -0.0602
25697W        W41958  16.343   7.837  14.151 -0.1359  0.4071  0.0526
25698W        W41959  13.794   4.940  12.407 -0.1730 -0.1272  0.4945
25699W        W41960  15.841  13.579   1.543  0.1485 -0.0352  0.0196
25700W        W41961   0.762   4.681   2.914 -0.0040 -0.2052  0.3135
25701W        W41962   2.916  13.730  15.348 -0.1571 -0.4131  0.0189
25702W        W41963  16.216  12.307  14.106  0.0595 -0.1259  0.0450
25703W        W41964   1.939  14.228  11.890  0.2704  0.3283  0.1959
25704W        W41965   3.023   0.111   6.575  0.0837  0.0435  0.0355
25705W        W41966  12.539  11.848  14.660 -0.2823  0.0433 -0.3194
25706W        W41967  10.548  17.806  11.572 -0.1273  0.0271  0.0803
25707W        W41968  10.571   2.781   2.226 -0.1982  0.2019  0.0562
25708W        W41969  14.020   1.732   5.175  0.0061 -0.3887 -0.3397
25709W        W41970  12.376   1.756  11.921 -0.0310  0.2113  0.0085
25710W        W41971   1.182  11.770  11.477  0.2391 -0.1235  0.0386
25711W        W41972  16.919   5.787  13.522  0.2255 -0.1283 -0.0086
25712W        W41973   1.137  16.295   1.652  0.0983  0.2275  0.1404
25713W        W41974   1.958  17.497  15.616  0.1284  0.1512  0.0883
25714W        W41975   5.911  11.751  14.633 -0.1991  0.0109  0.5949
25715W        W41976  10.660  16.951  13.510  0.1913 -0.1785  0.1159
25716W        W41977   9.483   4.959   2.332  0.0939 -0.1215 -0.3153
25717W        W41978  18.259   5.433   1.958 -0.0477 -0.1106 -0.2774
25718W        W41979   6.847   1.288  13.994 -0.0154  0.0445  0.0616
25719W        W41980   3.745  15.787  12.947  0.0213  0.0736 -0.1468
25720W        W41981   7.882   5.019   2.626 -0.3209  0.0146  0.5268
25721W        W41982   1.255  11.030  15.135  0.0138  0.5827 -0.1599
25722W        W41983  10.002   6.748   1.531 -0.1992  0.0808 -0.1130
25723W        W41984   4.889  13.482  14.989  0.0809  0.1353  0.0790
25724W        W41985   1.489  16.935   2.066  0.1119  0.0859  0.1422
25725W        W41986   3.349   7.381  16.185 -0.2103 -0.1558 -0.0155
25726W        W41987  17.143  16.908  11.604  0.0420  0.0483 -0.0449
25727W        W41988  10.071   3.121  12.738  0.1606 -0.4718 -0.2077
25728W        W41989   6.398  16.000   3.767 -0.2882  0.2532 -0.1808
25729W        W41990  11.754   2.979  13.253 -0.0220  0.0529  0.2552
25730W        W41991   0.390  12.183  11.506 -0.3938 -0.1122 -0.0909
25731W        W41992  11.066   2.221  12.149 -0.0303 -0.3678 -0.0083
25732W        W41993   9.365  17.379  13.607  0.1488  0.0837 -0.0439
25733W        W41994   9.813   6.708  14.576  0.0622 -0.2425 -0.0304
25734W        W41995   0.321  12.659  14.946  0.2562  0.2447 -0.2031
25735W        W41996   6.013  13.684   0.727 -0.0025 -0.1968 -0.0038
25736W        W41997   4.154  15.314   0.214 -0.3226 -0.1371 -0.2925
25737W        W41998  13.620  17.241   0.523 -0.0637  0.1189 -0.2780
25738W        W41999   4.031  16.561  15.640  0.0969 -0.0099 -0.1770
25739W        W42000   7.952   1.960  12.999 -0.0347 -0.0751 -0.1492
25740W        W42001  10.324  15.172   1.684  0.1137  0.2712  0.1250
25741W        W42002   3.792  14.683  15.684  0.0652 -0.1510  0.0840
25742W        W42003  12.148   7.825  15.727  0.1156 -0.0739 -0.0875
25743W        W42004   4.488   9.787  15.251  0.0416  0.1901 -0.1860
25744W        W42005  12.111   1.379  15.534  0.1172  0.3795  0.2161
25745W        W42006  17.493   2.703  13.543 -0.0529  0.0481  0.1294
25746W        W42007  15.623   9.210   3.447 -0.2079 -0.0647  0.2950
25747W        W42008   5.370   1.208  13.764 -0.1704  0.2590  0.0120
25748W        W42009  11.375   5.641  13.691  0.1098 -0.1045 -0.1121
25749W        W42010  14.222   4.635  12.463  0.1413 -0.1671  0.0488
25750W        W42011   4.365  16.894   4.191 -0.1415 -0.0562  0.0611
25751W        W42012   7.224  16.764   2.458  0.0782 -0.2310  0.1228
25752W        W42013  16.769  16.707   3.370 -0.0073  0.3189  0.0616
25753W        W42014  14.144   2.701  12.640 -0.3211  0.0916  0.2393
25754W        W42015  11.662  16.193  12.606 -0.5319  0.0680  0.1759
25755W        W42016  16.667  12.421  13.748 -0.2690  0.2634  0.3129
25756W        W42017   8.829   6.514  15.480 -0.1259  0.2775 -0.1467
25757W        W42018  17.563   0.488  15.524 -0.0519 -0.1783  0.2220
25758W        W42019  15.643   1.176   0.455 -0.0522  0.0563 -0.1201
25759W        W42020  12.568  14.071  15.359  0.1154 -0.2735 -0.2289
25760W        W42021  13.202  16.958   6.224  0.0487  0.2635 -0.1506
25761W        W42022   5.719   1.853   0.462 -0.0678  0.0452 -0.1097
25762W        W42023   8.546   9.058   0.368  0.2719  0.0089  0.0275
25763W        W42024   7.905   8.317  14.163 -0.0961 -0.1912  0.0064
25764W        W42025   9.261   7.357  12.505  0.0299  0.0062 -0.0217
25765W        W42026  12.347  13.592  11.276 -0.0048 -0.0522 -0.1110
25766W        W42027  15.208   9.054   1.257  0.0994  0.1242  0.0191
25767W        W42028   0.100   7.750  14.635  0.1268 -0.0857  0.0038
25768W        W42029  17.651   5.663   4.760  0.0833 -0.0227 -0.2309
25769W        W42030  12.251  16.955   3.298 -0.0211 -0.1071  0.0960
25770W        W42031   8.936   1.260   1.657  0.1445  0.0798 -0.4236
25771W        W42032   4.044  11.950  15.774  0.3282  0.2528 -0.2619
25772W        W42033  16.048  15.782  13.023 -0.0107  0.1810 -0.1199
25773W        W42034   7.884  14.567  13.777 -0.0544 -0.5221  0.2293
25774W        W42035   9.124   0.439   2.302 -0.0966 -0.3401  0.0990
25775W        W42036   2.069  13.590  11.133  0.0575  0.1534  0.2556
25776W        W42037  11.396  15.061   0.173 -0.1349 -0.0307  0.0195
25777W        W42038   1.997   9.410   4.417  0.0222  0.1919  0.0568
25778W        W42039  14.486  16.275   5.169 -0.1124  0.3975  0.2018
25779W        W42040  16.991   7.339   2.536  0.2635  0.0308  0.0171
25780W        W42041  17.041  13.496   5.002  0.2064  0.2940  0.5268
25781W        W42042   5.166   9.561   1.042 -0.0025 -0.1446  0.0690
25782W        W42043   9.685   8.365  15.818  0.1170 -0.0087 -0.0350
25783W        W42044  13.658  17.797   4.915  0.4317 -0.0133  0.1791
25784W        W42045   9.957  12.345   1.020 -0.1030  0.1557 -0.1181
25785W        W42046   6.972  15.212   2.577 -0.2710 -0.1796 -0.0775
25786W        W42047   2.506   6.892  12.173  0.0398  0.0265  0.2067
25787W        W42048   2.622  10.835  14.721  0.2499  0.0350  0.1313
25788W        W42049  17.297   8.652   4.879 -0.0924 -0.2248  0.1111
25789W        W42050   7.298  13.031   3.668 -0.0781  0.0159  0.2833
25790W        W42051   5.992   1.483  13.916 -0.0252 -0.0908 -0.0714
25791W        W42052   5.914   6.440  15.689  0.0157  0.0954 -0.1750
25792W        W42053   1.682   2.835   5.906 -0.1487  0.0913 -0.0715
25793W        W42054  14.791  15.933   2.785  0.1850  0.2565  0.1087
25794W        W42055  16.108   5.100   2.207  0.2203  0.3305  0.1320
25795W        W42056   8.174  16.695  13.296 -0.0940 -0.0859  0.1213
25796W        W42057  14.284  17.594  11.852  0.0873  0.0027 -0.2889
25797W        W42058   3.219  18.205   5.146 -0.0984 -0.0669  0.1270
25798W        W42059   3.825  14.843   0.083 -0.3677  0.2909  0.1182
25799W        W42060   9.558   8.990   4.225 -0.0941 -0.0408  0.0743
25800W        W42061  15.425   9.935   1.009  0.0945 -0.0735  0.0545
25801W        W42062   1.524   1.342  13.809  0.0362  0.1037  0.0546
25802W        W42063   8.467   1.061   0.304 -0.0685  0.0064 -0.1737
25803W        W42064  17.686   6.766  10.286 -0.0845 -0.1550  0.0095
25804W        W42065   4.646  13.566  15.808  0.0615  0.2711 -0.3811
25805W        W42066   3.867   1.471   2.141 -0.1929  0.1247  0.0769
25806W        W42067   3.719   8.616   1.951  0.0159  0.3541  0.1337
25807W        W42068  17.759   1.140  11.752 -0.2982 -0.4944 -0.0325
25808W        W42069   7.290   2.254   3.902  0.1552 -0.0625  0.0495
25809W        W42070   2.125  11.243  13.535  0.1647 -0.0600  0.0328
25810W        W42071   0.926   4.341   6.135  0.1836  0.2182  0.1491
25811W        W42072   9.823   4.740  10.794 -0.0909  0.2144 -0.1474
25812W        W42073   4.403  17.846   1.096  0.1187  0.1931  0.2092
25813W        W42074   4.961  12.924   3.429  0.0484 -0.1598 -0.2180
25814W        W42075   8.932  10.409   3.497  0.0470 -0.1560  0.0843
25815W        W42076  17.109  10.698   5.646 -0.3961  0.2730 -0.0980
25816W        W42077  15.490  13.383   4.996  0.0559 -0.1586 -0.1592
25817W        W42078   3.476   9.330   2.609  0.0942  0.1401 -0.0247
25818W        W42079   9.287   4.868   1.881  0.3749 -0.3829  0.0308
25819W        W42080   6.748   3.611  13.811 -0.1636 -0.1069 -0.1592
25820W        W42081  17.867   1.716   1.400 -0.1550 -0.0376  0.3519
25821W        W42082  16.499  16.605  15.613  0.1577 -0.0961 -0.1962
25822W        W42083   9.959  15.883  15.809  0.1753 -0.0062  0.0147
25823W        W42084   4.044  11.708  12.558 -0.2237  0.2742 -0.1402
25824W        W42085   1.083  13.649  14.548  0.0701  0.0695 -0.1320
25825W        W42086   2.342   1.623  12.076  0.2400  0.2183 -0.0996
25826W        W42087  13.177   7.968   3.925 -0.0294  0.0801  0.1391
25827W        W42088   0.807  14.549   3.804  0.1581  0.0298  0.2672
25828W        W42089   8.467   3.509   0.446 -0.1739 -0.0788 -0.1388
25829W        W42090  16.408  12.390   4.553  0.1303 -0.0037  0.2368
25830W        W42091   8.752   6.253  11.480 -0.2459  0.1473  0.0527
25831W        W42092   6.981   7.496  11.342 -0.1172  0.0816  0.0407
25832W        W42093   9.611  12.797  13.469  0.1038 -0.0701 -0.2941
25833W        W42094   5.711  17.133   3.903  0.0677  0.0932 -0.0546
25834W        W42095  16.890  17.164  12.677 -0.1435  0.0519  0.1330
25835W        W42096  10.174  15.345   4.748  0.0396  0.0925 -0.0598
25836W        W42097   9.103   5.420  13.386  0.2179 -0.0121  0.1162
25837W        W42098  18.021   2.207   4.348 -0.0667  0.0836 -0.2937
25838W        W42099  15.737  13.818  11.922  0.0375  0.0399 -0.0385
25839W        W42100   7.778   1.349  12.357  0.0772 -0.0055  0.1904
25840W        W42101  10.367  10.504  13.855  0.1145  0.3283  0.0356
25841W        W42102   0.328  12.208   1.159  0.1192  0.2369  0.2622
25842W        W42103  18.198  12.783   2.551  0.1703 -0.0845  0.1571
25843W        W42104  12.139   1.989  13.819  0.1559 -0.2744  0.1141
25844W        W42105   8.607   4.360   4.788  0.0607 -0.0209 -0.2378
25845W        W42106   0.908   4.255  14.508  0.0823  0.1721 -0.0496
25846W        W42107  12.256  16.775   2.186 -0.1668  0.3709 -0.1242
25847W        W42108  15.019  14.254   1.355 -0.0762  0.2622  0.1266
25848W        W42109  13.854  13.548   5.129  0.3010 -0.0282  0.2712
25849W        W42110  17.057  14.812   5.223 -0.0520  0.1667  0.0424
25850W        W42111   7.602  17.521   1.321 -0.0420  0.1011  0.1596
25851W        W42112   8.282  11.886   3.948  0.1308 -0.0103 -0.1282
25852W        W42113  12.941  14.524   1.019  0.3391 -0.2305 -0.0789
25853W        W42114   1.227   6.974  12.710  0.0447 -0.4045 -0.0043
25854W        W42115  10.058   3.912   3.813  0.1196 -0.0024 -0.1554
25855W        W42116   6.883   4.374  14.632  0.3027 -0.0610  0.1818
25856W        W42117  10.451  10.235   3.044  0.4849 -0.0950  0.0432
25857W        W42118   4.164  13.699   1.406 -0.1017 -0.1728  0.3316
25858W        W42119   9.171   0.966   1.360 -0.2662 -0.0776 -0.2841
25859W        W42120  17.778   2.217  11.237 -0.1310 -0.0605  0.3111
25860W        W42121  11.975   7.981   2.042 -0.2105  0.0782 -0.1708
25861W        W42122  15.614   9.167   3.941 -0.0303  0.0921  0.2790
25862W        W42123  15.417  13.330   1.156 -0.2134 -0.0890  0.1433
25863W        W42124   2.253  16.067   1.223 -0.2870  0.0383 -0.1457
25864W        W42125  11.663  16.399  15.896 -0.2183  0.0806  0.0850
25865W        W42126   2.459   6.092   3.346 -0.2049  0.0771  0.1912
25866W        W42127  14.673  12.592  10.581  0.0803 -0.2071  0.0721
25867W        W42128  11.769  12.839   2.200 -0.1695  0.1141 -0.3107
25868W        W42129   0.951   2.680  11.960  0.0100 -0.0692 -0.0866
25869W        W42130  12.958  17.787   5.586 -0.1284  0.2188 -0.0688
25870W        W42131   3.241  16.548   2.558 -0.1451 -0.4568 -0.0765
25871W        W42132  15.819   1.818   1.624 -0.1214  0.1119 -0.2271
25872W        W42133  11.564  15.648   2.640  0.0676 -0.1569 -0.0956
25873W        W42134   2.817   6.432  14.128 -0.0633 -0.0244  0.5241
25874W        W42135   6.835   0.284  12.068  0.5729 -0.1833  0.0715
25875W        W42136  14.344  12.655  14.506  0.0466 -0.0939  0.2719
25876W        W42137   6.892  14.749   5.101  0.0964  0.1137  0.0823
25877W        W42138   1.544   1.220  14.584  0.1357 -0.0842  0.0110
25878W        W42139   6.796   2.332   4.935  0.1958  0.0096  0.3343
25879W        W42140  15.039  12.880   2.577 -0.0548  0.1545  0.0274
25880W        W42141   1.500   1.660  13.404 -0.1920  0.0573  0.0351
25881W        W42142  15.625  12.989   4.562 -0.3434  0.1752 -0.1276
25882W        W42143   8.728  17.554   2.896  0.0587  0.2495 -0.1669
25883W        W42144   8.327  12.497   3.473 -0.0385  0.0209 -0.1945
25884W        W42145  18.004   4.404   3.977 -0.1725 -0.0696 -0.0174
25885W        W42146   5.557   9.122  11.982 -0.2492 -0.1128  0.0313
25886W        W42147  16.285   4.679  15.583  0.0431 -0.3409 -0.2932
25887W        W42148   4.174  12.361  14.427 -0.0399 -0.4330 -0.2526
25888W        W42149   9.495  10.059   4.575  0.0656  0.2333 -0.0669
25889W        W42150  10.741  10.769   1.512  0.1450 -0.2253 -0.0311
25890W        W42151   6.720   5.514  12.920  0.0733  0.0004 -0.3070
25891W        W42152   5.692  13.233  16.124  0.3518  0.0981  0.0900
25892W        W42153  15.655  17.726  12.333 -0.0961  0.3732  0.4196
25893W        W42154  17.413  12.060   6.247  0.1386 -0.0991  0.1442
25894W        W42155   9.283   6.146  14.062 -0.2423  0.2267  0.1561
25895W        W42156   6.024  13.070  13.999  0.2430 -0.3479 -0.1689
25896W        W42157  15.302  18.242   1.210  0.2071 -0.2345 -0.0237
25897W        W42158   2.438   3.634   5.783  0.1849  0.0657  0.0898
25898W        W42159   0.122  15.361   0.077  0.2495 -0.0552 -0.2084
25899W        W42160   6.823  14.709  11.352  0.3840 -0.1627 -0.1644
25900W        W42161  10.835   4.688  14.195 -0.0681 -0.4324 -0.1423
25901W        W42162   9.885   4.353   0.705 -0.0905 -0.1167  0.0470
25902W        W42163  17.344   8.695  13.836  0.0727 -0.0405  0.1358
25903W        W42164   2.647  16.431   0.515 -0.1748 -0.0547 -0.1219
25904W        W42165  10.440   3.442  12.520  0.0135 -0.0403 -0.1442
25905W        W42166  18.230   2.055  15.799 -0.2836 -0.0128 -0.0154
25906W        W42167  16.525   8.899   3.223 -0.1607 -0.0070  0.0924
25907W        W42168   3.859   4.462  13.579  0.2817  0.4141  0.0076
25908W        W42169  17.380   6.939   3.462  0.0763 -0.1978 -0.1308
25909W        W42170   6.047  16.883  12.589  0.2997  0.0445 -0.1777
25910W        W42171   3.951   4.397  14.540  0.0935  0.4516 -0.1460
25911W        W42172  14.508   4.658  15.547  0.0397  0.0538  0.1063
25912W        W42173   4.990  11.448   0.204 -0.3520 -0.2567 -0.1502
25913W        W42174   8.338  15.111   4.917 -0.1967  0.3106  0.3692
25914W        W42175   0.578   8.310  15.165  0.1119 -0.1506 -0.0760
25915W        W42176   2.521  12.586  13.033  0.3295 -0.1239 -0.1066
25916W        W42177  12.310   9.877   3.299  0.2929  0.3233  0.3256
25917W        W42178  14.619  17.403   5.888  0.1611  0.0038  0.0357
25918W        W42179   5.081   0.175   2.962  0.1482 -0.5223 -0.3625
25919W        W42180   8.631   8.718   2.949  0.0547 -0.2934 -0.0048
25920W        W42181  10.845   5.658  15.598 -0.0578 -0.2224 -0.1129
25921W        W42182  17.351   9.324   5.345  0.1231  0.1841 -0.1949
25922W        W42183   7.888  13.284  15.194  0.0771 -0.1391  0.5487
25923W        W42184   5.846  13.207  15.049  0.0624  0.0460 -0.0041
25924W        W42185   6.452   7.737   0.675 -0.1052 -0.2689 -0.1901
25925W        W42186   7.396   3.497   4.233 -0.2268  0.1604 -0.0682
25926W        W42187   8.825  16.493   4.923  0.0029 -0.1309 -0.0105
25927W        W42188   8.567  16.571   3.818  0.2889 -0.0182  0.2479
25928W        W42189  17.888   3.983  14.115 -0.1825 -0.3017  0.1932
25929W        W42190  16.678   3.345  13.299  0.1449 -0.2180 -0.0382
25930W        W42191  10.256   8.035  15.086  0.3517 -0.5375 -0.3201
25931W        W42192   3.250   1.835   0.951  0.0716 -0.0507  0.2551
25932W        W42193   9.938  13.990   2.391 -0.3768  0.2568  0.1171
25933W        W42194  12.928  13.572  14.936  0.0649  0.1000  0.0987
25934W        W42195   7.264   2.585   2.738 -0.2508 -0.2078 -0.0793
25935W        W42196  16.464   5.566  11.346 -0.0863  0.1419 -0.2486
25936W        W42197  13.139   4.787   2.198 -0.1678  0.2236 -0.2908
25937W        W42198  14.499  15.680  13.019  0.0358  0.1209  0.0086
25938W        W42199   8.718  16.329   2.157  0.2429  0.0529  0.0107
25939W        W42200   2.186   8.744   6.219  0.0655 -0.5294  0.4299
25940W        W42201   6.982   9.412  13.074  0.1709 -0.3178 -0.0288
25941W        W42202  18.219  11.512  10.552 -0.2115  0.2119 -0.0214
25942W        W42203   3.850   5.103   2.011  0.0113 -0.0738  0.1553
25943W        W42204  14.280   4.633  13.008 -0.0068  0.1420  0.2234
25944W        W42205  15.612   2.744   1.148 -0.3768 -0.2798 -0.3269
25945W        W42206  13.819  12.872  14.689 -0.0681 -0.0799 -0.1209
25946W        W42207   7.728  15.640   3.929  0.0128 -0.0532  0.1397
25947W        W42208   5.794  11.024   5.413  0.1365  0.0460 -0.1163
25948W        W42209  13.732   1.316  15.415  0.1361 -0.2204  0.2699
25949W        W42210  14.269   7.562   2.378  0.0801 -0.3136  0.0528
25950W        W42211   7.258  11.113  15.593  0.2081 -0.0554 -0.0591
25951W        W42212  10.575  14.592  16.095  0.0776 -0.0969  0.1491
25952W        W42213  14.233   0.188   3.607  0.0350 -0.1108  0.1212
25953W        W42214   0.488  10.671   3.179  0.0499 -0.0771  0.3633
25954W        W42215  10.717   7.908  12.261  0.0407  0.0022 -0.0558
25955W        W42216   1.333  15.397  15.494  0.1643 -0.1290  0.2588
25956W        W42217   1.430  15.736  12.776 -0.0630  0.3574 -0.1120
25957W        W42218   8.641   9.469  15.380  0.0700 -0.3318 -0.0930
25958W        W42219  17.260  10.944  12.481  0.0604 -0.1850 -0.0749
25959W        W42220   7.707   9.272  15.740 -0.1421  0.0709  0.2563
25960W        W42221   9.620   5.627   0.206 -0.0699 -0.0104 -0.2695
25961W        W42222  18.257   1.013  12.878 -0.1676 -0.1302 -0.1739
25962W        W42223   2.117   7.188   1.103  0.0510  0.1719 -0.2936
25963W        W42224   3.651  13.318   2.244  0.0219  0.1791 -0.1453
25964W        W42225   8.655  10.648   2.218  0.3223  0.1017 -0.1487
25965W        W42226   2.122  10.961  15.742 -0.1800 -0.0885  0.3832
25966W        W42227  14.525  10.829   3.836 -0.0538  0.1365  0.1033
25967W        W42228   0.676   2.250   5.829  0.1946 -0.3683  0.0230
25968W        W42229   1.331   7.749  12.047 -0.1967  0.0111  0.1161
25969W        W42230   2.778   6.487   3.228 -0.1491 -0.1142 -0.0411
25970W        W42231   2.995  18.242  16.300 -0.0888  0.0915  0.0353
25971W        W42232   5.348  13.006   1.672  0.1063 -0.0794  0.0662
25972W        W42233   5.386   9.983  12.324  0.0676  0.1842  0.1140
25973W        W42234   6.961   8.874  13.037  0.0439  0.0262  0.3346
25974W        W42235  14.996   5.835   3.260  0.1922  0.0619  0.3442
25975W        W42236   6.497   9.645  13.350 -0.0012  0.1465 -0.0225
25976W        W42237  10.233   6.255   3.650  0.1603  0.1174  0.0613
25977W        W42238   5.778  16.229   1.236  0.2681 -0.1195  0.1997
25978W        W42239  14.493  12.168  11.289  0.1354  0.1365  0.0197
25979W        W42240   1.535   5.487  11.818 -0.1842 -0.0819  0.2530
25980W        W42241  16.289  14.163  14.341 -0.2324  0.1182  0.0482
25981W        W42242   4.861   0.191   0.460 -0.2775  0.1179  0.1149
25982W        W42243  11.355  13.921   3.904 -0.1445 -0.1718  0.1280
25983W        W42244  15.785   6.254   3.340  0.2359  0.3224  0.0024
25984W        W42245  15.702  12.291  11.422  0.2017  0.1726 -0.2893
25985W        W42246  15.040   6.769  12.440 -0.1301  0.1104 -0.2081
25986W        W42247   0.012  14.134  10.585  0.0148 -0.2411  0.2340
25987W        W42248   8.827  17.881  13.639 -0.1966  0.1766 -0.2492
25988W        W42249   9.552   8.000   2.159  0.0579  0.1784 -0.0698
25989W        W42250  12.119   8.269  13.241  0.3402  0.1630  0.3444
25990W        W42251   8.441   1.023  14.767 -0.0394 -0.0529 -0.1502
25991W        W42252   8.112  15.292  13.194 -0.0014 -0.1964 -0.0188
25992W        W42253   5.979   2.889  12.841  0.0438  0.1119  0.2456
25993W        W42254  10.132   9.657   0.311 -0.0370  0.1026 -0.1171
25994W        W42255  16.067  16.514  15.268  0.1665  0.1613  0.0421
25995W        W42256   8.327  12.769  13.727  0.0588  0.0901  0.1067
25996W        W42257   1.132   3.935  14.939 -0.4214 -0.1782  0.1200
25997W        W42258  12.164   1.134   4.576  0.1737 -0.1261 -0.0683
25998W        W42259  13.340  18.132   3.506 -0.0560  0.1185  0.0193
25999W        W42260   7.530   0.080   1.776  0.0115  0.3356  0.3811
26000W        W42261   6.071  16.038   4.548  0.1926  0.1212 -0.0427
26001W        W42262   0.175   7.015  14.368  0.2609 -0.0592  0.0120
26002W        W42263  14.731   4.835   3.070 -0.3489  0.0832  0.4183
26003W        W42264  12.866  10.648   2.009  0.1272  0.0285  0.0966
26004W        W42265  14.650  10.754   1.491  0.1373 -0.2942  0.1341
26005W        W42266  12.930  11.919  15.666 -0.1894  0.0511  0.0426
26006W        W42267  10.484   4.371  15.728  0.1067 -0.1313  0.3157
26007W        W42268   9.252  10.365   4.288 -0.1841 -0.0053  0.1381
26008W        W42269   1.411   4.015  14.507  0.3262  0.1073  0.2682
26009W        W42270  12.185   6.432   0.366  0.2327 -0.0332  0.1329
26010W        W42271   4.646   9.823  11.234  0.1449 -0.0460 -0.2482
26011W        W42272   7.647  13.696  12.770 -0.1518  0.0076  0.0092
26012W        W42273  18.240   5.251   3.923  0.1930  0.0802 -0.4600
26013W        W42274   6.561   0.399  12.541 -0.3225  0.1680 -0.0132
26014W        W42275   8.964  13.889  14.091 -0.2824  0.2384  0.3685
26015W        W42276   5.282  12.513   0.087  0.3381  0.1034  0.2134
26016W        W42277  15.628  15.979   5.606 -0.3400  0.0213  0.0571
26017W        W42278   7.646  11.954  15.839 -0.1952 -0.0272  0.0257
26018W        W42279  12.333   5.731   0.133 -0.2167  0.0160  0.1780
26019W        W42280  11.730   7.301  11.563  0.0819 -0.1388  0.1736
26020W        W42281   3.163   7.381  13.043  0.1475 -0.3097  0.1262
26021W        W42282   4.449  14.335  12.637 -0.0472  0.1088  0.2157
26022W        W42283   3.184  17.209  12.417  0.1516 -0.2133  0.0230
26023W        W42284   9.824  13.137   1.234  0.1024  0.3585  0.3018
26024W        W42285   0.989   9.299   0.850  0.1157 -0.0305  0.1574
26025W        W42286   7.507  14.566   3.424 -0.0587 -0.1277 -0.1163
26026W        W42287   3.958  16.612   5.495 -0.0641 -0.1409 -0.1038
26027W        W42288  10.388   6.841   0.724 -0.0351  0.0914  0.3967
26028W        W42289   4.301   1.913   3.814  0.0585 -0.0672  0.0857
26029W        W42290   6.276   1.566  15.188 -0.3972  0.1008 -0.0157
26030W        W42291   1.106  11.942   1.612  0.2117  0.1388  0.0410
26031W        W42292  14.785  13.677   2.734  0.1555  0.5279  0.1134
26032W        W42293   6.061   5.493  11.255 -0.4123  0.2459 -0.0034
26033W        W42294   4.734   8.885  12.859  0.2574  0.0068  0.1087
26034W        W42295  13.727   9.568  13.676  0.1333 -0.1048  0.2416
26035W        W42296  14.763  10.233   0.676  0.2649  0.2489 -0.0106
26036W        W42297   3.716   0.517  14.912  0.0864 -0.0154  0.0183
26037W        W42298   8.536   6.388  15.067  0.3666  0.0999 -0.1901
26038W        W42299   0.605  17.561   3.269  0.0266  0.1740  0.1471
26039W        W42300  15.244  10.162   5.754  0.2436  0.1636  0.1983
26040W        W42301   6.456   8.275  12.933 -0.0144 -0.1145 -0.2001
26041W        W42302   0.281  11.104  14.951 -0.0718  0.0156 -0.0667
26042W        W42303  15.391   4.886  15.081 -0.0990  0.1972 -0.1993
26043W        W42304  13.646   5.645  11.689 -0.0374 -0.2865  0.1594
26044W        W42305   9.165  13.947  15.422 -0.1216 -0.2133  0.2709
26045W        W42306  16.118   3.520   4.335  0.1027  0.0504 -0.0824
26046W        W42307   3.079  15.221  13.644  0.4517  0.0940 -0.2402
26047W        W42308  16.409   2.424   4.141  0.2127 -0.0334  0.3139
26048W        W42309  16.176  14.503  13.524  0.1141 -0.2646 -0.3336
26049W        W42310  16.805   4.836  13.922 -0.2319 -0.1086  0.0767
26050W        W42311  15.833  10.938   2.797  0.0155  0.0854 -0.1531
26051W        W42312   3.304  15.222   3.569 -0.1245  0.0522 -0.0070
26052W        W42313  18.054  18.020  15.230  0.0011  0.1534  0.1617
26053W        W42314   6.699  17.723   4.295 -0.1441  0.1743 -0.1949
26054W        W42315   5.704  16.434   3.311 -0.0444 -0.2202 -0.0864
26055W        W42316  16.510   4.309   1.631  0.0017 -0.0507 -0.0081
26056W        W42317  11.077  11.451  15.697  0.1867 -0.5338 -0.3275
26057W        W42318   4.258   8.331  16.042 -0.0691 -0.3009 -0.1217
26058W        W42319  12.683  15.716   1.826 -0.0676  0.4441  0.0852
26059W        W42320   4.945   4.840   3.742 -0.0077 -0.2207 -0.0385
26060W        W42321   2.994  13.390   2.966  0.2316  0.1447 -0.1059
26061W        W42322  10.714  15.178   3.041 -0.2432 -0.5079  0.0841
26062W        W42323  10.609   9.348  11.825 -0.0940  0.1850  0.0791
26063W        W42324   0.817  15.849   5.365  0.0327  0.1508 -0.2305
26064W        W42325   4.762   6.033  15.591  0.0106  0.1499  0.2660
26065W        W42326  10.604   1.551   1.129  0.0821  0.0307 -0.0240
26066W        W42327   7.311   3.404   3.551 -0.0627  0.1755  0.1941
26067W        W42328   5.790   0.515  13.938 -0.2433  0.2499  0.3867
26068W        W42329   3.532  15.470   0.939  0.1015 -0.3280  0.2700
26069W        W42330   8.041  11.515  11.564  0.0499  0.0276  0.0121
26070W        W42331   9.130   2.457   3.716 -0.1579  0.0727 -0.1897
26071W        W42332  16.870   0.468  15.199  0.0316  0.2285 -0.0276
26072W        W42333  13.652   2.321   2.059 -0.2198 -0.0921  0.1129
26073W        W42334   5.673   2.488  13.285 -0.2248  0.7680  0.1352
26074W        W42335  10.072   5.481  16.247  0.2190  0.3141 -0.0918
26075W        W42336   1.403   7.868  14.430  0.2102  0.1363 -0.1126
26076W        W42337  17.073  14.214  11.392  0.1927 -0.0583 -0.0463
26077W        W42338  16.149   7.032   2.243  0.1632  0.3466 -0.1010
26078W        W42339   3.446  13.865   5.865 -0.3149 -0.1149  0.0149
26079W        W42340  15.386  11.781   2.878 -0.0416  0.0442 -0.3037
26080W        W42341   6.315   9.863  11.990  0.1073  0.2505  0.3367
26081W        W42342   5.393   2.821   5.522 -0.0773 -0.1305  0.0240
26082W        W42343   8.697  13.726   2.814 -0.4866 -0.0188 -0.1242
26083W        W42344  15.586  14.636   0.045 -0.3317  0.0159  0.0491
26084W        W42345  11.403   5.417   1.146 -0.0712  0.1985  0.3016
26085W        W42346  12.501  11.911   1.330  0.3056 -0.0879  0.0641
26086W        W42347   9.791   2.783   2.994 -0.1242 -0.1027  0.2841
26087W        W42348   9.572   7.786  13.284  0.0810 -0.2491  0.2624
26088W        W42349  18.070   1.994  13.793  0.0079  0.2627 -0.1449
26089W        W42350  13.388  10.107   3.168  0.2252  0.1794 -0.0925
26090W        W42351   5.301   2.180   4.039  0.0524  0.1188  0.1639
26091W        W42352  15.250   9.660   0.045 -0.0975  0.0849  0.1157
26092W        W42353   8.512   4.452  15.604  0.1029 -0.2366 -0.0740
26093W        W42354  13.438  18.104  14.839 -0.0612  0.4639  0.0298
26094W        W42355  10.759   2.425  14.246  0.0710 -0.0788 -0.0604
26095W        W42356  16.029   1.296   3.465  0.0853 -0.1074  0.0303
26096W        W42357   8.948   2.355   2.091  0.0363  0.2215  0.4095
26097W        W42358   8.560   1.379  11.152 -0.1199  0.0368 -0.0709
26098W        W42359  16.632  13.717  12.718  0.2822  0.1846  0.0682
26099W        W42360   2.357   5.965   4.364 -0.2323 -0.2161 -0.1134
26100W        W42361   5.019  17.243  12.583 -0.0003 -0.2163 -0.1180
26101W        W42362   5.109  17.016   5.908  0.1128 -0.0853 -0.0154
26102W        W42363  16.249   8.347   4.837 -0.1419  0.4048 -0.2672
26103W        W42364   0.836   7.296   3.539 -0.0760 -0.3750 -0.1667
26104W        W42365   5.615   6.816  11.874  0.2480  0.1049 -0.0966
26105W        W42366   1.146  10.506  13.561 -0.2362 -0.0870 -0.1548
26106W        W42367  17.541   6.179   4.679 -0.1474  0.0404  0.0882
26107W        W42368   8.121   2.081  11.094  0.2162 -0.0825 -0.4508
26108W        W42369   5.573   1.024   3.446 -0.2839  0.1657 -0.0929
26109W        W42370   5.451   8.455  16.046 -0.0516 -0.2983 -0.0318
26110W        W42371   3.696  11.025  15.470 -0.2090 -0.1565 -0.1895
26111W        W42372  17.173  10.357   0.018  0.1144  0.0946  0.3426
26112W        W42373   4.337   0.208   3.924 -0.0310 -0.0014 -0.0051
26113W        W42374   6.439   3.217   3.653  0.1484  0.2056 -0.1939
26114W        W42375   9.843   7.300   4.753  0.4066  0.1571 -0.2742
26115W        W42376  15.893   0.657   4.094 -0.0101  0.3230  0.3433
26116W        W42377   9.822   0.744   2.811  0.3060  0.0814 -0.2275
26117W        W42378  18.179   8.021   4.633 -0.0388 -0.0320 -0.1698
26118W        W42379  11.541   5.586   3.697  0.0383 -0.1469 -0.1857
26119W        W42380   1.757   2.655   5.128 -0.1884  0.0447 -0.1932
26120W        W42381  15.386  12.043  12.244  0.3608 -0.1024 -0.1931
26121W        W42382  15.640   2.553  11.739 -0.2710  0.1328  0.0924
26122W        W42383   4.105  15.392  13.450  0.3976  0.1097 -0.1146
26123W        W42384  12.380   0.731   4.116  0.0252 -0.3307  0.1189
26124W        W42385   6.312  15.462   3.149  0.0116 -0.2447 -0.0525
26125W        W42386   2.907   2.104   2.717  0.0937  0.2290 -0.1968
26126W        W42387   7.729  15.970  15.420 -0.1953 -0.2107  0.1064
26127W        W42388   7.240  14.867  12.033  0.0025  0.0703 -0.3070
26128W        W42389  12.038  16.577  12.426  0.0315  0.2001  0.0216
26129W        W42390   2.156   8.700  15.242  0.2352  0.0006 -0.0377
26130W        W42391  11.886  11.490   2.180  0.1877  0.0442  0.0712
26131W        W42392   8.839  10.718   4.244 -0.0228  0.2016  0.1477
26132W        W42393  12.818  14.328   1.924  0.2436 -0.0696  0.0560
26133W        W42394  13.108  11.233  12.121 -0.1435 -0.1780 -0.0042
26134W        W42395  17.531   6.845  14.014  0.0520  0.0925  0.2130
26135W        W42396  10.339   5.431  12.634  0.0164  0.0766 -0.0675
26136W        W42397   2.365  13.678  15.335 -0.0946 -0.0223 -0.0917
26137W        W42398   6.720   8.465  11.205 -0.1251 -0.1600 -0.2810
26138W        W42399  10.365   7.184   4.360 -0.1608 -0.1196  0.1481
26139W        W42400   6.593  12.400   1.015 -0.0405  0.1328  0.0412
26140W        W42401   9.405   1.854  11.743 -0.0769 -0.1697  0.2727
26141W        W42402  10.533  15.129   0.531  0.4372 -0.1700  0.2629
26142W        W42403   4.273   7.278  12.101  0.0360  0.0527  0.1101
26143W        W42404   0.759   4.144  12.182  0.2695 -0.2881 -0.0918
26144W        W42405   4.607   3.843   4.347  0.1028  0.1405  0.2970
26145W        W42406   2.855  11.318   1.233  0.0729 -0.1692 -0.1963
26146W        W42407   3.838  17.184  14.706  0.2423  0.3569  0.1559
26147W        W42408   1.971  13.389   3.296 -0.0772 -0.1042 -0.0928
26148W        W42409   9.703   9.351   0.390  0.3105 -0.1240 -0.2199
26149W        W42410   7.967  15.770  11.590  0.1256 -0.2432  0.0658
26150W        W42411  12.427   5.768   2.405  0.0031  0.1336 -0.1507
26151W        W42412  11.945  12.176   0.220  0.1457  0.1761 -0.3041
26152W        W42413  11.189   8.375  16.237 -0.1977 -0.0291 -0.1820
26153W        W42414  15.577   8.641   5.292  0.0260  0.0265 -0.0066
26154W        W42415   0.706   6.252   1.842 -0.0037 -0.0463  0.0627
26155W        W42416   2.217  13.318   2.866  0.0221 -0.1357  0.0311
26156W        W42417  17.358  13.659  11.350  0.0010 -0.1632  0.1024
26157W        W42418  14.540   9.709  14.278  0.0970  0.0992 -0.0909
26158W        W42419   7.251   4.131   1.948 -0.3541 -0.1081  0.2803
26159W        W42420  10.436  17.007   1.437  0.0195  0.0550  0.0408
26160W        W42421  15.308  15.563   5.468 -0.2406  0.0647  0.1766
26161W        W42422   1.499  13.672  12.709 -0.0969  0.0446  0.0785
26162W        W42423  10.627  15.837  15.780  0.2294 -0.0165  0.0535
26163W        W42424   3.887  10.604  14.751 -0.2601 -0.0247  0.0287
26164W        W42425   7.597   4.716  15.694 -0.0019 -0.0473 -0.1632
26165W        W42426   2.900   7.643   2.214 -0.0408  0.0372  0.0468
26166W        W42427  16.939   9.114   4.312  0.1989  0.2797 -0.1000
26167W        W42428   8.389   1.505   2.328  0.2639  0.2364  0.0883
26168W        W42429  13.380   0.984   5.365 -0.1078  0.1556 -0.1094
26169W        W42430  15.622   6.919  15.073  0.0986 -0.2231 -0.0805
26170W        W42431   5.423   0.842   1.549 -0.1623  0.0967 -0.1490
26171W        W42432   6.599  18.097   0.423 -0.0775 -0.2201 -0.1674
26172W        W42433  15.798   2.737   4.693 -0.3655  0.3596 -0.1065
26173W        W42434   3.172   3.362  13.618  0.2095  0.0803 -0.2889
26174W        W42435   6.893  11.144  11.517 -0.5305  0.3230  0.2229
26175W        W42436   3.069  14.540   0.294  0.0470  0.0322  0.1614
26176W        W42437   8.466  17.471   0.817 -0.0828  0.0894  0.1942
26177W        W42438  13.810  12.028  14.707 -0.2652 -0.1554  0.3698
26178W        W42439   6.495   2.231  13.766 -0.2637  0.0543  0.1093
26179W        W42440  13.944   1.485   0.446 -0.1029 -0.0695  0.4627
26180W        W42441  14.070   4.092   2.850 -0.0319  0.0454  0.1944
26181W        W42442   7.658   5.558  13.320 -0.2752 -0.1541 -0.1815
26182W        W42443   5.177   9.209  13.425  0.1058  0.0310  0.0948
26183W        W42444   9.467  13.383   2.419 -0.1240  0.1223  0.4106
26184W        W42445   5.574   5.641   1.152 -0.0880 -0.0695 -0.0196
26185W        W42446  10.171  12.699  12.597  0.1089 -0.1442 -0.0914
26186W        W42447  12.983   6.739  13.266  0.0849  0.2505  0.1338
26187W        W42448  10.285  16.630  15.432 -0.1220 -0.1314 -0.2094
26188W        W42449   2.260  16.132   3.450  0.1472 -0.0134 -0.1798
26189W        W42450   2.109   0.097  14.893 -0.0182 -0.1073  0.0480
26190W        W42451  15.258   3.085   1.348 -0.3463 -0.0321 -0.1410
26191W        W42452  14.344  14.773   0.997  0.1355  0.1404 -0.2630
26192W        W42453   8.413   6.838  11.882 -0.0284  0.0969 -0.1231
26193W        W42454   4.292  17.335  14.848  0.0555 -0.2402 -0.2081
26194W        W42455   1.712   3.962   3.317 -0.1650 -0.0415 -0.1566
26195W        W42456   9.745   4.876  11.329  0.1441 -0.2672  0.1629
26196W        W42457   2.992   1.270   1.983  0.1538  0.0528  0.0956
26197W        W42458   1.319  17.244   3.677 -0.2807  0.1489  0.1253
26198W        W42459   5.911   8.377   3.458  0.0384 -0.0273  0.3513
26199W        W42460  13.866  18.164   3.552 -0.0129  0.0882 -0.2630
26200W        W42461   7.282  11.670  13.553  0.3088  0.0948 -0.0619
26201W        W42462   0.655  15.507   4.055 -0.2881  0.1751 -0.1152
26202W        W42463  17.990   2.126  16.266 -0.0650  0.0088 -0.0717
26203W        W42464  17.480   1.114  14.147 -0.0619 -0.0234  0.0297
26204W        W42465   4.062   7.702   1.614 -0.0876  0.0610  0.4878
26205W        W42466   8.180   9.243   1.396  0.0229 -0.2933 -0.2587
26206W        W42467   1.229  15.615   2.413 -0.2127  0.1276  0.4689
26207W        W42468   9.002  12.856   2.774  0.4047  0.1538  0.2960
26208W        W42469   9.206  11.070   2.169  0.1545  0.1574 -0.2463
26209W        W42470  17.377   7.017  12.859 -0.1370  0.0414 -0.0592
26210W        W42471   3.773   9.338   5.841 -0.1171  0.3339 -0.0235
26211W        W42472  12.717   6.157  14.442  0.0354 -0.2865  0.4387
26212W        W42473   1.243   9.046  13.853 -0.1059  0.0287  0.3955
26213W        W42474  11.085  11.906  15.521 -0.0456  0.0704 -0.2018
26214W        W42475  14.925   7.706  15.868 -0.1026  0.2389 -0.1848
26215W        W42476  15.717   8.160  12.028  0.1693 -0.1931 -0.3503
26216W        W42477   9.699  17.382  12.229  0.2839 -0.0980  0.1728
26217W        W42478  10.118  15.118  13.704 -0.1982 -0.4258 -0.3696
26218W        W42479  18.180  17.896   0.913 -0.0129  0.0588 -0.0443
26219W        W42480   7.786   8.908  14.148 -0.0586 -0.0694  0.2377
26220W        W42481  17.323  11.381  12.736 -0.1099  0.2859  0.1291
26221W        W42482   3.136   3.512   5.946  0.2202 -0.0810  0.3016
26222W        W42483  17.318   1.396   0.860 -0.0771  0.1156 -0.2940
26223W        W42484  10.382   7.220   3.269 -0.0404  0.1309 -0.1465
26224W        W42485  13.435   0.249  14.823 -0.1433  0.0504  0.2020
26225W        W42486  16.606   2.995   2.548  0.1868 -0.1289 -0.0762
26226W        W42487   7.759  15.032  11.155 -0.0299  0.0822  0.1358
26227W        W42488  13.676  12.386  12.859  0.1029 -0.1577 -0.0152
26228W        W42489   1.187  15.392   4.077  0.0241  0.0136  0.1599
26229W        W42490   3.110   6.677  14.540  0.1090 -0.0321  0.1429
26230W        W42491   4.660   5.569  15.512  0.1773 -0.2027  0.0103
26231W        W42492   2.053   2.725   2.873  0.0007 -0.1595 -0.0377
26232W        W42493  16.262   8.838   4.806 -0.0966 -0.0436  0.0237
26233W        W42494  13.525  16.311   4.121 -0.1730 -0.0125  0.1775
26234W        W42495  15.835  13.591  13.730  0.0446  0.0300 -0.1188
26235W        W42496   8.819  13.941  11.720  0.2257 -0.2371 -0.1083
26236W        W42497   0.806   5.509   1.230  0.5385  0.0121 -0.0217
26237W        W42498   6.609   8.452  14.555  0.1895 -0.1311  0.0600
26238W        W42499   1.987   2.229   5.705 -0.1970 -0.0412  0.2686
26239W        W42500   1.558   8.701   1.857  0.2719 -0.0980  0.0903
26240W        W42501   0.673   4.763  12.744 -0.2766 -0.0334 -0.1883
26241W        W42502  16.134   5.469   2.630  0.1900  0.2274  0.3641
26242W        W42503  11.090   6.658  11.238  0.0446 -0.1874 -0.4377
26243W        W42504   3.102  17.827  16.087 -0.1355 -0.0063 -0.0242
26244W        W42505   4.202   1.449  16.234  0.4305 -0.0025  0.2205
26245W        W42506   1.931  13.036   6.074  0.0329 -0.2726 -0.1636
26246W        W42507  11.926   8.872   0.822 -0.3531  0.0577 -0.1101
26247W        W42508  12.543  16.532  14.487 -0.1745  0.1475 -0.1469
26248W        W42509  15.504   8.118  12.539  0.2289  0.0726  0.1127
26249W        W42510   7.505   0.397   4.439 -0.0302 -0.0964 -0.0611
26250W        W42511  17.551   0.563  13.309 -0.0719 -0.1528  0.0107
26251W        W42512   7.991  17.735  14.962  0.1851  0.3162 -0.3984
26252W        W42513   8.223  17.879   5.567  0.1118 -0.0982  0.0310
26253W        W42514   5.399   7.120   2.100  0.0355  0.1098 -0.0462
26254W        W42515   4.927   0.570   3.244 -0.1592  0.1486 -0.4590
26255W        W42516   1.492   7.507  13.432 -0.1371 -0.0555 -0.1927
26256W        W42517   2.900  10.406  14.679  0.2060 -0.0868 -0.2479
26257W        W42518   8.822  17.349  15.911 -0.0580 -0.4118 -0.0679
26258W        W42519  11.487   4.031   4.522  0.3943 -0.3764  0.1212
26259W        W42520  17.057  10.045  14.373  0.1341 -0.0347 -0.2732
26260W        W42521  15.075   0.589   3.391  0.0223  0.1573 -0.0796
26261W        W42522  17.545   0.459   2.889  0.0993 -0.1720 -0.0909
26262W        W42523   0.034  13.732  12.708 -0.2637 -0.1104  0.2232
26263W        W42524  16.274  13.863   1.463 -0.1242  0.1705 -0.0145
26264W        W42525  16.613  10.401  15.823  0.2605 -0.0664 -0.2426
26265W        W42526   8.718   1.368  14.476 -0.2478  0.1484  0.1239
26266W        W42527   2.618  16.315  14.141 -0.2624  0.1778  0.0978
26267W        W42528   2.431   7.562   4.515  0.0732  0.0617 -0.0802
26268W        W42529  10.670  16.753  14.663  0.0362 -0.1031  0.0025
26269W        W42530  15.049  14.245  11.643 -0.0971 -0.4462 -0.0495
26270W        W42531  14.140  18.253  11.796  0.0254  0.1764 -0.2752
26271W        W42532  14.092   0.708   2.776  0.0593 -0.1396 -0.1375
26272W        W42533   9.183  15.500  11.250 -0.3039  0.0389 -0.0568
26273W        W42534   6.510  13.440  15.502 -0.0028  0.0791  0.0498
26274W        W42535   1.024   2.608  13.274  0.1489  0.1249 -0.1515
26275W        W42536  15.666   3.044  14.938 -0.0599  0.1393 -0.1988
26276W        W42537  13.348   2.192  13.754 -0.3540  0.0271 -0.1357
26277W        W42538   0.373  16.049   2.325 -0.0681 -0.0984 -0.2898
26278W        W42539  12.242  16.538  11.483  0.1242  0.1822 -0.1249
26279W        W42540  11.145   0.023   2.500 -0.1313 -0.2266 -0.0539
26280W        W42541  18.138  12.290   0.291  0.1633  0.1974  0.0183
26281W        W42542  16.454   0.125   5.868 -0.2670  0.1184  0.0942
26282W        W42543   0.459   1.389  15.666 -0.3194 -0.0175  0.1596
26283W        W42544  14.017   6.188   4.186 -0.0349  0.1592 -0.0021
26284W        W42545  14.631   5.179   4.629 -0.2186 -0.1205 -0.2976
26285W        W42546   2.929  17.834   0.279 -0.0072  0.0594 -0.3187
26286W        W42547   4.326  12.896  12.730  0.0894  0.1159 -0.0611
26287W        W42548  16.189   3.438   1.966 -0.2555 -0.1398  0.3043
26288W        W42549  17.864   5.185   5.093  0.1146  0.0086  0.0821
26289W        W42550   8.022  18.344  14.028  0.0694 -0.0957 -0.3624
26290W        W42551   7.591   2.349   0.975  0.1239 -0.4755 -0.1192
26291W        W42552  12.920  12.789  15.630  0.1412  0.1556 -0.0646
26292W        W42553   5.132  14.114  14.148 -0.0007  0.3336 -0.0303
26293W        W42554   7.233  12.519  12.484  0.0485 -0.2834 -0.0464
26294W        W42555  14.710  14.749  15.431  0.2571 -0.1695 -0.1691
26295W        W42556   9.944   4.115  13.109 -0.0872 -0.0116  0.0478
26296W        W42557   7.795   6.542   0.056  0.1514  0.2000 -0.3444
26297W        W42558   5.197  12.187   4.871 -0.2866  0.2137 -0.0117
26298W        W42559  13.105   7.049  14.619 -0.1335 -0.0165 -0.0265
26299W        W42560  10.644  17.133   3.116  0.4700 -0.2643  0.0177
26300W        W42561  14.281  18.103  14.211  0.1650  0.2642  0.0176
26301W        W42562  11.406  14.143   3.434  0.0630  0.0426 -0.1772
26302W        W42563  16.890   9.378  14.914  0.0531 -0.1991  0.1732
26303W        W42564   1.943  13.016  14.498  0.0249 -0.0126 -0.4803
26304W        W42565  11.980  17.403   5.105 -0.2632  0.1885  0.1486
26305W        W42566   7.962   1.439   0.839  0.1728  0.1277 -0.0220
26306W        W42567   0.093   3.770   4.044  0.0214  0.3156  0.1893
26307W        W42568  17.217  15.653   0.620  0.0856  0.1660  0.2045
26308W        W42569   0.369  16.377  14.440  0.0943  0.0182 -0.0375
26309W        W42570   9.201  15.313  15.513  0.1806 -0.2110  0.1650
26310W        W42571  17.355   2.659   3.218  0.4786  0.2348 -0.0253
26311W        W42572  18.096  10.578   4.108  0.2131 -0.1436  0.0718
26312W        W42573   8.882   2.091   4.070 -0.0724  0.0185 -0.2187
26313W        W42574  13.698   1.886  13.070  0.1849  0.2130  0.1355
26314W        W42575  13.266   3.397  16.087  0.1799 -0.3706  0.1383
26315W        W42576   8.957   1.017  14.786  0.1434 -0.0986  0.0721
26316W        W42577   0.893  15.858  12.809 -0.1943  0.0368 -0.1283
26317W        W42578   6.595  12.652   1.523 -0.1275 -0.2869 -0.1446
26318W        W42579   4.147  15.931   4.236  0.0399  0.0334 -0.1972
26319W        W42580  13.988   6.480   4.606  0.2040 -0.2682  0.3519
26320W        W42581   5.903   7.668  12.848 -0.1989 -0.1291 -0.1664
26321W        W42582   4.132   6.921   4.954  0.1717  0.3327  0.2958
26322W        W42583  14.762  13.989   0.985  0.3587  0.0520  0.1230
26323W        W42584   0.141  10.220   5.464  0.0982  0.0565 -0.1334
26324W        W42585  11.372  17.831   5.752  0.2651  0.0274 -0.0847
26325W        W42586  13.958  14.663   0.638  0.2298  0.2091 -0.0226
26326W        W42587  10.194   7.076  14.689 -0.1144  0.0176  0.0555
26327W        W42588   1.454  14.156  11.878  0.3038 -0.0606  0.2262
26328W        W42589  12.544  13.186  15.612 -0.0318  0.1609  0.2213
26329W        W42590  16.350   2.019  11.797 -0.0839  0.1207  0.2598
26330W        W42591  10.180  15.571  12.644 -0.0190 -0.1108  0.0879
26331W        W42592   0.385  14.968   0.874  0.1475  0.1954  0.1185
26332W        W42593   4.931   2.638  13.199  0.0225 -0.1679 -0.1231
26333W        W42594  11.780  14.152   4.772 -0.2004  0.0270 -0.3059
26334W        W42595   9.839  11.193  11.731  0.1681  0.1805 -0.2297
26335W        W42596  11.592  12.569  15.290  0.2442  0.0976  0.2154
26336W        W42597   3.684   7.633   0.798 -0.0499  0.1376  0.2755
26337W        W42598   1.705  14.676  12.252 -0.0062  0.1243  0.0178
26338W        W42599  16.922   7.969  11.974 -0.1629  0.0888  0.0790
26339W        W42600  14.880   5.103   4.076  0.0556 -0.0772 -0.1043
26340W        W42601   3.975  12.550   3.308 -0.2157  0.0904  0.0145
26341W        W42602   6.466  11.476   3.365  0.1784 -0.0373 -0.1009
26342W        W42603   3.411   1.011   6.159 -0.0576  0.0368 -0.0540
26343W        W42604   1.177   3.362   3.825  0.1095  0.0982  0.1324
26344W        W42605  12.814   7.318   1.852  0.0309 -0.0772  0.3942
26345W        W42606   4.212  15.416  16.009 -0.2590 -0.2838  0.0753
26346W        W42607  17.731   0.979   3.069  0.0080 -0.0414 -0.0558
26347W        W42608  13.955   5.042  15.574 -0.3024  0.0702  0.1036
26348W        W42609   1.246   7.747   6.153 -0.3840 -0.0459  0.0763
26349W        W42610   8.772   0.210  12.324  0.1351  0.1426 -0.1232
26350W        W42611   5.725   3.833   2.566  0.2514 -0.2878  0.1432
26351W        W42612   9.083   2.159  16.040  0.0858  0.0685  0.2787
26352W        W42613   9.006  11.385   1.520 -0.1029 -0.0046  0.1050
26353W        W42614  13.224   2.481   2.257  0.0122 -0.0182  0.4569
26354W        W42615  12.454  18.245  11.692  0.0520  0.0152 -0.1662
26355W        W42616   9.741   9.914  15.616 -0.0464  0.0259  0.1287
26356W        W42617   2.431  18.367   2.852 -0.0945 -0.3400  0.0362
26357W        W42618   4.081  16.371  11.831  0.1456 -0.2581  0.2622
26358W        W42619  14.834  16.996  14.963  0.0607  0.0962  0.2863
26359W        W42620  16.301  17.336  14.017  0.1135  0.1406  0.3429
26360W        W42621   7.490  10.834  13.926  0.1627 -0.1627  0.1511
26361W        W42622  10.471  18.072   4.156 -0.1424 -0.0520  0.1618
26362W        W42623  12.883  17.681   4.827  0.1957  0.0610 -0.1433
26363W        W42624   0.143  13.826  14.207 -0.0576  0.1249 -0.2209
26364W        W42625  13.701   0.659   2.443  0.1110 -0.2435  0.2080
26365W        W42626   7.826  17.608   4.394  0.1676 -0.0116 -0.2082
26366W        W42627  13.746   4.497   2.893 -0.2186 -0.0841 -0.0431
26367W        W42628  12.921  15.091   0.966 -0.0056 -0.0706 -0.2622
26368W        W42629   1.907   3.406   0.296 -0.1585 -0.0913 -0.0501
26369W        W42630   9.179   1.268  11.896  0.2058 -0.0501 -0.1508
26370W        W42631  17.290   2.582  14.047 -0.0424  0.1722  0.2581
26371W        W42632   4.497  15.670  14.147  0.0334 -0.3170  0.2270
26372W        W42633   5.214   3.565  14.747 -0.2203 -0.2193  0.0308
26373W        W42634  11.337  16.504  11.794  0.0292  0.0143 -0.4005
26374W        W42635   0.859   3.848  12.682  0.2901 -0.5725 -0.1736
26375W        W42636   3.243  18.164   3.328  0.0794 -0.3002 -0.1873
26376W        W42637   1.673   8.756  14.718  0.2034  0.0867 -0.1223
26377W        W42638   4.558  14.350  14.836 -0.0633  0.0031  0.0106
26378W        W42639  10.984   2.805  13.928 -0.0280 -0.0623  0.0038
26379W        W42640   2.844   3.662   4.051 -0.0928  0.0553 -0.1938
26380W        W42641  13.538   8.028  11.509  0.1664 -0.1990  0.2915
26381W        W42642  17.784  13.141   1.616 -0.1904 -0.1778  0.1119
26382W        W42643  16.427   1.519   0.856 -0.1531 -0.2295  0.2409
26383W        W42644  13.339  17.527   4.658  0.1452 -0.2756  0.1946
26384W        W42645  12.775   3.590  13.868 -0.2495  0.2086 -0.0980
26385W        W42646   5.516  12.103  14.625 -0.0689 -0.1788 -0.0853
26386W        W42647   9.778   5.883  15.326 -0.4290 -0.0498 -0.2270
26387W        W42648   4.367  11.447  12.839 -0.1819 -0.3913  0.2165
26388W        W42649   5.644   8.426   1.534  0.0597 -0.0712 -0.1372
26389W        W42650   7.881   7.986  15.401 -0.2145  0.0081  0.1313
26390W        W42651   4.881   8.686  15.534  0.1292  0.0108  0.1264
26391W        W42652   9.871   3.577   0.906  0.0148  0.1232 -0.1544
26392W        W42653  17.636  11.548  11.894 -0.1083 -0.1404  0.1154
26393W        W42654   2.811   1.440  15.318 -0.2783 -0.0550 -0.3079
26394W        W42655   3.399  14.640  14.392 -0.1791  0.3643  0.1680
26395W        W42656  12.630   5.663  11.309 -0.0197  0.0747  0.1828
26396W        W42657  12.964   1.944   1.644  0.0902  0.1782  0.0023
26397W        W42658  10.063   9.049   4.080 -0.0895 -0.3742 -0.1304
26398W        W42659   7.317   9.828   4.548 -0.3793  0.0012  0.1030
26399W        W42660  17.991   7.185   0.489 -0.1915  0.0818  0.3238
26400W        W42661   5.656   5.745  14.039  0.1170 -0.0124  0.1339
26401W        W42662  14.597   0.395  13.017  0.0657  0.1069 -0.2219
26402W        W42663  17.345  16.074   4.106 -0.3165 -0.3744 -0.2537
26403W        W42664   4.878  17.825   5.125 -0.1040 -0.3548  0.0342
26404W        W42665   1.685  18.362   0.691  0.0919 -0.0688 -0.1079
26405W        W42666  15.651  14.897   1.440 -0.0618 -0.0900  0.1995
26406W        W42667   9.288  15.101  14.658 -0.0667 -0.1459 -0.0758
26407W        W42668  12.897   5.580   1.819 -0.2407  0.2456 -0.2434
26408W        W42669  14.208  14.348  15.477 -0.0184 -0.3306  0.0693
26409W        W42670   8.861   9.556  11.978  0.1138  0.0030  0.2353
26410W        W42671  12.112   5.885   1.421 -0.2761  0.0270  0.3978
26411W        W42672  16.444  18.365   0.308 -0.1086 -0.0578 -0.1649
26412W        W42673  15.468   2.220   4.343 -0.0450  0.2709  0.3104
26413W        W42674   3.954  16.122  15.415 -0.1426  0.2605 -0.1399
26414W        W42675   5.157  12.475  14.764 -0.1625 -0.1659 -0.2737
26415W        W42676   5.738  14.110   5.064  0.1174  0.0258 -0.0264
26416W        W42677   2.879  14.869  13.361 -0.0620  0.1060  0.1176
26417W        W42678  10.764  15.106   1.945  0.0926  0.1116 -0.1426
26418W        W42679   1.788   2.533  16.020  0.0998 -0.1095  0.0408
26419W        W42680  11.556   5.992  14.011 -0.0364 -0.1749 -0.1864
26420W        W42681   9.773   6.341   1.246  0.2328 -0.1036 -0.0249
26421W        W42682   7.783   2.693  15.869 -0.2058  0.3072  0.0969
26422W        W42683  12.201   9.931  12.304  0.2702 -0.1191  0.3628
26423W        W42684  15.677   8.183   0.807  0.1524 -0.0091  0.1325
26424W        W42685  12.900   6.185  15.704 -0.2227 -0.0560 -0.2174
26425W        W42686  16.072   3.890  15.212 -0.0052  0.2227  0.0046
26426W        W42687  14.447  12.668   3.099  0.3958  0.2268 -0.2190
26427W        W42688  13.295   9.446  11.268  0.2774  0.0436 -0.1412
26428W        W42689   3.125   8.362  12.278 -0.0700 -0.1492  0.1915
26429W        W42690  13.266  10.892  14.110  0.0209 -0.1605  0.1380
26430W        W42691  17.416  13.067   2.245 -0.1178  0.0580  0.0375
26431W        W42692   5.840   5.915   4.757  0.2818 -0.0885  0.3261
26432W        W42693   8.718   2.820  13.560  0.0407  0.1561 -0.0983
26433W        W42694   1.608   1.592   3.465  0.3102 -0.1372 -0.4809
26434W        W42695  11.836  10.206   0.411  0.1231 -0.1056 -0.0526
26435W        W42696  10.957  16.412   0.219  0.0588 -0.3432  0.0264
26436W        W42697   6.877   9.614  14.908 -0.0425  0.0321  0.4170
26437W        W42698  16.104   6.305  14.650 -0.0399 -0.0247 -0.1935
26438W        W42699   6.886   6.782  12.422  0.0228  0.3604  0.0848
26439W        W42700   1.776   9.122   1.557 -0.0153 -0.0256 -0.1076
26440W        W42701  14.412  10.125  14.683 -0.2331 -0.2533  0.1758
26441W        W42702  11.244  15.419   3.159 -0.0637 -0.1077 -0.0633
26442W        W42703  12.178   4.244   4.912  0.2231  0.1096 -0.2042
26443W        W42704  15.175   6.880   6.278 -0.1048 -0.1357  0.1967
26444W        W42705   9.713  13.777   1.169 -0.1740  0.0237 -0.2517
26445W        W42706  12.712   1.850   2.211  0.1443  0.1191 -0.3192
26446W        W42707   7.724   2.158  14.115  0.0179 -0.3416 -0.0348
26447W        W42708   4.271   5.940  15.628  0.1067 -0.1710 -0.2939
26448W        W42709   6.210   6.674   1.910 -0.2795 -0.0432  0.0424
26449W        W42710   1.857   3.965   1.057 -0.0010 -0.1321 -0.0183
26450W        W42711   5.701  12.395  12.187  0.0370  0.2131  0.0781
26451W        W42712   0.760  16.388   2.381  0.2959  0.3849 -0.2958
26452W        W42713   8.275   0.374  14.943  0.0182 -0.0048 -0.1670
26453W        W42714   2.620  15.778   3.640 -0.0019  0.3379 -0.2036
26454W        W42715   6.754  18.365  13.555  0.2213  0.0524  0.0287
26455W        W42716  10.301  13.992  14.116 -0.1257  0.5285  0.0757
26456W        W42717   7.357   6.235   1.937 -0.1730 -0.1183  0.2260
26457W        W42718  17.145  17.148  13.954 -0.1265  0.0534 -0.0037
26458W        W42719   3.085   8.335   3.754 -0.0416  0.0954  0.2924
26459W        W42720   0.029   4.647   3.918  0.1258 -0.0085 -0.4739
26460W        W42721   5.167   9.061   2.035 -0.2157  0.0877 -0.2928
26461W        W42722   7.067  11.306   4.090  0.0589  0.1772 -0.1983
26462W        W42723   8.613   7.572   2.045  0.2103 -0.2797 -0.6114
26463W        W42724   0.603   2.301  11.988  0.1234 -0.3444  0.3162
26464W        W42725   9.370  18.101   1.661  0.4377  0.0663 -0.0935
26465W        W42726  18.059   7.313  12.747  0.2258  0.2538 -0.1661
26466W        W42727   0.933   4.974  14.020  0.2263  0.2936 -0.0356
26467W        W42728   5.665   4.563   0.930  0.2583  0.2528 -0.0228
26468W        W42729  13.371  13.302  13.538  0.0982  0.3191  0.0539
26469W        W42730   3.620  17.521   5.427 -0.0359  0.1137  0.0271
26470W        W42731  15.729   4.301  11.949  0.2104 -0.0925  0.1852
26471W        W42732   1.684   5.353   1.783  0.1093 -0.2025  0.0550
26472W        W42733  14.053   1.144   2.509  0.2528  0.1657  0.0922
26473W        W42734   2.306   5.175  15.163  0.0645  0.1921  0.3266
26474W        W42735  13.237  18.042   2.316  0.2061  0.1133  0.2017
26475W        W42736  13.810   1.769  14.664 -0.0988 -0.0249  0.3867
26476W        W42737  17.055   2.023   1.665 -0.0888 -0.3661  0.3033
26477W        W42738  10.428   6.093  14.963 -0.3625 -0.0584  0.4110
26478W        W42739   4.370   4.459   3.584 -0.2116  0.1176  0.0335
26479W        W42740  14.886  17.471   0.704  0.4067 -0.0622 -0.2349
26480W        W42741  12.475  10.587   4.044  0.0131 -0.1026 -0.2903
26481W        W42742   6.799  16.970  15.109 -0.0519 -0.0059 -0.0181
26482W        W42743  11.771  11.806   2.593 -0.4245  0.1148 -0.1938
26483W        W42744  13.731   4.710   3.464  0.1427 -0.2031 -0.0913
26484W        W42745  14.966   8.847   4.533  0.2189 -0.1927 -0.6321
26485W        W42746   9.410  12.115   1.181 -0.1211  0.1511 -0.2414
26486W        W42747   0.841  14.314  14.745  0.0339 -0.0593 -0.0841
26487W        W42748   6.168  15.548  12.339  0.0400 -0.0584 -0.1969
26488W        W42749  12.552  11.347   3.590 -0.0501  0.0200  0.0035
26489W        W42750   3.848   8.642   0.676  0.0563 -0.3809  0.0605
26490W        W42751   0.951  16.304   3.609  0.0183 -0.1387 -0.0411
26491W        W42752  16.510   3.455   3.999  0.0234  0.2545  0.2092
26492W        W42753   4.109   0.777   1.389 -0.0046  0.0346  0.0124
26493W        W42754   4.422  14.530   2.393  0.0777 -0.1377 -0.2511
26494W        W42755   8.425   3.426   1.960  0.1383 -0.0195  0.1062
26495W        W42756  16.904   6.915   4.714 -0.0101  0.2917  0.2178
26496W        W42757   1.765  15.271   5.333 -0.1845  0.0078 -0.1056
26497W        W42758  15.934   6.655  13.689  0.0078  0.1306 -0.0741
26498W        W42759   3.326   5.628  13.613 -0.0177  0.0267 -0.0500
26499W        W42760   3.300   9.163   5.729 -0.1914 -0.0043 -0.1416
26500W        W42761   7.369   7.760  12.772  0.0382  0.2958 -0.1614
26501W        W42762   6.625  10.543   0.252  0.0809 -0.1149 -0.1253
26502W        W42763  10.626  18.000  13.502 -0.2574  0.1429  0.0484
26503W        W42764   4.783   6.631  12.494 -0.2907 -0.0056 -0.1141
26504W        W42765   5.538   3.291  14.416 -0.1440 -0.3062  0.1863
26505W        W42766   6.359   4.539  14.656  0.1536  0.1417  0.1710
26506W        W42767  12.074   2.129   0.511  0.1540  0.5201 -0.1578
26507W        W42768   1.186  14.539  12.041  0.2652 -0.0758  0.0013
26508W        W42769  14.317   2.851   1.634 -0.0793  0.2241  0.0380
26509W        W42770   2.761  15.271  16.199 -0.2726  0.0846  0.0545
26510W        W42771  10.877   7.092  13.286 -0.1178 -0.1955  0.0858
26511W        W42772   7.414  10.767  13.132 -0.1397  0.2553  0.0582
26512W        W42773  11.352   1.180   0.466 -0.2256 -0.2055  0.0534
26513W        W42774   5.349   2.113  15.873 -0.4067  0.4775  0.3943
26514W        W42775   1.810  11.268  12.403  0.0807 -0.0404 -0.0744
26515W        W42776  13.092   3.392   1.608  0.3212 -0.2444  0.1412
26516W        W42777   6.610  14.457  15.586 -0.0534 -0.1146 -0.0402
26517W        W42778   0.785  12.811   2.583 -0.0040  0.0560  0.3961
26518W        W42779  16.760   1.263  15.830 -0.2497 -0.0834 -0.1033
26519W        W42780  11.519   1.601  13.724 -0.1049 -0.5191 -0.2373
26520W        W42781   4.610   1.858  11.635 -0.1728 -0.3568  0.0520
26521W        W42782   3.766  13.385  11.679 -0.0132  0.0627  0.0629
26522W        W42783  12.190  12.901   0.419 -0.2791 -0.0118 -0.1521
26523W        W42784   3.478   4.606   3.036 -0.3569  0.0794 -0.2095
26524W        W42785   6.422  11.529   0.704  0.1256 -0.0803  0.0061
26525W        W42786  15.421   1.279   2.230 -0.2579  0.0885  0.1083
26526W        W42787   4.668  14.609  15.926 -0.0444  0.0935 -0.0883
26527W        W42788   3.043   2.956   0.585 -0.4189  0.0051  0.1577
26528W        W42789  14.515   6.438  16.234  0.1641 -0.1816  0.1182
26529W        W42790  13.306   5.094   1.688  0.0298 -0.0538  0.0943
26530W        W42791   0.857  16.066   4.964 -0.0192  0.2367  0.3508
26531W        W42792  12.620   9.626   2.988  0.1593  0.3815 -0.0694
26532W        W42793   4.406   7.949   3.308 -0.1927  0.0127  0.1064
26533W        W42794  11.941   3.466  12.317 -0.0820 -0.3063  0.2847
26534W        W42795   1.197  11.507  12.596 -0.2715  0.0941  0.2975
26535W        W42796   4.759   1.307  13.060  0.0281 -0.2010 -0.3790
26536W        W42797   7.564   9.455  11.654 -0.1026 -0.1671 -0.0338
26537W        W42798   5.388  12.890  12.984  0.1133 -0.0686 -0.0627
26538W        W42799   2.624  16.325  16.186 -0.0565 -0.0322 -0.0874
26539W        W42800  13.181   5.564   4.845 -0.1219 -0.1004  0.0140
26540W        W42801  12.137  16.359  15.732 -0.1494  0.0060 -0.2457
26541W        W42802  14.517  16.766   4.881 -0.0464 -0.1812  0.0885
26542W        W42803  15.251  14.698   5.107  0.0225 -0.0828  0.0227
26543W        W42804   7.444   1.745  14.318 -0.1625  0.3340  0.3021
26544W        W42805   9.733  13.528  12.280 -0.0179  0.0196  0.0577
26545W        W42806  16.587   1.684  16.206 -0.1789 -0.0232  0.0054
26546W        W42807  18.224  14.629   3.775 -0.3407  0.3472  0.0774
26547W        W42808   5.435   4.644   3.970 -0.0324  0.0636  0.1636
26548W        W42809   3.497  13.844   4.015 -0.4136 -0.1434 -0.0278
26549W        W42810  15.493   3.576  11.313  0.0993 -0.0400  0.2895
26550W        W42811  12.270   0.819  11.401 -0.2439 -0.0212 -0.1210
26551W        W42812   1.312  15.248  11.495  0.2858  0.0731 -0.2542
26552W        W42813  12.362   7.070   0.916 -0.2177 -0.0404  0.1729
26553W        W42814  14.873   6.846   1.528 -0.2714  0.0691 -0.0941
26554W        W42815  13.148   2.447  11.615 -0.1054 -0.1047 -0.0773
26555W        W42816  13.846  10.018  12.301 -0.2125  0.1658 -0.2260
26556W        W42817   4.286   4.731   4.822 -0.2024 -0.1497  0.1782
26557W        W42818   3.840  16.377   2.477  0.0241 -0.2676 -0.1114
26558W        W42819   8.436  16.241   0.753 -0.1935 -0.2725 -0.1855
26559W        W42820  10.350   3.693   1.122 -0.0003  0.1972  0.0657
26560W        W42821  15.404   0.484   1.637  0.1311  0.2882  0.2797
26561W        W42822   1.738  13.096   2.858 -0.1604 -0.4088  0.1276
26562W        W42823  17.450   3.429  13.359  0.0188 -0.3162 -0.0169
26563W        W42824  13.200  15.796  11.661  0.2985  0.0414  0.1425
26564W        W42825  12.343   9.180   3.896 -0.1712  0.0481 -0.0392
26565W        W42826  12.263  12.952   2.168  0.3267  0.0602 -0.0218
26566W        W42827   9.806  18.259   3.338 -0.0410  0.0840 -0.0776
26567W        W42828   2.802  11.563   1.786  0.0692 -0.0566  0.0268
26568W        W42829  11.626   2.985  14.764  0.0909  0.1173  0.1808
26569W        W42830   7.515   5.591   3.546  0.2470 -0.0923  0.1020
26570W        W42831   2.460   8.517   1.477 -0.2611 -0.3323 -0.2522
26571W        W42832   7.908   7.485  15.312 -0.2425  0.1105 -0.2554
26572W        W42833  17.249   8.232  15.444 -0.1994  0.2193 -0.1421
26573W        W42834  13.470  15.105   1.948 -0.0947 -0.2603 -0.2273
26574W        W42835  17.880   3.817   1.848 -0.0199  0.1751  0.2577
26575W        W42836   4.560   8.006   2.828 -0.0876 -0.2781  0.0925
26576W        W42837   0.393  12.344   4.504 -0.2110 -0.1392 -0.1373
26577W        W42838   4.588  18.354   1.505 -0.0618 -0.1814 -0.1161
26578W        W42839   3.640   8.139   3.212 -0.1428 -0.2287 -0.0881
26579W        W42840   3.027   4.940  14.211  0.0240  0.0584 -0.1055
26580W        W42841  18.017   1.716   4.200 -0.3745 -0.2690  0.0417
26581W        W42842   0.132  17.372   3.147 -0.1166 -0.1115 -0.1567
26582W        W42843  12.334  11.636  12.125  0.1910  0.0489 -0.2447
26583W        W42844   4.020   8.947   0.175  0.0215 -0.3394  0.0501
26584W        W42845  14.776  11.368  12.191 -0.0511 -0.2214 -0.2925
26585W        W42846  15.358  17.191   0.748  0.0108  0.2770  0.0030
26586W        W42847   6.985   8.378   3.743  0.1449 -0.0636  0.2499
26587W        W42848   5.360  10.046   4.139  0.7261  0.3504 -0.2097
26588W        W42849  16.458   2.525  13.732 -0.0550 -0.1250 -0.1090
26589W        W42850   4.412  13.952   4.741  0.1366 -0.3380 -0.1773
26590W        W42851   0.375   1.060  12.947 -0.2505 -0.0634 -0.0612
26591W        W42852  10.717  16.095  12.414  0.1407  0.0834  0.2392
26592W        W42853   0.653   6.996  15.697 -0.0855 -0.2889 -0.0765
26593W        W42854   7.600   9.818  11.990 -0.1624 -0.1910  0.0997
26594W        W42855  10.934  17.650  14.793  0.0922  0.2036  0.0591
26595W        W42856  17.035   3.062   4.367 -0.2597  0.1112  0.2169
26596W        W42857  10.889   1.953   2.422 -0.0264 -0.2217 -0.0314
26597W        W42858   7.998   2.715   0.028 -0.0319 -0.1141 -0.0769
26598W        W42859   0.298   9.531   6.267 -0.2071  0.1749  0.0180
26599W        W42860  14.752   8.090   3.154  0.2871  0.2559 -0.1096
26600W        W42861   6.628   3.522   4.083  0.1769 -0.0604  0.2585
26601W        W42862   9.918  14.009   3.425 -0.2598 -0.3185 -0.3416
26602W        W42863  13.253  14.361  11.939  0.1218 -0.1511 -0.2903
26603W        W42864  12.076   3.804  15.694  0.0031 -0.1436  0.4890
26604W        W42865   5.228   1.886   3.409  0.1212  0.0627  0.0741
26605W        W42866  14.676   3.642   4.673  0.0466 -0.2130  0.1070
26606W        W42867  13.069   7.724  15.199  0.1707  0.0770 -0.2768
26607W        W42868  12.617  10.559  11.474 -0.0856  0.0429 -0.0862
26608W        W42869   0.710  11.458  12.439  0.1584  0.1529  0.1316
26609W        W42870   8.759   8.092  12.502  0.1847 -0.0181 -0.1611
26610W        W42871   1.178  12.496  12.573 -0.1340 -0.0026 -0.0454
26611W        W42872   2.794   8.130  13.289 -0.2271  0.3417 -0.3060
26612W        W42873   1.701  15.099  11.932 -0.1535  0.0449  0.1308
26613W        W42874  15.804   5.841  15.453  0.0089  0.1786 -0.1465
26614W        W42875  16.666  12.135  12.750  0.0326  0.1616  0.1114
26615W        W42876   9.619   4.787   0.721  0.2921 -0.0771 -0.0457
26616W        W42877  17.542   9.871   0.662 -0.2840  0.0810 -0.2253
26617W        W42878  17.689  10.657   1.019  0.1135  0.0869  0.1201
26618W        W42879   9.140  11.311  12.949 -0.0835 -0.3377 -0.1350
26619W        W42880   2.644   6.216   0.032  0.1185  0.1292  0.0375
26620W        W42881   2.539  17.358   6.249  0.0526 -0.1891  0.2757
26621W        W42882   5.743   9.917  14.369 -0.0734 -0.0677 -0.2493
26622W        W42883  12.087   0.293   3.959  0.0036 -0.0447  0.0569
26623W        W42884  14.119   6.962  12.784 -0.2216  0.2340 -0.0833
26624W        W42885  16.270  14.836   5.241  0.0139 -0.4190  0.5178
26625W        W42886  13.273   0.292  11.792 -0.0958 -0.1262  0.2009
26626W        W42887   6.005   6.661  12.146 -0.2487 -0.0802 -0.1077
26627W        W42888  11.173  12.856   1.298  0.0453  0.0753 -0.2486
26628W        W42889   4.569  14.138  16.123 -0.0845  0.0227  0.3303
26629W        W42890  15.324  14.106   1.744  0.1271 -0.2043 -0.1314
26630W        W42891   1.695   6.965  12.555  0.2534  0.0942 -0.1104
26631W        W42892   9.263  18.088  16.061  0.0614  0.0075  0.0676
26632W        W42893   6.773  15.952   2.122  0.0295 -0.3402 -0.2198
26633W        W42894  10.210  17.369   3.415 -0.0797 -0.0727  0.1441
26634W        W42895   1.219  13.496   1.463 -0.2691  0.3950  0.1909
26635W        W42896  14.998   9.737  12.883  0.1752 -0.0968  0.3773
26636W        W42897  10.459   8.042  11.322 -0.3210  0.0405 -0.2561
26637W        W42898  16.030   1.531  12.866 -0.1135  0.1767 -0.0784
26638W        W42899  12.063  16.295  13.579  0.0287  0.1302  0.0017
26639W        W42900  18.148   8.570   0.682 -0.2475  0.0619 -0.2900
26640W        W42901   6.206  11.838   2.556 -0.1052  0.1104 -0.0158
26641W        W42902   5.566  14.773   3.286  0.0384 -0.1810  0.0622
26642W        W42903  15.676   1.680   4.132 -0.1832  0.0914  0.0869
26643W        W42904  15.244  17.854   3.381  0.0436  0.1187  0.1132
26644W        W42905   6.890   9.632  10.253 -0.1602  0.2050  0.0198
26645W        W42906   7.342  11.018   1.926  0.1326 -0.1030 -0.3474
26646W        W42907  14.207   7.240  11.753  0.3870  0.0802 -0.1165
26647W        W42908  10.600   6.731  16.012 -0.0267 -0.2198  0.0614
26648W        W42909   3.024   3.856  11.873  0.0885 -0.2000  0.2670
26649W        W42910   0.592  17.651   0.516  0.1578  0.0855 -0.3998
26650W        W42911  15.275  17.786   3.865 -0.1529 -0.0278  0.2379
26651W        W42912   0.632  18.114   4.297  0.1527  0.0897  0.0518
26652W        W42913  18.280  11.199   1.478  0.2471  0.1676 -0.1084
26653W        W42914  10.009   5.510   2.532  0.1068  0.0591 -0.0674
26654W        W42915   5.262  13.684   3.545 -0.1748  0.2832  0.2440
26655W        W42916   2.324  10.293   1.818 -0.1624 -0.1669 -0.0470
26656W        W42917   6.490   1.291  11.412  0.2912 -0.0066 -0.2350
26657W        W42918   6.930   9.090   5.640  0.0653 -0.1016  0.1451
26658W        W42919  18.335   1.979   1.379  0.1787  0.0639  0.0262
26659W        W42920  13.831   6.006  13.838  0.2761 -0.0965 -0.2344
26660W        W42921  13.141  16.655   3.215  0.1406 -0.5354  0.0822
26661W        W42922   7.861   0.577  15.498 -0.1480  0.1260  0.1728
26662W        W42923   8.387  16.648   1.350 -0.1433  0.3333 -0.0573
26663W        W42924   5.816  16.189   2.685 -0.1584 -0.2523  0.2079
26664W        W42925   8.732   9.376  12.421 -0.2041  0.0943  0.0670
26665W        W42926   7.123  16.470   2.864 -0.1842  0.1027  0.2399
26666W        W42927   7.053   5.836  12.404 -0.1115  0.0528  0.3316
26667W        W42928  10.577   3.702   4.792  0.1558  0.1457 -0.1646
26668W        W42929   0.180   9.111  12.613 -0.4707 -0.0354 -0.1773
26669W        W42930   6.722   9.837  14.270  0.0680 -0.1052 -0.2408
26670W        W42931  14.811   1.957   4.934  0.2790 -0.2091 -0.4182
26671W        W42932  11.825  10.780   0.254 -0.1673 -0.2448 -0.0980
26672W        W42933  17.576  10.623   0.148  0.1567 -0.0619  0.2917
26673W        W42934  13.623   6.100   3.424  0.2349 -0.1691 -0.2843
26674W        W42935   0.602   6.557  15.532 -0.0883 -0.1079 -0.1063
26675W        W42936   9.190   6.940   1.964 -0.2077 -0.1043 -0.0551
26676W        W42937   1.859   8.754  15.645  0.0476 -0.0345 -0.1868
26677W        W42938  14.561  13.798   2.170  0.1862 -0.1552  0.0205
26678W        W42939  10.287   4.397  12.860  0.0692 -0.0084  0.0953
26679W        W42940   6.096   4.523   5.328  0.2580 -0.0297  0.1355
26680W        W42941  12.459   3.805  14.307 -0.3982 -0.3054 -0.0348
26681W        W42942  14.739   8.718  15.640 -0.0914  0.1199  0.1971
26682W        W42943   4.920  16.625   2.834 -0.3714  0.1125 -0.2331
26683W        W42944   2.643  14.679  12.356  0.1896 -0.1986  0.0046
26684W        W42945   4.204  17.806   3.481 -0.1251 -0.1885  0.1695
26685W        W42946   5.009  16.347  15.162 -0.0630  0.1495  0.1492
26686W        W42947  13.100   4.115  15.795 -0.0785 -0.0046 -0.3252
26687W        W42948  10.048   8.094  16.146 -0.0095 -0.0504 -0.0108
26688W        W42949  10.323  13.504   4.401 -0.0305 -0.5352  0.1189
26689W        W42950   2.638   3.100  12.847 -0.0636  0.2060 -0.0993
26690W        W42951   8.134  17.020   1.730  0.1581  0.4401 -0.1671
26691W        W42952  12.986   4.400   5.092 -0.2065  0.1487  0.3172
26692W        W42953  14.562  15.624  11.422  0.0485 -0.5230 -0.1438
26693W        W42954  12.295  10.876   6.065 -0.0352 -0.0272  0.1698
26694W        W42955   5.248   1.177  15.846 -0.4821 -0.4429  0.1117
26695W        W42956   0.773   1.686   5.278 -0.0713 -0.0930 -0.4118
26696W        W42957   9.669   9.838   2.937  0.0015  0.3104  0.2022
26697W        W42958   3.144  14.194  12.284  0.3125 -0.0977 -0.2379
26698W        W42959  15.216  14.011  13.148  0.3257  0.0422  0.3040
26699W        W42960   8.928  14.382  16.260  0.0907 -0.2712  0.0521
26700W        W42961  14.039  11.259   5.566 -0.2399 -0.0860  0.0221
26701W        W42962  14.560   7.581  14.555 -0.0317  0.1207 -0.1581
26702W        W42963   8.066   2.238  11.972 -0.2942 -0.0988  0.1486
26703W        W42964   7.060   4.356   4.055  0.0844 -0.1028  0.1730
26704W        W42965   2.630   6.240  13.650 -0.5978 -0.0877  0.0189
26705W        W42966   6.280   6.853  13.488  0.0746 -0.0818 -0.2475
26706W        W42967  17.190  12.869   0.009 -0.2096 -0.0108  0.1102
26707W        W42968   0.257   4.954  15.259 -0.1768 -0.3298 -0.2587
26708W        W42969  12.741  12.676   2.038 -0.0316 -0.3059 -0.3123
26709W        W42970  11.257   0.806   1.948  0.0484 -0.2777  0.3720
26710W        W42971   5.631  17.446   2.844 -0.2526  0.1284 -0.6077
26711W        W42972   1.498  17.923   5.848  0.1127  0.0867  0.2664
26712W        W42973   5.171  12.832   0.498 -0.3692 -0.1325  0.4048
26713W        W42974   8.173   6.553   1.949  0.2227 -0.1080  0.1052
26714W        W42975   7.364  13.832  15.817  0.1580  0.0258 -0.0416
26715W        W42976   1.353  16.271   3.846  0.0236  0.0764 -0.2865
26716W        W42977   9.859  13.568   2.104  0.0554 -0.1662 -0.1294
26717W        W42978   7.225  15.492   1.156  0.0211  0.2329 -0.2442
26718W        W42979  17.129   5.466   2.210  0.2900  0.0173 -0.0199
26719W        W42980   6.008   6.648  14.908 -0.3348  0.1077  0.4164
26720W        W42981   7.782  10.799   1.796 -0.2670 -0.1198  0.1825
26721W        W42982  13.432   4.879  12.092 -0.1131 -0.3874 -0.1330
26722W        W42983   9.307  10.629  12.412  0.1181 -0.0782 -0.1502
26723W        W42984  16.411   1.564  14.122  0.0222  0.0894  0.2710
26724W        W42985  12.782  15.977  12.097  0.0094  0.1655  0.2562
26725W        W42986   8.180  13.380   1.376  0.2182 -0.1984  0.1229
26726W        W42987  17.509   7.186   2.277 -0.0204  0.3031  0.0988
26727W        W42988  12.447   8.294   1.248  0.0888  0.3296 -0.2658
26728W        W42989  13.871   9.033  15.416 -0.0835 -0.0362  0.0290
26729W        W42990  10.453  12.540   0.929 -0.0503  0.4119 -0.0732
26730W        W42991   6.212   2.702   0.775  0.2140 -0.0179 -0.2611
26731W        W42992  11.328   1.442   5.081 -0.1527  0.0017 -0.1614
26732W        W42993  12.753   4.731   1.126  0.0239 -0.0234  0.0228
26733W        W42994   2.937   9.980   0.948  0.0784  0.0447 -0.0517
26734W        W42995  15.563   9.057   4.465 -0.2049  0.2666 -0.0976
26735W        W42996   3.475   1.501  12.415 -0.1059  0.0899  0.0301
26736W        W42997  11.882   3.957  12.862  0.3149 -0.1553  0.1749
26737W        W42998  12.954  18.355   4.325  0.0457 -0.0481  0.0758
26738W        W42999   3.278   5.964  15.292 -0.0075 -0.2458 -0.1391
26739W        W43000  13.218   3.949   5.179 -0.1939  0.2300 -0.0549
26740W        W43001  16.182   5.206  11.127 -0.0628 -0.2542 -0.3274
26741W        W43002   2.263  11.166  10.036  0.0564 -0.0075 -0.1236
26742W        W43003  15.371  18.256  15.250  0.1368 -0.0690 -0.3399
26743W        W43004   9.693   5.861  12.030 -0.4719 -0.1010 -0.0318
26744W        W43005   7.586   8.291   0.995 -0.0385 -0.3142  0.2010
26745W        W43006   3.693   2.965   2.263  0.2940  0.1911 -0.0059
26746W        W43007  10.665  18.258   0.030 -0.2164 -0.0794 -0.0914
26747W        W43008  10.389  11.005  13.777 -0.0715  0.3342 -0.3267
26748W        W43009  13.021  13.195  15.305 -0.1890  0.2649  0.1617
26749W        W43010   1.979   8.869  16.096  0.1285 -0.1447  0.1400
26750W        W43011  10.994   3.995  15.043  0.0290  0.1850  0.3994
26751W        W43012  18.198   5.988  15.285  0.3332 -0.1942 -0.1958
26752W        W43013  17.015   6.523   0.544  0.2803 -0.2059 -0.1301
26753W        W43014  10.581  11.981   4.288 -0.2165  0.2738 -0.0413
26754W        W43015   6.892   7.744   5.611 -0.1148 -0.0794  0.1642
26755W        W43016   7.716   1.867   4.918 -0.0795  0.1787 -0.0107
26756W        W43017  13.837  18.046   1.519 -0.1140 -0.0072 -0.1864
26757W        W43018  14.012   2.650   4.913  0.3694  0.1183  0.0969
26758W        W43019  17.015  15.099   2.545 -0.0760 -0.1526  0.0828
26759W        W43020   8.562  15.946  13.736  0.2025 -0.2060  0.1311
26760W        W43021   3.292   5.317  12.706 -0.0926 -0.0439 -0.1235
26761W        W43022   2.580  15.696  14.801 -0.1312  0.3694  0.0383
26762W        W43023  14.101   3.279  12.715  0.2847 -0.1293  0.1544
26763W        W43024  15.444  12.892  13.798  0.2271 -0.1199  0.2874
26764W        W43025   8.249   0.351  15.798 -0.2488 -0.2706  0.4232
26765W        W43026  13.282  18.127  11.948 -0.2958  0.1714 -0.1595
26766W        W43027   0.601  17.259  13.828 -0.2352  0.1291  0.3177
26767W        W43028   0.390  16.291   0.899 -0.2318 -0.0313 -0.0308
26768W        W43029   7.092   8.396  15.526  0.1614  0.1633  0.1653
26769W        W43030  15.744  11.002  16.047  0.2071 -0.0197  0.2222
26770W        W43031  16.075   8.773   1.535 -0.1533  0.0192  0.1537
26771W        W43032  11.410   3.275   0.170  0.0268 -0.1993  0.3325
26772W        W43033   4.763  10.076   1.151 -0.1417  0.0020 -0.0073
26773W        W43034   0.207   0.887  11.612 -0.1791 -0.0685 -0.0852
26774W        W43035  14.428   5.246   5.325  0.0130 -0.0677  0.1360
26775W        W43036   9.324  15.047  11.058  0.1141  0.2596 -0.0098
26776W        W43037   0.451   0.985   5.064 -0.2285 -0.2770 -0.0085
26777W        W43038  15.005  10.906   1.849 -0.1557  0.0442  0.1006
26778W        W43039   8.342   1.913   1.226 -0.1791  0.0334 -0.0329
26779W        W43040   3.654   7.417  13.376 -0.1505 -0.0188  0.3988
26780W        W43041  15.165   3.961   5.901 -0.1901  0.3142  0.0720
26781W        W43042   4.198   9.272  14.592 -0.0150  0.1101  0.2610
26782W        W43043   7.465   7.199   1.863  0.3782  0.0451 -0.2724
26783W        W43044   2.215  18.302   0.598  0.0607 -0.1225 -0.2315
26784W        W43045   2.309  13.837  12.044 -0.2789  0.0529  0.1660
26785W        W43046  12.171  16.453   0.293 -0.1696  0.0592  0.1983
26786W        W43047   7.132  17.230   2.319 -0.0697  0.2803 -0.3225
26787W        W43048   6.076  15.703   2.608 -0.0948 -0.1954 -0.3464
26788W        W43049  12.972   5.623  11.693 -0.2771  0.0391 -0.2274
26789W        W43050  17.488  16.510  11.577  0.0261  0.0898 -0.1563
26790W        W43051  16.134   4.462   0.243  0.2428 -0.1843 -0.1583
26791W        W43052  16.197   0.688   6.528  0.0549 -0.3359  0.0850
26792W        W43053   2.739   5.889  14.130 -0.1556  0.0019 -0.0628
26793W        W43054   2.525   1.074   2.105 -0.2151  0.0686 -0.2399
26794W        W43055   0.768  16.610   1.495 -0.0018  0.2996  0.0210
26795W        W43056  13.899  13.566  11.700  0.0932  0.1975 -0.1127
26796W        W43057   1.407   6.307  13.834  0.2275  0.0801 -0.3850
26797W        W43058  15.247   3.597   2.087  0.0776 -0.2351  0.0066
26798W        W43059  14.983  11.801  13.583  0.1801 -0.0118 -0.1998
26799W        W43060  17.578   8.124  13.808  0.2142  0.2244  0.0467
26800W        W43061  14.766  12.788  11.215 -0.2019 -0.1677  0.0203
26801W        W43062  15.749   4.451  13.972 -0.0239  0.2152  0.4674
26802W        W43063   0.897  15.998  16.221 -0.2228 -0.1299  0.1211
26803W        W43064  15.566  10.631  12.423 -0.0534 -0.0097  0.3215
26804W        W43065  15.566   9.174  13.687  0.0429 -0.0525 -0.0227
26805W        W43066   6.814  16.237  11.315  0.0260  0.1145 -0.1043
26806W        W43067   3.976   1.820  12.242  0.0214 -0.0201 -0.0105
26807W        W43068   2.680   2.687   4.440 -0.0068  0.0271 -0.2856
26808W        W43069   9.179   1.932   2.231  0.3450 -0.1365  0.1094
26809W        W43070  17.221  17.365   1.943  0.0694  0.2245  0.0393
26810W        W43071   6.091  16.060  13.672  0.1696  0.1248  0.0484
26811W        W43072   1.629  10.402  13.795 -0.1620 -0.3267 -0.2800
26812W        W43073   6.076   4.169  15.888  0.0313  0.1137 -0.4149
26813W        W43074   8.740   8.735   5.227 -0.0012 -0.2010  0.1536
26814W        W43075  18.318  12.070   4.839  0.2553  0.2655  0.3147
26815W        W43076   6.533   0.821  16.295  0.0132 -0.1692  0.1405
26816W        W43077   8.699   5.853  14.097  0.1765  0.0841  0.0911
26817W        W43078   8.388  17.587  15.822 -0.1517 -0.0085  0.0699
26818W        W43079   0.682  17.403  14.373  0.1874 -0.0881  0.3818
26819W        W43080  16.029  10.023   2.788 -0.0534  0.2281 -0.0393
26820W        W43081   7.791  12.721   2.180  0.0450  0.0853  0.1497
26821W        W43082   9.944   9.478  15.091  0.1076 -0.0671  0.0969
26822W        W43083  12.281  11.501  14.395 -0.0715  0.1065 -0.4443
26823W        W43084  14.807   1.980   5.869  0.0817  0.2837 -0.1651
26824W        W43085   8.206   3.736   4.156  0.0417 -0.0232  0.2749
26825W        W43086   4.586   5.780   1.806 -0.2380 -0.1894 -0.1650
26826W        W43087   0.375  13.602  13.700  0.3494 -0.1436 -0.1897
26827W        W43088  11.743   8.734  14.388  0.2480  0.3772 -0.1954
26828W        W43089  18.163   1.595   6.351 -0.0408  0.0396 -0.2280
26829W        W43090   6.756  12.983  13.146 -0.1725 -0.0604 -0.2815
26830W        W43091  12.218   8.740   5.972 -0.0682  0.0225 -0.1612
26831W        W43092   5.551  12.729  11.462 -0.0570 -0.1933 -0.0457
26832W        W43093   3.984   0.831   3.928  0.2147 -0.1814 -0.3499
26833W        W43094   6.988  16.028   2.956  0.2223  0.1194  0.0395
26834W        W43095   7.220   8.214  12.526  0.1365  0.5507  0.2209
26835W        W43096  13.225   5.087   4.589  0.0640  0.2753  0.0039
26836W        W43097  16.223  14.890   1.192 -0.2593 -0.0625 -0.0802
26837W        W43098  12.413  16.120  11.185 -0.1258 -0.0763 -0.0590
26838W        W43099  13.996  13.397  12.161  0.1661 -0.1013  0.0478
26839W        W43100   4.622  15.453  13.475  0.1952 -0.3081 -0.3851
26840W        W43101  14.845  13.507   0.807  0.2936  0.1915  0.0981
26841W        W43102  11.433   7.482   3.301 -0.2101  0.3298 -0.1459
26842W        W43103   8.992   3.606   4.556  0.0260 -0.0100 -0.1003
26843W        W43104   1.979   3.761   5.908 -0.1483 -0.2089  0.2143
26844W        W43105  18.160   3.781   0.962 -0.3327 -0.2514  0.0686
26845W        W43106   3.733  13.965   2.010  0.0296  0.3698 -0.0610
26846W        W43107   8.929   5.297   3.459 -0.1938 -0.0569  0.2568
26847W        W43108   7.451  13.985  13.711 -0.5553 -0.0875  0.2902
26848W        W43109   2.550  16.958   0.238  0.0394  0.1464 -0.0053
26849W        W43110  15.836   7.908   2.486  0.4751  0.3223 -0.1502
26850W        W43111  15.502   4.675   4.204 -0.2907 -0.0904 -0.1131
26851W        W43112  17.757   4.617  15.636  0.0750  0.0174 -0.0298
26852W        W43113   3.830   6.028   2.900 -0.0683 -0.0379  0.0663
26853W        W43114   0.389   4.331  14.548 -0.0595  0.1962  0.1484
26854W        W43115   2.672   0.448   5.690 -0.2706 -0.2376  0.0613
26855W        W43116  12.900   9.068   0.101  0.1584 -0.1328 -0.1379
26856W        W43117  15.894  10.737  14.864 -0.0185 -0.0432  0.1827
26857W        W43118  11.423  14.746   4.728  0.1019 -0.0826 -0.3594
26858W        W43119   0.680  12.819  11.529 -0.4244 -0.1371 -0.1203
26859W        W43120  13.347  17.031  14.693 -0.0655  0.1213 -0.0860
26860W        W43121   1.217  12.115  15.569 -0.0015  0.0280  0.1273
26861W        W43122   7.745  18.202   4.539 -0.0737 -0.0609  0.1638
26862W        W43123   4.427   7.173   2.314  0.0230  0.0382 -0.2063
26863W        W43124   5.587   2.066  12.231 -0.1816  0.0400 -0.0683
26864W        W43125   6.444  13.029   4.661 -0.2718 -0.0960  0.0202
26865W        W43126  10.666  17.349  15.137  0.2310 -0.0588  0.0970
26866W        W43127   1.365  18.388   4.675 -0.0305  0.1191  0.2772
26867W        W43128   9.748   4.093   2.405 -0.0687 -0.0250 -0.0696
26868W        W43129   4.936  10.251   2.959 -0.1198 -0.0324  0.2092
26869W        W43130  13.691   5.719   2.961  0.0061 -0.1120 -0.3636
26870W        W43131   2.831  12.028  13.699  0.0057 -0.1577 -0.0055
26871W        W43132  14.269   4.803   4.935  0.0740 -0.0051  0.1311
26872W        W43133   7.845  16.217   4.565 -0.0744 -0.1548 -0.0997
26873W        W43134   4.547   0.968   1.549 -0.1205 -0.0613 -0.0689
26874W        W43135   8.098   4.058  13.178  0.0013  0.0424  0.0052
26875W        W43136  11.583   0.937  15.018  0.3616 -0.2762 -0.2754
26876W        W43137   6.345  14.452  11.546  0.1087  0.1848 -0.1259
26877W        W43138   9.197  12.921   2.342 -0.2590  0.0066 -0.0804
26878W        W43139   8.172   4.131   2.884  0.0132 -0.3090  0.0928
26879W        W43140  11.924   7.824  10.857 -0.3166 -0.1286  0.0848
26880W        W43141   2.950  10.409   5.166  0.0156 -0.2477 -0.0160
26881W        W43142   2.822  12.951   3.971 -0.0794  0.2101 -0.1065
26882W        W43143   5.852   3.904  14.317 -0.1429 -0.3718 -0.4440
26883W        W43144   7.611   4.901  11.540  0.0724  0.0408 -0.0291
26884W        W43145   1.773   5.455  15.752  0.1041 -0.1506  0.0700
26885W        W43146  12.522  17.322   1.654  0.0588  0.0685  0.0734
26886W        W43147  12.165  10.813  15.738  0.1102  0.1507 -0.1032
26887W        W43148   0.549   0.140   0.472 -0.1337  0.1232 -0.0987
26888W        W43149   3.920  13.546  15.319 -0.0538 -0.2360 -0.1783
26889W        W43150   8.958  12.339  11.699  0.3011 -0.0227 -0.2401
26890W        W43151   6.425  11.041   1.440  0.5154 -0.0399  0.0994
26891W        W43152  14.214   4.125  12.390  0.3518 -0.2020 -0.1428
26892W        W43153   7.511  16.888   1.467  0.0713 -0.0395  0.0179
26893W        W43154  15.184   0.827  13.772  0.1151 -0.4852 -0.0882
26894W        W43155   2.252  12.056  16.078  0.1533 -0.0299 -0.3469
26895W        W43156   6.325   0.008  12.310  0.2612 -0.0582 -0.2405
26896W        W43157  13.029   8.168   1.269 -0.1896 -0.3362  0.0626
26897W        W43158   5.422   6.189   4.726 -0.0788  0.1221  0.0051
26898W        W43159   8.578  10.230   0.931 -0.1462 -0.1592  0.0750
26899W        W43160  14.748  18.126   1.219 -0.0334 -0.0761  0.1539
26900W        W43161  11.865  13.365   2.362  0.1716  0.0709 -0.0384
26901W        W43162   9.005  15.743  14.976 -0.1899  0.0264  0.3238
26902W        W43163   9.475   9.660   1.203  0.0619  0.3777 -0.2583
26903W        W43164  10.167  15.082  11.201  0.2418  0.2968  0.0693
26904W        W43165  13.852  15.494   0.139  0.0441  0.0995 -0.1561
26905W        W43166  12.169   6.665  15.615 -0.1895 -0.0705 -0.3199
26906W        W43167  15.873   5.202   1.706 -0.0910  0.0411  0.1153
26907W        W43168   9.490  11.601  12.770  0.1365  0.1068 -0.0608
26908W        W43169  13.973  11.438   1.402  0.0999  0.0824  0.0257
26909W        W43170   6.997   4.305  16.122  0.0407 -0.1435  0.0627
26910W        W43171   0.605  18.070   5.440 -0.0085 -0.3435  0.3250
26911W        W43172   3.531  10.645   5.658 -0.0777  0.0348  0.0125
26912W        W43173   0.846   9.758  12.839  0.2005 -0.0797  0.2295
26913W        W43174  17.580   2.748  15.453 -0.2913  0.0293  0.1971
26914W        W43175   6.556  10.659   1.177 -0.2741  0.0938  0.0840
26915W        W43176  13.414  14.754   4.503  0.0010 -0.1577  0.0532
26916W        W43177  17.128   2.670  15.661 -0.0623 -0.2810 -0.1717
26917W        W43178  18.347  13.212  13.674 -0.1136  0.0229  0.2909
26918W        W43179   0.002  10.661   5.684  0.0799 -0.1986  0.1981
26919W        W43180  14.043   2.650   2.862 -0.2977 -0.0452  0.0002
26920W        W43181   5.359   5.269   3.320  0.2392 -0.2607  0.0826
26921W        W43182  15.641  17.299   3.678  0.2398  0.0018  0.1056
26922W        W43183  15.744   6.196   1.376  0.3948 -0.0291  0.0988
26923W        W43184   4.577   9.001   4.274  0.0444 -0.4558 -0.1069
26924W        W43185  16.387  16.215   3.901  0.0335  0.0208 -0.0729
26925W        W43186   5.384  16.233   3.750  0.0537 -0.3598  0.0631
26926W        W43187  12.152  15.284   3.509  0.0594  0.1995 -0.0831
26927W        W43188   2.813   5.352   0.813  0.2230 -0.1100  0.2002
26928W        W43189  16.305   5.123   0.799  0.3791 -0.1524 -0.1247
26929W        W43190   8.911  16.800  15.342  0.0800 -0.1547  0.1815
26930W        W43191   1.678  13.193  15.525  0.0850 -0.0379  0.0592
26931W        W43192  10.217  14.733  15.735  0.0882  0.2459 -0.2813
26932W        W43193  11.065   2.478  16.068  0.2301 -0.0802 -0.1660
26933W        W43194  11.304  12.677   0.173  0.0691 -0.0556  0.3427
26934W        W43195   0.253   2.869   4.003  0.0726  0.0185  0.3780
26935W        W43196   8.216   5.436   2.779 -0.1018 -0.1018  0.2805
26936W        W43197  17.712   7.361   1.861 -0.0899  0.2627 -0.0720
26937W        W43198   6.135   1.125  15.428 -0.1144 -0.1313 -0.1158
26938W        W43199   5.263  14.678  13.980  0.0832  0.0764 -0.0935
26939W        W43200   8.577  14.346   5.818 -0.0306 -0.0694 -0.1193
26940W        W43201  17.205   5.706  12.440 -0.0284  0.0884  0.0658
26941W        W43202  11.672   4.664  12.955  0.0471  0.2624  0.1523
26942W        W43203   2.159   2.785   2.071  0.0950 -0.2206 -0.0511
26943W        W43204   9.864  13.528   4.510  0.1554  0.3100 -0.2666
26944W        W43205   2.974   4.904  15.783  0.1244 -0.0533 -0.0873
26945W        W43206   3.278   3.898   2.815  0.2124  0.3152 -0.0193
26946W        W43207   4.544  17.105  11.089  0.0232 -0.1879  0.0698
26947W        W43208  13.200   2.088  12.415  0.1559  0.3618  0.0441
26948W        W43209   1.670  17.798  14.039 -0.0362  0.1361  0.3805
26949W        W43210   5.969   7.170   1.087 -0.0574  0.1442  0.1803
26950W        W43211   3.805   3.724   3.929 -0.2058 -0.2540  0.0230
26951W        W43212  14.878   9.864  14.572 -0.3224  0.1609 -0.1250
26952W        W43213   6.446   7.081  12.325  0.1595 -0.0919  0.1159
26953W        W43214  12.653  14.034  11.340 -0.1188 -0.2610  0.1029
26954W        W43215   0.962   5.203  12.956  0.1461  0.0630  0.1932
26955W        W43216  15.017   5.835   4.372 -0.1133 -0.1224 -0.2803
26956W        W43217   2.336   1.233  13.374  0.0634  0.1433  0.2174
26957W        W43218  14.595   5.825   0.748 -0.0286 -0.0588 -0.3065
26958W        W43219  18.342   8.248   2.145 -0.0582  0.2853 -0.3255
26959W        W43220   5.635  11.006   3.936  0.3607  0.1102  0.1466
26960W        W43221  11.091  10.562   4.222 -0.1245 -0.0772 -0.0217
26961W        W43222   7.322  16.806   3.299 -0.0026  0.1621  0.1316
26962W        W43223   0.811  14.509   3.228  0.0630 -0.0819  0.0737
26963W        W43224   0.810  13.704   2.762 -0.1700 -0.2788 -0.1323
26964W        W43225   8.525   2.525  15.360 -0.1378 -0.0965  0.3277
26965W        W43226  13.073   6.660   2.626 -0.2446 -0.1737 -0.4547
26966W        W43227  15.699  16.909   5.360 -0.0123  0.0898 -0.2412
26967W        W43228  18.164  13.383   5.609 -0.1956 -0.0545 -0.1104
26968W        W43229  17.480   0.574  12.777 -0.0154  0.0679  0.2004
26969W        W43230   6.957   3.243   1.564 -0.2133  0.1692 -0.0046
26970W        W43231  15.413   0.433  12.309 -0.1710 -0.0897  0.0587
26971W        W43232   2.960   4.446  14.381 -0.0137  0.1710 -0.1308
26972W        W43233   8.831  16.825   5.551 -0.1657 -0.6032 -0.0916
26973W        W43234   9.849  16.867  14.247  0.0140 -0.1788 -0.1843
26974W        W43235  12.411  12.268  14.986 -0.1564  0.3093  0.0874
26975W        W43236  13.111  13.101  11.565  0.2225  0.0711  0.0969
26976W        W43237  15.469  11.264   2.995  0.0900 -0.2142  0.2108
26977W        W43238   4.976  18.276   1.864 -0.1932  0.1848  0.0487
26978W        W43239  13.316   8.228   0.189  0.0672  0.0850 -0.0372
26979W        W43240  18.368   5.792   5.743 -0.0892 -0.2070 -0.2541
26980W        W43241   1.415   6.078  14.770  0.0577  0.1654 -0.2166
26981W        W43242  15.271   8.574  12.711  0.3574 -0.0697  0.3683
26982W        W43243  15.482   6.138  15.706 -0.0507 -0.2626 -0.0641
26983W        W43244   4.130  14.371   4.905  0.1751 -0.2070 -0.0361
26984W        W43245   3.542   0.121   1.828 -0.3848 -0.2108 -0.2287
26985W        W43246  15.238   6.677   2.421  0.1567  0.5429  0.1597
26986W        W43247  13.095   2.186  15.668  0.0092 -0.0807  0.1077
26987W        W43248   7.658  12.288  16.275  0.0570 -0.0565  0.4644
26988W        W43249   7.295  12.047  13.166 -0.1405 -0.0803 -0.0942
26989W        W43250   7.542  13.180  12.391  0.0249 -0.3561  0.6343
26990W        W43251   4.601  11.649  12.417  0.0774 -0.2452 -0.1023
26991W        W43252  15.205  14.909  14.474  0.2561 -0.2555 -0.0923
26992W        W43253  15.547   1.143   6.692  0.1758 -0.0695 -0.0099
26993W        W43254  14.708  12.785  11.974 -0.1769  0.1154 -0.3527
26994W        W43255  12.098   9.223   0.562 -0.1229  0.1748  0.1343
26995W        W43256   1.901  14.446  14.646  0.0005 -0.0064 -0.0877
26996W        W43257   0.223  11.147  15.418  0.3496  0.1174  0.0311
26997W        W43258   6.060   0.871  14.649  0.0651 -0.1211  0.0644
26998W        W43259   1.335  11.113   1.552 -0.1823  0.1702 -0.4206
26999W        W43260  13.081  13.844   2.726  0.2156  0.0558  0.1953
27000W        W43261  15.532   0.897  12.564 -0.0312  0.0560 -0.0621
27001W        W43262   3.988  16.601  12.561  0.3623 -0.0221  0.1049
27002W        W43263  16.305  15.005  13.404 -0.1139 -0.1186  0.3245
27003W        W43264   6.917  15.174   3.957  0.3390 -0.0415 -0.0500
27004W        W43265   4.792   8.427  13.188 -0.2794  0.0922 -0.0606
27005W        W43266  15.901  15.612  12.314 -0.1916 -0.0518 -0.2072
27006W        W43267  15.358   3.311   0.928  0.1040 -0.3211  0.2074
27007W        W43268  13.082   8.066  16.071  0.0290 -0.0526 -0.1076
27008W        W43269  15.890   8.302  13.362  0.1498 -0.0505  0.1978
27009W        W43270  10.373   5.836  11.287  0.1136  0.0041  0.0320
27010W        W43271   6.628   0.462   3.036 -0.1105  0.2077  0.2566
27011W        W43272   2.152  10.554   0.026  0.0756  0.1194  0.0001
27012W        W43273   1.831  15.793  13.739  0.0168 -0.2100  0.2617
27013W        W43274   6.060  17.430   2.551 -0.1684 -0.2345  0.4925
27014W        W43275  13.589   2.724   1.130 -0.2033 -0.1611  0.1466
27015W        W43276   1.573   3.186   1.399  0.0250  0.0992 -0.0574
27016W        W43277   6.617   7.273  15.627  0.2331 -0.1313  0.1614
27017W        W43278   7.903   9.953   2.808  0.0187  0.1178  0.0963
27018W        W43279  12.874   4.592   4.114  0.1597 -0.1220 -0.1238
27019W        W43280  17.165  15.336  12.325 -0.1808  0.0373 -0.1443
27020W        W43281   9.981  12.984  15.647  0.0681  0.2227 -0.1241
27021W        W43282   6.447   9.590  12.389 -0.0843 -0.0724 -0.2242
27022W        W43283   5.156   4.205   2.077  0.0196  0.3031  0.3224
27023W        W43284   6.140  10.003   2.271  0.3106 -0.0565  0.1102
27024W        W43285   5.644  14.580  15.166 -0.4403 -0.2293 -0.3560
27025W        W43286   7.913  17.355  14.637 -0.0808 -0.1638  0.1466
27026W        W43287   0.939   6.223  14.627 -0.0089 -0.0432  0.1100
27027W        W43288  14.363   6.801   0.242 -0.1751 -0.1322 -0.0613
27028W        W43289   0.091  13.480   3.267 -0.0501  0.2905  0.2806
27029W        W43290   6.831  11.364  15.508 -0.0281  0.0285 -0.2126
27030W        W43291   2.557   7.925   6.250  0.0484  0.2085  0.0148
27031W        W43292   6.878   0.263  15.439  0.1505  0.4580 -0.1258
27032W        W43293   3.554  15.918  15.193 -0.1167 -0.1016 -0.1674
27033W        W43294   3.449   2.430   5.313 -0.0481  0.3004 -0.0494
27034W        W43295   4.232   7.901  14.735  0.0319  0.2128 -0.2944
27035W        W43296  17.069   6.936   0.199 -0.2321  0.0540 -0.2778
27036W        W43297  15.314   1.138   5.790  0.2079  0.0166  0.0508
27037W        W43298  13.901  11.932  12.630  0.2526 -0.0989  0.1041
27038W        W43299  15.308   7.043  15.429  0.0796 -0.2858 -0.0517
27039W        W43300  12.332  15.180  11.110 -0.1973  0.0201  0.0028
27040W        W43301  13.914   0.484   0.353 -0.2669 -0.4402 -0.0870
27041W        W43302   7.629  15.668  12.572 -0.1673  0.0817 -0.0424
27042W        W43303   6.532   7.057  15.211  0.1998 -0.2700  0.0006
27043W        W43304   5.997  12.529   5.438  0.2471  0.1133 -0.0213
27044W        W43305   5.029  15.934  13.369 -0.1527  0.0821  0.3859
27045W        W43306   6.746   6.033  16.065  0.1463  0.1768 -0.1177
27046W        W43307  11.163  12.144  10.930  0.2550  0.1988 -0.0207
27047W        W43308  12.142  11.502  13.746 -0.4742  0.2359 -0.3045
27048W        W43309   4.926   7.585   1.178 -0.1658 -0.0046  0.0522
27049W        W43310  14.274   0.859  12.319 -0.0917  0.2210 -0.0363
27050W        W43311  13.926   7.610   0.756 -0.0724 -0.1040  0.0220
27051W        W43312  10.445  13.144  12.583 -0.1849 -0.3194  0.1439
27052W        W43313   9.188   4.859   4.227  0.0400 -0.1761  0.0378
27053W        W43314   9.006   9.892   3.434  0.0788  0.2206  0.1399
27054W        W43315   4.753  11.844   3.169  0.0535 -0.4284  0.2382
27055W        W43316  14.024   3.249   0.997  0.0812 -0.1361 -0.4109
27056W        W43317  16.062   5.858   3.143  0.0436 -0.1398  0.2470
27057W        W43318   0.542   0.442   4.651 -0.1058 -0.0806 -0.2713
27058W        W43319  10.426   8.265   1.934  0.0807  0.2229 -0.0433
27059W        W43320   8.931  11.038   0.541 -0.0596  0.2067  0.0768
27060W        W43321   9.486  18.268   3.925 -0.0806  0.5203 -0.1154
27061W        W43322  15.464  11.565  13.666  0.1582 -0.0209  0.0067
27062W        W43323   4.810   9.424   1.968  0.1181 -0.4216  0.2745
27063W        W43324   1.313   9.032  14.956  0.0432  0.2995  0.1614
27064W        W43325   7.289   5.476  12.897  0.2238 -0.0842  0.0455
27065W        W43326  13.854  16.769  13.739 -0.0657 -0.1211  0.2214
27066W        W43327   0.732  17.247   5.731 -0.1028  0.1553 -0.1057
27067W        W43328  18.240  11.646  15.897 -0.1327 -0.1845  0.2017
27068W        W43329   3.727   5.527  11.963  0.0311 -0.0452  0.0080
27069W        W43330  14.671   2.692   5.447 -0.0442  0.0612  0.0738
27070W        W43331  16.973  12.423  11.822 -0.1291 -0.1753 -0.5140
27071W        W43332   8.851   5.988  15.087  0.1939  0.0719  0.2276
27072W        W43333  10.943   3.960   6.300 -0.2788  0.0133 -0.1952
27073W        W43334  13.025   5.333   5.653 -0.2228 -0.3905  0.2147
27074W        W43335   5.077  10.100  11.359 -0.2104  0.1766  0.2327
27075W        W43336   9.675   8.464  11.686  0.1245 -0.3663 -0.1110
27076W        W43337  14.614   6.351   5.867  0.0435 -0.1742 -0.0697
27077W        W43338  12.425   2.864   5.488 -0.0062 -0.0093  0.0014
27078W        W43339   3.095   1.640  11.616 -0.2641 -0.1784 -0.0469
27079W        W43340   3.172   4.575  11.539 -0.0185  0.2048 -0.0873
27080W        W43341   6.821   7.933  12.838  0.0596 -0.1616 -0.2873
27081W        W43342  18.364  15.735   2.309 -0.0432 -0.0113 -0.1492
27082W        W43343   8.671  14.563   1.773  0.0884  0.1852 -0.3454
27083W        W43344  12.906  12.118   2.002  0.0119 -0.0871  0.1416
27084W        W43345  12.629   0.540  12.690  0.0987  0.0432  0.0287
27085W        W43346   5.467  14.805   1.083 -0.1248  0.0855 -0.2993
27086W        W43347   1.319  14.408  14.408 -0.1946  0.0047  0.1690
27087W        W43348  17.308   9.666   1.619  0.1500 -0.2365 -0.2681
27088W        W43349  16.642  11.913  15.800  0.2489  0.0743 -0.2955
27089W        W43350  12.606   2.228  15.448 -0.0654 -0.1464  0.2429
27090W        W43351  10.378   1.598   4.619  0.0615  0.0952  0.0542
27091W        W43352  14.666  14.350   5.558 -0.2310  0.1705  0.0929
27092W        W43353  14.370  13.681   4.877 -0.0932 -0.0433 -0.3040
27093W        W43354  10.455   2.054   0.373 -0.2113 -0.0371 -0.0471
27094W        W43355   5.530   4.136  14.877 -0.1575  0.0770  0.2470
27095W        W43356   7.804   3.756   4.483 -0.1444  0.0578  0.1935
27096W        W43357  15.688  14.233  14.428 -0.1366 -0.1353 -0.1245
27097W        W43358   9.103   0.662   3.617 -0.1456 -0.0129  0.0937
27098W        W43359  17.325  14.085   0.098 -0.0215 -0.0468  0.0027
27099W        W43360  13.768   4.014   4.499 -0.0142 -0.1510 -0.2609
27100W        W43361   9.981   3.952   4.632  0.1157 -0.1922  0.2056
27101W        W43362   0.475  14.266  15.072 -0.2554  0.3822  0.0727
27102W        W43363  14.195  17.493   0.016  0.0595  0.0127 -0.0367
27103W        W43364  11.796   8.786  10.643  0.1053 -0.0926 -0.1085
27104W        W43365   2.929   3.944   0.682 -0.0904  0.0054  0.3191
27105W        W43366   4.256   8.170   5.087 -0.0264 -0.4341  0.0474
27106W        W43367   7.742   3.635   3.955  0.5448 -0.2421  0.0765
27107W        W43368  13.259   1.864   1.245 -0.1856 -0.1893 -0.1073
27108W        W43369   4.086   1.396   3.714 -0.1656 -0.0936 -0.0692
27109W        W43370   7.388  10.704   1.457  0.1199  0.3111  0.2250
27110W        W43371   1.671  16.010  15.048  0.0423 -0.0780  0.4509
27111W        W43372  14.445  16.704   6.735  0.0353  0.1557  0.0134
27112W        W43373  12.902  17.197  15.647 -0.3272 -0.2802 -0.0882
27113W        W43374   2.612   0.395  13.523  0.0352 -0.0874 -0.0555
27114W        W43375  14.935  15.179  14.817  0.4802  0.1785  0.2324
27115W        W43376  12.502   6.317  15.445  0.2069 -0.1696 -0.0750
27116W        W43377   5.819   2.551  12.425  0.2010  0.0048 -0.1134
27117W        W43378   3.619   6.922   3.489 -0.3232 -0.2829 -0.0915
27118W        W43379   5.705   4.594  11.248 -0.1082  0.2589 -0.1225
27119W        W43380  15.262   6.083  14.728  0.1451  0.0291  0.0300
27120W        W43381  11.809  13.913   3.787  0.0698 -0.4682 -0.0101
27121W        W43382   7.981   6.500   0.536  0.0797 -0.0252 -0.1163
27122W        W43383  14.410   7.910  13.147  0.0132  0.1690  0.0458
27123W        W43384   2.431   0.352   0.828  0.1896 -0.3081  0.4350
27124W        W43385   5.014  13.324   2.630 -0.0698  0.0448 -0.1670
27125W        W43386  14.994  11.562  15.869 -0.2482 -0.0029 -0.1270
27126W        W43387  13.333   2.640  14.231  0.0502  0.0558  0.1538
27127W        W43388  12.439   9.204   5.848 -0.0993 -0.3052  0.0171
27128W        W43389   9.003   9.111  13.802 -0.3132  0.2075 -0.0688
27129W        W43390   0.930   4.835  15.915 -0.0827  0.0569  0.0112
27130W        W43391   1.964   5.605   4.156  0.0695 -0.1366 -0.0503
27131W        W43392  17.283  17.385   3.221 -0.1614 -0.0297 -0.1336
27132W        W43393  15.033   2.565  16.064  0.1459  0.0650  0.3636
27133W        W43394   0.302   4.744   1.784  0.1756 -0.0877 -0.0557
27134W        W43395   8.814   7.201   0.681  0.1548  0.2452 -0.0998
27135W        W43396   4.703   7.921  13.424 -0.0451  0.0372 -0.2270
27136W        W43397  10.499  15.900  11.734 -0.0510 -0.1257 -0.3401
27137W        W43398  15.248   1.674   2.924  0.2056 -0.2496  0.0291
27138W        W43399  13.971   3.748  12.709  0.0241  0.1863  0.1551
27139W        W43400  14.433   8.541   5.185  0.0107 -0.0383 -0.0006
27140W        W43401  13.278  10.587  11.654 -0.1095  0.0267 -0.0436
27141W        W43402   2.349  12.098   5.424  0.0699  0.0062  0.1555
27142W        W43403  17.615  12.963   3.322 -0.2604  0.1254  0.0379
27143W        W43404  16.993  15.793   5.294 -0.2839  0.0051 -0.1054
27144W        W43405   6.939   7.523   3.739 -0.3602  0.0918  0.1309
27145W        W43406  14.630  15.496   3.979  0.1541  0.1206 -0.2328
27146W        W43407   1.447  10.374   6.070  0.3161  0.3581 -0.2962
27147W        W43408   4.244  14.849   5.254 -0.1078 -0.3046 -0.0462
27148W        W43409   0.986   4.053  14.029  0.2840 -0.0392 -0.1490
27149W        W43410   1.580  14.835   1.191 -0.1495 -0.1268 -0.1922
27150W        W43411   9.462   6.223  13.543 -0.0694 -0.1713 -0.0106
27151W        W43412   0.227  11.415  13.116 -0.2240 -0.1745  0.1016
27152W        W43413   5.827  14.840   5.951 -0.0666 -0.0642 -0.3232
27153W        W43414   2.199   0.541   5.444 -0.2502 -0.1138 -0.1393
27154W        W43415   8.397  17.642  14.704  0.1348  0.0248 -0.1780
27155W        W43416  16.942   4.836   3.796  0.0768  0.1345 -0.0761
27156W        W43417  14.030   3.885   0.272  0.0879 -0.4351  0.2618
27157W        W43418   1.713  16.233   5.695 -0.0158 -0.1149  0.1175
27158W        W43419   5.077   3.569   4.357  0.1957 -0.0325  0.0276
27159W        W43420   5.675  14.774  13.164  0.2631  0.0592 -0.0852
27160W        W43421   4.629   5.617  12.462  0.3995 -0.2673 -0.0646
27161W        W43422  15.987   5.894   2.373 -0.2488  0.0432 -0.2384
27162W        W43423   4.687   3.152   2.289  0.0056  0.1406  0.0517
27163W        W43424   7.345   0.028  15.109 -0.1572 -0.0807  0.0941
27164W        W43425   5.555   7.261   0.465 -0.1435  0.0067 -0.3238
27165W        W43426   6.113   5.368  14.101 -0.0719 -0.0066 -0.2708
27166W        W43427  12.090   2.590   0.836  0.0291  0.2835  0.1105
27167W        W43428   7.739   8.494  11.766 -0.1424  0.3376 -0.0003
27168W        W43429   6.710   2.420  11.990 -0.3658 -0.0971 -0.0691
27169W        W43430   9.838   6.294  11.821  0.1969 -0.0209  0.0026
27170W        W43431   5.749  17.136   4.899 -0.1512 -0.2082  0.1987
27171W        W43432  10.147   4.473   2.448 -0.3461 -0.0820 -0.0713
27172W        W43433   0.008   1.402   4.220  0.1907 -0.2374 -0.0433
27173W        W43434  18.169  14.977  12.068 -0.0979 -0.4833 -0.1503
27174W        W43435   8.684  15.317  15.797 -0.1373  0.2039 -0.1205
27175W        W43436   9.824   8.909  14.512 -0.1867 -0.0492 -0.1633
27176W        W43437  11.298   2.007   5.742  0.0278 -0.2986  0.0894
27177W        W43438   0.417   7.660   3.515 -0.2561 -0.0060 -0.0160
27178W        W43439   2.853  16.620   3.528  0.0426 -0.1794  0.0370
27179W        W43440   4.437  17.541  13.863  0.1112  0.0813 -0.1957
27180W        W43441   2.829  14.685   4.527 -0.4852  0.0164 -0.2028
27181W        W43442  16.951  17.674  16.086 -0.3650 -0.1016  0.1024
27182W        W43443  13.963   0.915   4.544  0.0942 -0.1322 -0.0921
27183W        W43444   5.779   5.736   2.147  0.3990 -0.0073  0.0336
27184W        W43445   4.323   9.384   0.978  0.0165 -0.0555  0.3108
27185W        W43446   0.794  18.004   2.105 -0.1997 -0.0902 -0.2419
27186W        W43447   2.217  15.375  13.097 -0.3912 -0.1092 -0.3123
27187W        W43448   0.746   9.003  14.602 -0.2906  0.2308  0.3635
27188W        W43449   2.788   9.817  10.054 -0.0141 -0.0606 -0.0889
27189W        W43450  12.666   9.553  14.126  0.1482 -0.2577 -0.4236
27190W        W43451   2.416   4.091   0.753 -0.1485  0.1913  0.1508
27191W        W43452   2.947   4.338  13.482  0.2512  0.1101 -0.3286
27192W        W43453   8.498   7.261   0.285 -0.0587  0.0856  0.1190
27193W        W43454   4.562   3.480  12.010  0.0179  0.0107  0.0737
27194W        W43455   2.604  11.263  13.862  0.1651  0.0272 -0.1830
27195W        W43456   8.219  18.173  11.355  0.3788 -0.2423  0.2223
27196W        W43457   8.415  16.013  14.217  0.3059 -0.1311  0.2419
27197W        W43458  14.841   1.156   6.476  0.1918 -0.1111 -0.4171
27198W        W43459  10.230   6.740   3.341 -0.1107  0.0504 -0.2193
27199W        W43460  15.438   7.594  15.530  0.0543 -0.0944 -0.0354
27200W        W43461  15.514  10.541  13.462 -0.1795  0.2111  0.0011
27201W        W43462   2.023   1.313  15.084 -0.1362 -0.1014 -0.0913
27202W        W43463  12.100  15.974  12.435  0.1513  0.1752  0.0828
27203W        W43464   9.826   1.066  14.139  0.3073  0.1403  0.0647
27204W        W43465  16.494   1.007  16.298 -0.2325  0.1177  0.0098
27205W        W43466  13.775  17.664  16.068 -0.2621 -0.4318  0.1078
27206W        W43467  18.284   7.395  13.722  0.0065  0.1417 -0.1494
27207W        W43468  13.005   3.231   4.732 -0.1395 -0.0591  0.3488
27208W        W43469   0.110   6.968  16.110 -0.1606 -0.1278 -0.5126
27209W        W43470   2.205  11.153  11.934 -0.2834 -0.0960  0.3843
27210W        W43471   8.230   4.618   4.475 -0.0302  0.1010 -0.0962
27211W        W43472  16.107   3.962  13.804  0.0662  0.1039 -0.0666
27212W        W43473   1.516   5.860  14.049  0.1166  0.3488 -0.1375
27213W        W43474  13.870   5.493  14.684  0.1782 -0.0193 -0.4327
27214W        W43475  12.741   6.088  13.118 -0.1718 -0.0652  0.1518
27215W        W43476  12.720   4.566  11.370 -0.0103 -0.0757 -0.2562
27216W        W43477  12.409   0.869   2.487  0.0915 -0.2052  0.1566
27217W        W43478  17.401   1.235   2.164  0.0680 -0.1920 -0.0948
27218W        W43479  15.898   3.120   6.067 -0.0034 -0.4372 -0.0813
27219W        W43480   2.063  12.412  15.136 -0.2381  0.0239  0.1476
27220W        W43481  14.653   4.342  12.571 -0.2720  0.2791 -0.0288
27221W        W43482  10.924   1.467  11.634  0.1861 -0.1694 -0.2545
27222W        W43483  10.753  16.858  15.205 -0.1959  0.3972  0.0092
27223W        W43484   9.859  15.371   2.769 -0.1456  0.0895 -0.2044
27224W        W43485  12.403   8.062  13.527 -0.0200 -0.2773 -0.1024
27225W        W43486  11.562   2.098   4.492  0.2216  0.2869  0.1447
27226W        W43487   4.954  15.739   1.633 -0.0200  0.1852  0.2716
27227W        W43488   3.979   0.122  15.614 -0.0128 -0.0593 -0.0555
27228W        W43489   4.820   2.566   5.328 -0.2803  0.2387 -0.1350
27229W        W43490   3.234   7.027   1.456 -0.2570 -0.4114  0.0908
27230W        W43491  15.222   3.704   5.433 -0.1754  0.1594 -0.1337
27231W        W43492   5.849  17.537   0.108 -0.0033 -0.1221 -0.1284
27232W        W43493   1.020  15.281   4.746 -0.1451 -0.2073 -0.0101
27233W        W43494   1.712  18.219   3.544  0.0971 -0.1131 -0.0302
27234W        W43495   6.820  12.441   0.022 -0.1449  0.2015  0.0708
27235W        W43496  10.058   3.393  15.586  0.2938 -0.3202  0.0020
27236W        W43497  17.521   6.511   5.232 -0.1678 -0.0947  0.0012
27237W        W43498  11.255  15.353  15.022  0.0744 -0.0032  0.2274
27238W        W43499   9.363   8.473   1.927 -0.0255 -0.2046 -0.0007
27239W        W43500  14.730   9.983  13.267 -0.2295 -0.3484  0.2398
27240W        W43501  10.420  12.536  11.230  0.0914  0.0801  0.0107
27241W        W43502   0.246  14.773   4.572 -0.1456  0.3442 -0.0766
27242W        W43503   8.242   2.426  14.942  0.3522  0.1494 -0.0765
27243W        W43504   8.748  16.410  10.337 -0.0269  0.1220 -0.0201
27244W        W43505   2.270  14.405   2.904 -0.0432  0.2826 -0.2649
27245W        W43506  16.782   8.976  13.081  0.0310  0.1023 -0.4022
27246W        W43507   0.388  13.631   0.395 -0.2257 -0.1599  0.0523
27247W        W43508  15.436  16.193  12.542  0.0761  0.2952 -0.2341
27248W        W43509   5.001  10.745   3.221 -0.2740 -0.1039  0.1932
27249W        W43510   3.582   7.859  15.514 -0.1611  0.0416  0.0060
27250W        W43511  10.951   7.105   0.797  0.2119  0.1742 -0.0310
27251W        W43512   7.131  16.117  13.528  0.1361  0.2548  0.2854
27252W        W43513   5.683  11.527  15.412 -0.2507 -0.1053 -0.2102
27253W        W43514   3.803   9.200   4.721 -0.0793  0.3738 -0.1207
27254W        W43515  13.773   8.731   5.305 -0.0792  0.4363  0.1229
27255W        W43516  13.617   5.848   1.178 -0.0755  0.1161 -0.0990
27256W        W43517  11.197  17.770   4.262  0.0201 -0.0490  0.1565
27257W        W43518  14.778   8.899   5.062  0.1852 -0.0737 -0.1254
27258W        W43519   3.078   1.265  10.832  0.1444 -0.0729  0.0875
27259W        W43520   3.063  10.286  15.140  0.3458 -0.0979 -0.0511
27260W        W43521  12.906   7.687   3.165 -0.2161 -0.1909 -0.3576
27261W        W43522   1.796   9.753   4.821 -0.2878 -0.0267  0.3010
27262W        W43523  15.380   7.221   3.998  0.0568  0.3585 -0.1962
27263W        W43524   3.151  10.432   3.811  0.2230  0.1004  0.1115
27264W        W43525   1.969   0.315   2.739 -0.1835  0.1857  0.2789
27265W        W43526   5.778   0.006  12.452  0.2677 -0.0741 -0.2433
27266W        W43527  18.340  11.706   1.534  0.0352 -0.0794 -0.1643
27267W        W43528   5.963   5.299   1.185 -0.1375  0.1206 -0.1186
27268W        W43529  13.857   4.303   5.786  0.2172  0.0612  0.1011
27269W        W43530   9.381  12.939   0.907  0.1608 -0.0598 -0.0851
27270W        W43531   3.880   1.269   2.615 -0.2190  0.0326 -0.0325
27271W        W43532   4.758  15.968  13.863  0.1160 -0.0294 -0.2361
27272W        W43533  11.230  14.605   9.857  0.4121 -0.0166 -0.0779
27273W        W43534   1.766  16.285   4.113 -0.2016  0.1243  0.0638
27274W        W43535   2.548  15.777   4.191  0.1010 -0.5241 -0.0682
27275W        W43536  11.760   7.502  13.911  0.0439  0.4734  0.0147
27276W        W43537   0.461  17.507   5.239  0.2334 -0.3484  0.1134
27277W        W43538   5.226   4.090  13.234  0.0632  0.0843 -0.3552
27278W        W43539   7.499   5.076   2.267 -0.0581 -0.0638  0.2809
27279W        W43540  15.262  11.177  16.233  0.0368  0.0274  0.2612
27280W        W43541  13.075   7.892  12.404 -0.0900  0.1787 -0.0037
27281W        W43542   8.832  15.458  14.582 -0.0022  0.0343  0.1442
27282W        W43543   1.178   6.957   0.124 -0.3716 -0.0077  0.4962
27283W        W43544   8.960  17.699  14.988 -0.3318 -0.1894  0.1206
27284W        W43545   7.468   5.011   3.600 -0.0209  0.1482  0.1501
27285W        W43546  10.284   6.447   1.049  0.2785 -0.0642  0.0261
27286W        W43547  13.739   5.840   3.931  0.2846 -0.0620 -0.2954
27287W        W43548   8.599   6.424  13.217 -0.4957  0.0070 -0.3571
27288W        W43549   7.803   4.671   2.302  0.0156  0.2448  0.0943
27289W        W43550   6.664   0.759   5.530 -0.2248  0.0705  0.0750
27290W        W43551  14.687   8.554  14.933 -0.0493  0.0777 -0.0197
27291W        W43552  13.282   0.548   2.717 -0.0468 -0.2359 -0.2181
27292W        W43553   3.120   1.053   4.125 -0.2094 -0.1992 -0.3307
27293W        W43554  18.295   0.488  12.900  0.2764 -0.3006  0.0552
27294W        W43555  12.987  14.135  13.538 -0.1803  0.1677  0.0391
27295W        W43556  15.960  18.353   3.333  0.0581  0.1167  0.1998
27296W        W43557  10.195  16.599   2.930  0.1803  0.2608  0.0509
27297W        W43558  14.994  11.286  13.636  0.0094  0.0413  0.1566
27298W        W43559   1.006  15.825   5.857 -0.0599  0.0238  0.1044
27299W        W43560   3.047  11.086  13.620  0.0568 -0.2062  0.0512
27300W        W43561  17.520   8.394   1.428  0.0616  0.3205  0.2666
27301W        W43562   0.207   4.927   0.741  0.1309 -0.0629 -0.0952
27302W        W43563   0.011   0.238  16.029 -0.1046  0.1235  0.0163
27303W        W43564  15.963  13.733   2.493  0.2380  0.0361  0.0635
27304W        W43565  12.056   1.603  12.986  0.0515  0.3345 -0.1231
27305W        W43566   9.591  12.873   1.641  0.1856 -0.1424 -0.1872
27306W        W43567   4.818  10.726   3.731  0.3143 -0.1671 -0.1963
27307W        W43568   9.615   2.293  12.689  0.0238 -0.2846 -0.1463
27308W        W43569  13.887  16.460  14.614 -0.4074  0.0333  0.2374
27309W        W43570  17.002  17.393   6.899  0.0339  0.0683  0.2293
27310W        W43571  17.867   2.182   2.691  0.0599  0.1284 -0.2151
27311W        W43572  14.159  16.618   2.902 -0.2157  0.0508  0.1806
27312W        W43573   5.017   2.091  15.488  0.2873 -0.0863  0.2274
27313W        W43574   4.300  12.089  14.898 -0.0378 -0.0897 -0.2406
27314W        W43575  15.474  12.121   4.602  0.0580  0.4194  0.0215
27315W        W43576  10.328   4.516   1.622  0.1727  0.1817  0.2288
27316W        W43577   5.361  16.988  15.596  0.0670 -0.1033  0.3945
27317W        W43578   4.602   8.719  11.778 -0.3319  0.1812  0.2501
27318W        W43579   1.909  10.528   3.681 -0.1232  0.2421  0.1246
27319W        W43580  18.060   1.985  12.704 -0.1280 -0.2846  0.0851
27320W        W43581   3.388   5.139   5.087  0.2863  0.2279 -0.0701
27321W        W43582   7.873  11.582   5.337 -0.1411 -0.0475 -0.0407
27322W        W43583  16.398  15.200   2.180 -0.1340  0.1509 -0.2404
27323W        W43584  16.455  17.018   1.612  0.2058 -0.0550  0.3264
27324W        W43585   4.595  17.035  13.081  0.0290  0.0899  0.0346
27325W        W43586  10.441   5.157   1.115 -0.0855 -0.0054 -0.2405
27326W        W43587  14.139   6.479  13.112 -0.1447 -0.0104 -0.0703
27327W        W43588   4.088  17.684   5.153 -0.0492 -0.1353 -0.0760
27328W        W43589   0.175  10.109  14.250  0.1031  0.0847  0.0926
27329W        W43590  16.341   5.978  14.995  0.1215  0.0843  0.2775
27330W        W43591   4.914  14.619  11.754  0.2517 -0.2663 -0.1566
27331W        W43592  17.093   1.858  12.035 -0.2049  0.1251 -0.1094
27332W        W43593   3.776  17.864  12.066 -0.1234 -0.0864 -0.0455
27333W        W43594   1.165   7.430   1.850 -0.0338 -0.1658  0.0068
27334W        W43595  14.563  14.138  11.591 -0.0356  0.0664 -0.0423
27335W        W43596  15.502   8.774   1.602  0.1250 -0.3859  0.0292
27336W        W43597   6.158   1.872  16.090 -0.0765  0.2213 -0.1262
27337W        W43598  14.287   7.489   4.764 -0.3228 -0.2087 -0.3641
27338W        W43599   6.270   3.643  13.545  0.0811  0.1796 -0.1027
27339W        W43600   2.432   6.964  12.855  0.2847 -0.1616  0.3428
27340W        W43601   2.032   2.125  14.065  0.2291 -0.0052 -0.1186
27341W        W43602  17.333  13.563   2.416  0.0417  0.0737 -0.2393
27342W        W43603  18.274  12.137  15.674  0.0769  0.1972  0.1610
27343W        W43604   1.534  10.575   4.380  0.0824 -0.2853 -0.0063
27344W        W43605  12.569   1.088  15.392 -0.0815 -0.1266  0.0258
27345W        W43606   4.490  17.625  11.661 -0.0220 -0.1883  0.3280
27346W        W43607   8.126  15.797  10.298 -0.0195  0.0569 -0.1967
27347W        W43608   7.057  11.725  11.669 -0.1422  0.1037 -0.2905
27348W        W43609  14.664   1.605  11.973  0.1791 -0.1523 -0.4357
27349W        W43610  18.027   7.686  12.361 -0.2192  0.0182 -0.0072
27350W        W43611  11.756  12.499   4.179  0.2190  0.1629  0.0703
27351W        W43612   6.920   9.264   4.833 -0.0750 -0.3078  0.1581
27352W        W43613  12.531   3.033  10.599 -0.0177 -0.1286  0.0144
27353W        W43614   9.385   9.724   2.506  0.2066  0.0687 -0.0035
27354W        W43615   8.124   6.038  12.097  0.2349  0.0155 -0.0646
27355W        W43616  18.261  12.961   5.235  0.1087  0.0090  0.1491
27356W        W43617  14.051  11.285  13.458  0.1838 -0.0936 -0.2097
27357W        W43618  10.740   8.426  12.025  0.0699 -0.1014  0.1294
27358W        W43619   0.883  13.374  14.985  0.1676  0.1882  0.4423
27359W        W43620   8.831  17.525  11.778  0.2326  0.0187  0.2458
27360W        W43621   6.161   5.702   3.844 -0.1687  0.2438  0.1767
27361W        W43622  16.725  15.203   5.854  0.0174 -0.2154  0.0315
27362W        W43623  15.177  13.195  11.371  0.1797 -0.2067 -0.2146
27363W        W43624   2.573  15.741  13.966 -0.0156 -0.2539  0.0180
27364W        W43625   5.221   3.248   3.127 -0.1225  0.1516 -0.0664
27365W        W43626  10.886  15.980  14.698 -0.2349 -0.0478  0.1720
27366W        W43627  11.779   4.376  13.900  0.0284  0.1969  0.0598
27367W        W43628   2.861  11.595   2.804 -0.0629  0.2070 -0.2938
27368W        W43629  14.369  11.590  12.518 -0.0084 -0.1084 -0.2263
27369W        W43630  14.230   7.468   2.886  0.0687  0.3043 -0.2469
27370W        W43631   6.320  12.414   5.055 -0.0231  0.1797 -0.0570
27371W        W43632  10.510  10.785  16.076  0.1832 -0.0617  0.1789
27372W        W43633  15.635   6.895  15.811 -0.3715 -0.0210 -0.1356
27373W        W43634  12.613   7.322  15.067  0.0830  0.0309  0.2209
27374W        W43635  14.229   8.787  11.403 -0.2535 -0.3283  0.0627
27375W        W43636   9.868   3.574  14.626 -0.0132  0.1760 -0.0999
27376W        W43637   3.350   1.894   2.794  0.0404  0.0056  0.0629
27377W        W43638   9.117  16.118   2.709  0.0369 -0.0102  0.2323
27378W        W43639   3.903   9.440   0.266 -0.1818 -0.0063 -0.1585
27379W        W43640  11.439   0.738   0.049 -0.2062  0.2224  0.1114
27380W        W43641   3.821  11.962  14.069 -0.1065  0.0746  0.0748
27381W        W43642  13.389   2.078  11.788  0.0162  0.0305  0.3125
27382W        W43643   4.510   2.529   6.142  0.0901  0.0983  0.0307
27383W        W43644  17.274   8.278  12.084 -0.0634 -0.2063 -0.0333
27384W        W43645  10.969   5.856   4.788 -0.0593 -0.2534 -0.3577
27385W        W43646  16.309  10.157  13.381  0.3728 -0.1173  0.2619
27386W        W43647  10.359   8.510   2.720  0.1421 -0.0883 -0.0660
27387W        W43648   7.820  11.025  11.198 -0.0830 -0.1154  0.0839
27388W        W43649   6.141  12.586  15.623  0.2296  0.0091 -0.1366
27389W        W43650   0.799   4.836   4.105  0.1439 -0.3829  0.0375
27390W        W43651   1.111   0.859  12.556 -0.1346 -0.1972  0.1850
27391W        W43652   5.950   2.948   2.660  0.1723  0.1167 -0.0001
27392W        W43653  17.516  17.308   4.696 -0.1989 -0.3085  0.1766
27393W        W43654   0.443   3.188  11.999  0.1651  0.3377  0.2763
27394W        W43655   8.001  12.770  15.441  0.2613 -0.0540 -0.0774
27395W        W43656  13.769   2.557   5.720 -0.1009  0.1298 -0.3166
27396W        W43657   0.128  16.994  16.064 -0.1835  0.0519 -0.0640
27397W        W43658   9.601   2.746  11.328  0.0515  0.1734  0.5480
27398W        W43659  16.398  14.472  11.601  0.1166  0.0734 -0.3283
27399W        W43660  11.368   5.357   2.306 -0.1945 -0.0433  0.2500
27400W        W43661   6.401  17.248  14.898  0.0175 -0.0386  0.2435
27401W        W43662   7.748  10.624   1.052  0.0079 -0.1005 -0.1791
27402W        W43663  15.952  14.545   0.362 -0.2197  0.1817 -0.0770
27403W        W43664   0.332  13.451  16.176  0.2227 -0.1518  0.1592
27404W        W43665   7.230   0.849  14.583  0.0602 -0.2127  0.1379
27405W        W43666   3.998  12.485  11.950 -0.0099  0.1706 -0.1298
27406W        W43667  11.645   5.211  14.608 -0.4562 -0.3792 -0.2791
27407W        W43668  17.893   0.376  15.909  0.1836  0.3391 -0.0936
27408W        W43669  17.643   6.510  14.508 -0.0377  0.0262 -0.0318
27409W        W43670   1.744   5.563   5.151  0.0073  0.1511 -0.0854
27410W        W43671   4.948   9.621  11.606  0.1719 -0.0951  0.1014
27411W        W43672  11.440  10.330   2.137 -0.1763 -0.1230 -0.1205
27412W        W43673  12.264   2.585   6.442 -0.1493 -0.1370 -0.0675
27413W        W43674   5.129   4.336   0.176 -0.0548  0.2200 -0.1681
27414W        W43675   8.406   6.122   4.671  0.3471  0.1171  0.2593
27415W        W43676   5.830  16.785   2.819 -0.1473  0.2199  0.0583
27416W        W43677  17.032   9.218   1.099 -0.0057 -0.0060  0.1012
27417W        W43678   7.672  12.668  12.672  0.1354 -0.0702 -0.1713
27418W        W43679  13.814   0.672  12.034  0.0645 -0.0244  0.0913
27419W        W43680   5.395  15.492   1.440  0.1297  0.1209  0.1078
27420W        W43681  11.464   6.466  10.982 -0.0790  0.1261  0.1366
27421W        W43682   4.519   5.178   3.469 -0.2885 -0.4297  0.2045
27422W        W43683   7.615  17.940  12.002 -0.1299  0.3092  0.3986
27423W        W43684  10.033  17.437  15.324  0.2857  0.4198 -0.1644
27424W        W43685  12.567   3.344  14.566 -0.3519 -0.1591 -0.0525
27425W        W43686  14.552  11.086  13.671  0.2002  0.2057 -0.0260
27426W        W43687   7.677   7.833   3.689 -0.0993  0.0058 -0.0103
27427W        W43688   4.592  17.651   2.116 -0.0835 -0.1188 -0.0415
27428W        W43689  13.461  17.164  12.097  0.2344 -0.1547  0.1742
27429W        W43690   9.433   4.360   3.092  0.3146  0.1888 -0.0710
27430W        W43691   8.838  13.985  12.306 -0.1617  0.1713  0.2101
27431W        W43692   2.978  12.999  13.883 -0.1341 -0.1445 -0.3538
27432W        W43693   8.178  15.168   1.478  0.0142  0.1501  0.2352
27433W        W43694   8.410   8.617   0.618  0.2939 -0.1251 -0.0373
27434W        W43695   9.430   8.903  10.334  0.2338  0.3261 -0.1779
27435W        W43696  12.889   3.801  14.682 -0.1587  0.1561 -0.1452
27436W        W43697   9.100  11.842   1.580 -0.0614 -0.0565 -0.1409
27437W        W43698  13.455   5.430  14.114 -0.0550 -0.0837 -0.0172
27438W        W43699  11.576  13.899  11.485  0.1756 -0.1480  0.0051
27439W        W43700   0.284  16.873  13.632 -0.1956 -0.0589 -0.0971
27440W        W43701  12.462  13.686  14.808  0.0704  0.1119 -0.1930
27441W        W43702   6.082   5.193   2.045  0.1876 -0.2201  0.0903
27442W        W43703   4.087   2.526   4.890 -0.1190 -0.2097 -0.4490
27443W        W43704   7.452  16.262   3.176 -0.1918  0.1334  0.0318
27444W        W43705   5.520  17.113  16.046 -0.1451  0.2243 -0.0029
27445W        W43706   4.647  14.729   4.144 -0.1536 -0.1517  0.0599
27446W        W43707  11.112   2.956   1.082  0.0890  0.0634 -0.0174
27447W        W43708  11.056  16.738  13.791  0.2007 -0.1596 -0.0624
27448W        W43709   2.332  16.994   5.364  0.0311  0.1491  0.0903
27449W        W43710   3.694   5.577   0.274  0.0426  0.0719 -0.4229
27450W        W43711   1.411   5.421   4.282 -0.0459  0.0981 -0.2734
27451W        W43712   1.656   7.494   3.070 -0.2192 -0.0441 -0.0694
27452W        W43713  17.536  15.794   2.633 -0.0531  0.1511  0.1960
27453W        W43714  11.922  11.114   1.848 -0.0107 -0.0499 -0.2116
27454W        W43715   9.881  11.894  11.925  0.0862 -0.0973 -0.0460
27455W        W43716  13.250  10.380  14.155 -0.0047  0.5068 -0.2418
27456W        W43717   7.118  11.272  15.040 -0.2225  0.1144 -0.0205
27457W        W43718  11.825  13.075  13.513  0.1228 -0.0207  0.2361
27458W        W43719   3.656  10.439   4.263  0.1904  0.0329 -0.2064
27459W        W43720   3.707   3.158   1.276 -0.2644 -0.0871 -0.0431
27460W        W43721  14.621  12.677  12.522 -0.3653 -0.0104 -0.1915
27461W        W43722   7.100  13.872  13.111  0.0843  0.1738  0.1858
27462W        W43723  12.205   9.070   3.389  0.1646 -0.2863  0.0941
27463W        W43724   6.614   3.185   2.060  0.2187 -0.2083  0.0202
27464W        W43725   4.049  15.120  15.372  0.0011  0.0735  0.1076
27465W        W43726  15.818   7.997  11.203  0.0353  0.0786 -0.1971
27466W        W43727   8.621   5.805   5.684  0.2661 -0.1144  0.3468
27467W        W43728   7.409  10.959  14.815  0.1269 -0.0308 -0.2643
27468W        W43729   4.002  11.913  11.852 -0.1371  0.2484  0.1424
27469W        W43730   0.570   5.356   4.911  0.2431 -0.0115 -0.0759
27470W        W43731   3.257  16.855  15.372 -0.0403  0.1091 -0.0766
27471W        W43732  11.815  14.999   0.481  0.0819 -0.1187 -0.0081
27472W        W43733   4.416   8.513   1.500  0.3597  0.0871  0.1333
27473W        W43734  16.368   0.448   2.134  0.1501  0.3650  0.0894
27474W        W43735  14.892  10.909  14.072 -0.1053  0.3210  0.1294
27475W        W43736  17.956  16.560  11.738  0.0856  0.2379  0.0033
27476W        W43737   0.972   3.792   3.342 -0.0198  0.0796 -0.1317
27477W        W43738  17.916  18.310  16.162 -0.3349 -0.0589  0.0368
27478W        W43739  16.431  10.813   2.395  0.3836  0.1865 -0.0248
27479W        W43740  11.759  12.317   2.567  0.2622 -0.1433  0.0848
27480W        W43741   3.080   2.242   1.767 -0.2750  0.0576 -0.3139
27481W        W43742   8.318  11.899  11.693  0.1075  0.0221  0.1542
27482W        W43743   6.559  16.944  13.738  0.1299 -0.4560 -0.4295
27483W        W43744  14.793  15.445  12.586 -0.2364 -0.0877  0.1302
27484W        W43745   6.392   9.557   1.553 -0.3708  0.0317 -0.1532
27485W        W43746  14.003   9.111  13.648 -0.0685 -0.5022  0.1693
27486W        W43747  12.118   8.969  16.244  0.2766 -0.1416 -0.1372
27487W        W43748   7.841   4.070   0.724  0.3296 -0.3505 -0.0378
27488W        W43749  17.029  14.222   1.879 -0.0856 -0.0138  0.2362
27489W        W43750  10.706   8.381   0.112 -0.3057 -0.0286 -0.3238
27490W        W43751   5.538   4.550   4.771  0.0622  0.1861 -0.0283
27491W        W43752  15.461  16.466   4.134 -0.2006  0.2845  0.0485
27492W        W43753  16.890  16.010  15.087 -0.0224  0.0741 -0.0245
27493W        W43754   3.014  15.817  12.685 -0.0185  0.0177 -0.0701
27494W        W43755  17.229   1.803   2.084 -0.0378  0.0887  0.4805
27495W        W43756   4.195   8.186   3.764  0.0144 -0.0270  0.0530
27496W        W43757   3.778   7.227  14.209 -0.1747 -0.2530  0.0118
27497W        W43758   3.095  17.346   2.343 -0.0307  0.1309  0.2762
27498W        W43759  18.113  16.113   1.663 -0.1986  0.1217 -0.1169
27499W        W43760   9.747  17.270   5.134  0.0043  0.2072  0.2018
27500W        W43761   1.190  17.799   1.103  0.2728 -0.4010 -0.3475
27501W        W43762  16.063   1.808  13.302  0.4926 -0.0271  0.0614
27502W        W43763  14.272   2.184   5.004  0.0594 -0.0913 -0.0288
27503W        W43764   6.919  10.719  12.875 -0.0387 -0.0922 -0.1901
27504W        W43765  17.761   7.951   4.411 -0.0493 -0.3856  0.1513
27505W        W43766   8.707   4.002  10.794 -0.1241 -0.0339  0.0726
27506W        W43767   5.713   6.064  13.692 -0.0592 -0.0734 -0.0579
27507W        W43768   9.127  12.957   4.170 -0.1461  0.2152 -0.3781
27508W        W43769  11.040   2.771   5.046 -0.3607  0.0913  0.2197
27509W        W43770   5.930  14.438  11.899  0.0043  0.1021 -0.2513
27510W        W43771   8.063  16.656  10.845 -0.1572  0.0711  0.0744
27511W        W43772  11.783   0.799   3.213  0.0852 -0.2275  0.0587
27512W        W43773  15.801   5.465  13.063 -0.0376  0.1895 -0.2385
27513W        W43774  11.881  15.509  13.244 -0.0222 -0.0090  0.0145
27514W        W43775   9.855   6.109   4.328  0.1404 -0.0138  0.2079
27515W        W43776   8.528  18.215   1.249  0.0268  0.2743 -0.2148
27516W        W43777  16.096   1.499  15.205  0.1830  0.2094 -0.0266
27517W        W43778   4.420   0.714   4.827  0.0392 -0.0608  0.0337
27518W        W43779  17.117  12.277  12.971  0.1881  0.2718  0.1310
27519W        W43780  12.970  12.970  14.730  0.1475 -0.0563 -0.1624
27520W        W43781  14.906  13.154   1.621 -0.4768  0.0556 -0.1155
27521W        W43782   7.329  15.938  15.888  0.0821 -0.1204 -0.1183
27522W        W43783  10.718   3.512  13.405  0.0336  0.0761  0.1975
27523W        W43784  13.335  14.195   0.137 -0.0565  0.0686  0.3175
27524W        W43785  11.683   6.305   2.679  0.0743 -0.0789  0.1060
27525W        W43786   4.410   2.115  12.135 -0.0419  0.3133 -0.2762
27526W        W43787  14.266  13.512  13.656  0.0396 -0.0249  0.0385
27527W        W43788  10.610   5.981  10.805  0.2279  0.0217  0.0590
27528W        W43789   1.947   0.509  15.728 -0.2953  0.0936  0.4388
27529W        W43790   7.036   1.651  12.900 -0.1438 -0.1058  0.1454
27530W        W43791   0.371   3.956   5.453  0.2044  0.3406  0.1489
27531W        W43792  13.608  17.768   3.787  0.0727 -0.0429  0.0602
27532W        W43793   9.375  15.372   2.544  0.2007 -0.0863 -0.1740
27533W        W43794  14.427  10.438   5.956 -0.1524  0.0439  0.1155
27534W        W43795  11.279   4.475   3.228  0.1910  0.3549 -0.0698
27535W        W43796  15.022  10.803   3.524  0.0680  0.0576 -0.1639
27536W        W43797   7.327   7.457   5.549 -0.3425 -0.2813 -0.1411
27537W        W43798  18.077   5.148  15.296  0.0945 -0.0996  0.1615
27538W        W43799   5.371  14.934  11.703 -0.1167 -0.2357 -0.0160
27539W        W43800   1.126   1.050   5.284  0.2034  0.1984  0.0918
27540W        W43801   5.282   7.301   6.011  0.0293  0.0880  0.2889
27541W        W43802   6.467  12.290   2.614  0.1214  0.0010 -0.0633
27542W        W43803   5.834  11.760   4.365 -0.1527  0.2516  0.2994
27543W        W43804  17.150   9.278   2.396 -0.1718  0.0209  0.2406
27544W        W43805  14.820   1.406   2.806  0.1948  0.1269  0.0778
27545W        W43806   6.187   9.904  12.822  0.1027 -0.1467 -0.1155
27546W        W43807  17.658   1.667   4.749 -0.2942 -0.1608 -0.1003
27547W        W43808   2.040   3.239  12.446 -0.0395  0.2138  0.1606
27548W        W43809  12.564  16.826   5.542 -0.0215  0.0866  0.0938
27549W        W43810   1.883  13.650   2.145 -0.2422  0.0782  0.0179
27550W        W43811   1.970   1.277   3.232 -0.3738 -0.0646  0.0194
27551W        W43812  15.067   4.063   2.942  0.1205 -0.1331 -0.2273
27552W        W43813  14.107   0.877  16.260 -0.0900 -0.2255 -0.2358
27553W        W43814   6.259  11.008   5.509 -0.4171 -0.1311  0.1919
27554W        W43815   5.264   8.630  14.104  0.0386 -0.1006 -0.3291
27555W        W43816  11.032  10.549   2.441 -0.0569 -0.0603  0.2982
27556W        W43817   0.014   3.653  11.345  0.4297  0.3928 -0.0993
27557W        W43818  15.678  17.680   3.213  0.0617  0.1608  0.1080
27558W        W43819   1.366   6.905  12.079  0.1021  0.1375  0.2681
27559W        W43820  17.511  12.461  14.529  0.1115 -0.2202  0.0824
27560W        W43821  18.129  11.498   0.982 -0.2745  0.1235  0.1869
27561W        W43822   4.331   9.725  14.479  0.2892  0.1004  0.0552
27562W        W43823   6.865   4.617  11.930 -0.1733 -0.0209  0.0442
27563W        W43824  11.481  18.239  11.252 -0.0633 -0.0426 -0.1727
27564W        W43825  15.595  11.382  11.928  0.0528  0.1405  0.1414
27565W        W43826  16.984   6.782   3.195  0.0029  0.1313  0.0258
27566W        W43827   8.816  11.553  14.119 -0.0262  0.1029  0.0630
27567W        W43828   8.626   2.950  11.254  0.0271 -0.2866  0.2330
27568W        W43829  12.086  15.511  15.596 -0.0783 -0.2827  0.2062
27569W        W43830   3.948   9.253  15.235  0.0495 -0.3032  0.1780
27570W        W43831  14.995   7.822   1.598 -0.0818 -0.3997  0.1126
27571W        W43832  12.643  11.937  12.967  0.0984 -0.3741  0.1696
27572W        W43833   5.807  10.842  14.395  0.1899  0.3198  0.1335
27573W        W43834   7.910  11.864   2.303 -0.0904  0.0334 -0.1165
27574W        W43835  13.295   1.719   2.909  0.0685 -0.5549  0.0751
27575W        W43836   7.164  10.216   4.989  0.0803  0.0043  0.1042
27576W        W43837   9.498   7.050  12.887 -0.1754  0.0524 -0.1271
27577W        W43838  11.044  16.014  14.153 -0.1132  0.2948  0.2199
27578W        W43839  16.052  17.710   0.829 -0.1718  0.1131  0.0183
27579W        W43840   8.985  13.029  16.176  0.2186 -0.1567 -0.0555
27580W        W43841  18.200  13.999   5.021  0.0050 -0.1440  0.0533
27581W        W43842   8.430  18.072  15.072 -0.0002 -0.2733  0.0104
27582W        W43843  17.327   4.416   3.301  0.0804  0.0510  0.1132
27583W        W43844  12.162   2.991   2.008  0.0487  0.2455 -0.1930
27584W        W43845  12.550  12.775   2.522  0.2318  0.0149  0.1107
27585W        W43846   1.804  17.871   4.467  0.1116 -0.0139 -0.2924
27586W        W43847   4.581   3.548   1.506 -0.2159 -0.0962  0.0609
27587W        W43848   8.037  17.324   3.454 -0.0396  0.2169 -0.3436
27588W        W43849   2.570  11.642  15.000 -0.0346 -0.0963 -0.0439
27589W        W43850   5.685   2.650   1.492 -0.0838 -0.2649  0.0096
27590W        W43851  13.545   7.426  15.325 -0.0751 -0.2392 -0.0764
27591W        W43852   0.300   8.943   3.779  0.1855  0.0956  0.1018
27592W        W43853  11.178  14.352   2.398  0.0596 -0.1063  0.5121
27593W        W43854   4.304   6.316   3.602 -0.1515 -0.0950  0.0590
27594W        W43855  12.194  14.046  14.623  0.0138  0.2413  0.1839
27595W        W43856   3.121  11.984  12.901  0.3835 -0.1196  0.0945
27596W        W43857  17.430  16.460   1.312 -0.0335 -0.0691  0.2201
27597W        W43858   6.917  13.185   1.101  0.1598 -0.0665  0.3716
27598W        W43859   0.964   1.361  12.800 -0.1573 -0.0838  0.2253
27599W        W43860   9.069   1.451   2.930  0.0513 -0.1026  0.0180
27600W        W43861  16.517   3.937  15.960  0.3320 -0.2212 -0.3840
27601W        W43862  15.648   8.725  14.147 -0.1266  0.2328  0.2131
27602W        W43863   9.616   1.335   1.112  0.1932 -0.1423  0.0067
27603W        W43864  10.912  17.302  13.141  0.0174  0.3877  0.0747
27604W        W43865  11.269   8.708   5.650  0.1400 -0.1675 -0.2513
27605W        W43866  12.798   2.300   2.037 -0.0067 -0.0243 -0.0061
27606W        W43867  15.494  14.128   0.036  0.1180  0.0188 -0.0384
27607W        W43868   4.953   1.294   2.209 -0.1450 -0.1206 -0.0135
27608W        W43869   9.781  10.778   5.792 -0.0232  0.1011 -0.1877
27609W        W43870   5.285  17.132   1.079 -0.1933 -0.3297 -0.1506
27610W        W43871  18.338  18.067   3.771 -0.1098 -0.1771  0.0509
27611W        W43872  17.747  16.876   0.131  0.1271 -0.4283  0.0526
27612W        W43873   5.347  17.079   5.182 -0.1625  0.0982  0.2968
27613W        W43874  18.002   6.448   3.454 -0.2915 -0.2730 -0.0490
27614W        W43875   4.476  11.534   5.120 -0.0633  0.0813  0.1593
27615W        W43876   3.341  11.913   0.038 -0.1674 -0.4854  0.0642
27616W        W43877  18.052  10.314   5.261  0.0222 -0.2473  0.3152
27617W        W43878  17.739  17.002   2.532  0.1590 -0.0673 -0.0048
27618W        W43879  13.305   2.480  12.122  0.3392 -0.1109  0.1470
27619W        W43880  10.577   0.550   0.523 -0.1345  0.1880 -0.0322
27620W        W43881   4.152   8.789  13.605 -0.0823  0.2941  0.0716
27621W        W43882   0.078  14.563   3.311  0.1752  0.1082 -0.1288
27622W        W43883  11.480  11.795  14.544  0.2771  0.0251  0.0946
27623W        W43884  17.641   9.052  14.002  0.1335  0.2784  0.1264
27624W        W43885   9.699   5.122  12.211  0.0029 -0.0750  0.0982
27625W        W43886   0.158  10.406   4.926  0.1083 -0.1497  0.2789
27626W        W43887   3.040   4.028   4.876 -0.2323  0.0203 -0.0229
27627W        W43888   4.132  13.112  11.234 -0.2346 -0.0417 -0.0163
27628W        W43889  15.005  17.292   4.528  0.1443  0.1209 -0.4782
27629W        W43890   2.482   0.701  15.438  0.1509 -0.1035 -0.0112
27630W        W43891   2.980   8.569  11.723 -0.1790  0.0655  0.1871
27631W        W43892   5.018   4.910  14.076  0.2806  0.2059 -0.0362
27632W        W43893  16.527   9.651  14.618  0.5028  0.2521 -0.0867
27633W        W43894  10.388   0.527  13.658  0.2664  0.3722  0.2679
27634W        W43895  17.742   0.231   3.645  0.2254  0.1454 -0.3768
27635W        W43896  13.091  12.160   2.838 -0.0762  0.0182  0.1895
27636W        W43897   9.624  15.039  13.341  0.0838 -0.3007 -0.0787
27637W        W43898   4.204  12.883  11.729 -0.3281  0.0392  0.0344
27638W        W43899   2.681  16.247  14.778  0.0220 -0.1523 -0.0865
27639W        W43900   4.306  13.203   1.242  0.0213 -0.0826  0.3724
27640W        W43901  11.563  10.845   1.528  0.1363  0.2068 -0.0733
27641W        W43902   7.004   8.376  13.323 -0.0665  0.2658  0.0977
27642W        W43903   3.761  11.842  14.994  0.1132  0.3974 -0.0808
27643W        W43904   0.968  13.848   2.337 -0.1942  0.0305 -0.1931
27644W        W43905   5.966   0.223  15.841 -0.0558 -0.1410 -0.0731
27645W        W43906  16.861   6.977  14.856 -0.1650  0.1250  0.0817
27646W        W43907   0.876  16.496  16.021 -0.2363 -0.1251 -0.1043
27647W        W43908  18.290   7.924   3.620 -0.3303 -0.0911 -0.1455
27648W        W43909  15.654  11.780   0.974  0.0198  0.2259 -0.2039
27649W        W43910  16.990   0.400   6.159  0.1327  0.1616 -0.2276
27650W        W43911   3.312  11.042   3.250 -0.1181 -0.1854 -0.6167
27651W        W43912  13.847   4.687   5.426  0.3182  0.0074  0.2321
27652W        W43913  16.523  13.188   0.413 -0.0562  0.1410 -0.0863
27653W        W43914  10.626  10.369   4.913 -0.1550 -0.0662 -0.3334
27654W        W43915  16.733   1.469  15.334 -0.0531 -0.3060 -0.0099
27655W        W43916   0.713  10.061   5.638  0.2188 -0.0491  0.0847
27656W        W43917  12.072   8.041   2.537  0.0303 -0.0888  0.2514
27657W        W43918   6.588   7.714   3.438  0.1627  0.2673  0.0097
27658W        W43919  10.883  10.763  14.021 -0.1476  0.1991  0.0686
27659W        W43920  13.792   2.714   1.712  0.2708 -0.0494  0.0730
27660W        W43921   3.952  17.605  12.603  0.1879  0.2048 -0.5289
27661W        W43922   4.766  12.507   3.035 -0.0582 -0.0647  0.0565
27662W        W43923  16.647  16.763   5.188 -0.0853  0.0015 -0.2833
27663W        W43924   4.552   0.073  15.211  0.2152  0.0968 -0.3035
27664W        W43925   7.084   9.282   3.334  0.0886 -0.1586 -0.4057
27665W        W43926   1.302  17.373  16.153  0.1289 -0.1268 -0.3528
27666W        W43927   6.284   3.154  13.747 -0.2109 -0.0057 -0.1931
27667W        W43928  13.751   3.149  15.104 -0.2246 -0.0623  0.0046
27668W        W43929   4.756   9.642  15.730  0.2044 -0.0939 -0.0778
27669W        W43930   7.257  13.277   2.801  0.1516 -0.0647  0.4234
27670W        W43931   2.536  10.942  15.284 -0.0161  0.3220  0.0728
27671W        W43932   9.810   5.851   1.326 -0.1523 -0.3226 -0.1054
27672W        W43933  11.679   4.818   1.807  0.1343 -0.0374 -0.3971
27673W        W43934  11.942   7.342   0.749  0.1087  0.0627 -0.1070
27674W        W43935   9.061  14.833  11.418  0.0192 -0.2420  0.0330
27675W        W43936  15.868   7.916  14.645 -0.0762  0.0170 -0.1769
27676W        W43937   6.872  13.946   0.488 -0.2719  0.0360 -0.1846
27677W        W43938   1.911  11.570   4.303 -0.2747  0.2226 -0.0551
27678W        W43939  10.560   1.591  13.877  0.0961  0.1988 -0.4206
27679W        W43940   1.627  11.388  15.473 -0.0631 -0.0985  0.0713
27680W        W43941   1.102  14.294   4.717  0.4341 -0.2035 -0.1431
27681W        W43942   3.522  13.374   4.330  0.0117 -0.0501 -0.4202
27682W        W43943   9.362   5.456  16.058 -0.0480  0.1381 -0.1489
27683W        W43944   4.157  11.151   3.970  0.2064 -0.0491  0.4482
27684W        W43945   9.708   5.478  15.013  0.3018  0.3187  0.2285
27685W        W43946  14.507  16.657  11.733 -0.1277  0.1834  0.0657
27686W        W43947  11.075   6.157   4.059 -0.1115 -0.0038 -0.0538
27687W        W43948   6.293   4.894   4.373 -0.3747  0.1926 -0.2326
27688W        W43949   9.041   1.010  15.314  0.0046  0.0812  0.1853
27689W        W43950  10.941   1.892  14.386 -0.0151  0.0439 -0.2471
27690W        W43951  11.905  17.310  13.854  0.0477  0.1672 -0.1534
27691W        W43952  13.228  14.219   2.183  0.4560  0.0005 -0.3241
27692W        W43953   3.270  13.642   6.275  0.0015  0.0573  0.2586
27693W        W43954  11.516  12.266  14.320  0.2913  0.0121  0.1718
27694W        W43955  16.427   0.666   3.695 -0.0044  0.0204 -0.0329
27695W        W43956  12.292   7.625  15.309 -0.0124 -0.0258  0.0408
27696W        W43957  13.987   7.535   1.940 -0.1192  0.0127  0.0599
27697W        W43958  11.176  12.821  15.133  0.0615 -0.0210 -0.1618
27698W        W43959   3.353   3.182  15.916  0.1128  0.0190  0.0877
27699W        W43960  12.527  14.526  11.096  0.1920 -0.0883  0.0792
27700W        W43961  17.519   3.044  13.897  0.1897  0.0395  0.1103
27701W        W43962   0.479   4.947  13.238 -0.0781 -0.0669  0.0401
27702W        W43963   9.756   5.749   0.665  0.0767 -0.0951  0.1241
27703W        W43964  13.505  16.034   1.649 -0.0956 -0.0613 -0.0203
27704W        W43965  14.397  14.669  13.533  0.1018 -0.0342  0.1903
27705W        W43966   7.607   6.921   1.430  0.2206 -0.0679  0.2723
27706W        W43967  16.449   2.107   2.399 -0.0298  0.2246  0.1453
27707W        W43968  14.469  13.291   1.133 -0.1912  0.1368 -0.1338
27708W        W43969   0.851   6.300  13.751 -0.1426  0.1719  0.4722
27709W        W43970  14.422   2.626   2.544  0.1137  0.3049  0.2732
27710W        W43971   5.539   9.478   1.399 -0.2630 -0.0253 -0.0637
27711W        W43972   6.330  12.669  15.143 -0.1668  0.0004  0.1028
27712W        W43973   7.991  11.182   5.615  0.0955 -0.0064  0.3431
27713W        W43974  12.892   5.751   2.262  0.2161 -0.1308  0.0251
27714W        W43975   4.394   9.297  14.118 -0.0084  0.0155 -0.5437
27715W        W43976   2.501  14.772   5.892 -0.3583 -0.1398 -0.0543
27716W        W43977  11.078   4.104   4.800  0.3938  0.0235 -0.0907
27717W        W43978  11.198  16.979   1.910  0.4685  0.0074 -0.0866
27718W        W43979   1.810   5.841   1.679  0.2032 -0.0432  0.0363
27719W        W43980   0.479  13.574  11.271 -0.2258  0.0185 -0.1838
27720W        W43981  12.954   9.375  12.177  0.1257 -0.0083 -0.2729
27721W        W43982   8.681  12.920   2.353  0.1139 -0.4446  0.0389
27722W        W43983   8.612  11.460  11.489 -0.1791  0.0671 -0.3379
27723W        W43984  13.096   3.491   0.904 -0.0407 -0.0383  0.0517
27724W        W43985  16.806   8.148   2.641  0.2210 -0.4388  0.1125
27725W        W43986  11.807   1.976  13.191  0.1043 -0.0489 -0.1953
27726W        W43987  11.579   2.250  12.233 -0.2270 -0.1778  0.2316
27727W        W43988  10.546   0.685  13.227  0.1157 -0.2227 -0.1435
27728W        W43989  14.859  17.854   0.259 -0.1965 -0.0885 -0.0364
27729W        W43990   7.868   4.295  14.879  0.1400  0.1536 -0.1974
27730W        W43991   8.267  12.811  10.711 -0.1221 -0.0001  0.1876
27731W        W43992   8.309  13.727   4.244  0.2351  0.0547 -0.2679
27732W        W43993  17.268  15.897   3.604 -0.0681 -0.0761  0.1414
27733W        W43994  15.352  10.344   4.007 -0.4516  0.0590  0.0903
27734W        W43995  12.039   5.888   3.854  0.3121 -0.0062  0.0336
27735W        W43996  16.139   4.755  16.164  0.0870 -0.1257  0.1914
27736W        W43997  10.288  18.149   2.123  0.0655 -0.0512 -0.2012
27737W        W43998  12.665   9.422  13.447 -0.1078 -0.0482  0.3468
27738W        W43999   0.899  10.302  15.767 -0.0422 -0.1358  0.0074
27739W        W44000   2.712   1.069   1.013 -0.1470  0.2825 -0.0309
27740W        W44001   7.355  17.603   2.139 -0.1755  0.1319  0.1300
27741W        W44002   2.759   7.550  15.884  0.0103 -0.1285 -0.1398
27742W        W44003  10.957  11.914   2.781 -0.1185  0.3870  0.0419
27743W        W44004  10.272  14.286  15.698  0.1143  0.3105  0.0791
27744W        W44005   3.070   7.100   0.342 -0.1356 -0.0521 -0.2091
27745W        W44006  12.852   2.676  15.499  0.1804  0.0690  0.4220
27746W        W44007   5.377   0.882   2.043 -0.0291  0.1449 -0.3576
27747W        W44008   2.652   7.998   0.544 -0.0429  0.2809 -0.1715
27748W        W44009   3.745  10.930  13.385  0.1816 -0.0657 -0.0659
27749W        W44010  17.340   5.709  16.186  0.2672  0.3362 -0.3403
27750W        W44011   9.531   0.339  15.203 -0.0310 -0.2538 -0.0394
27751W        W44012   4.007  17.123   5.355 -0.0376  0.1341  0.2539
27752W        W44013   1.231   5.238   1.097 -0.0967 -0.2540  0.4309
27753W        W44014  12.971   7.880  14.329 -0.0179 -0.1191 -0.3322
27754W        W44015  15.469   9.730   5.983  0.0310  0.0540  0.1505
27755W        W44016   8.988   8.097   4.741 -0.1730 -0.2923 -0.2377
27756W        W44017  16.871   6.352  13.475  0.0068  0.1755 -0.2252
27757W        W44018   7.571   6.123  14.799  0.0232 -0.3880  0.1666
27758W        W44019   0.714  16.318   5.406 -0.1078  0.0565 -0.0253
27759W        W44020  13.675  12.099   2.009 -0.0585 -0.1152 -0.0127
27760W        W44021   0.310   2.183   3.918  0.0946 -0.1852 -0.3481
27761W        W44022   9.529   3.016   0.969  0.0014 -0.2238  0.0339
27762W        W44023  11.917  12.466   3.014  0.3311  0.0145 -0.3086
27763W        W44024   7.506   3.579  11.596 -0.0434 -0.0233  0.1286
27764W        W44025  17.235  10.095  15.069  0.0688  0.0412 -0.2781
27765W        W44026  16.030  16.972  14.815 -0.0707 -0.1931 -0.2665
27766W        W44027   6.374  11.100  15.636  0.2107  0.1645  0.1990
27767W        W44028  13.952   5.640  12.823 -0.0774  0.2477 -0.2398
27768W        W44029   2.289   6.297  12.729  0.0386  0.0947  0.4389
27769W        W44030   5.243   4.686   2.980 -0.1325 -0.0576 -0.1241
27770W        W44031  16.003  16.981  12.607  0.1756 -0.2613  0.1242
27771W        W44032   1.269   0.661  13.245  0.1328  0.0779 -0.0304
27772W        W44033  13.216  15.596  14.832 -0.0599  0.1261  0.2934
27773W        W44034   7.394   2.009  13.172 -0.1737  0.0628  0.2671
27774W        W44035   6.028  10.140  11.049  0.0263 -0.1363 -0.1972
27775W        W44036  12.127   3.713  16.259 -0.0482 -0.4262 -0.0336
27776W        W44037  16.476  15.762   3.154 -0.5348  0.1101  0.1146
27777W        W44038  11.658   3.822  13.735  0.1823 -0.1722 -0.1005
27778W        W44039  12.507   4.314   2.750 -0.0986 -0.2796 -0.1369
27779W        W44040  11.986  12.658   1.752 -0.0126  0.0029 -0.1310
27780W        W44041   3.379   0.413  12.266 -0.1282  0.2631 -0.0311
27781W        W44042  17.997   4.035   4.313  0.3548 -0.0573 -0.0870
27782W        W44043   0.284   8.656   1.009  0.2651  0.0972  0.2922
27783W        W44044  15.547   2.959   0.617 -0.1411 -0.1145 -0.2625
27784W        W44045   4.599  16.275  13.451  0.3849 -0.0356 -0.2161
27785W        W44046   0.673   0.532   3.113 -0.3216  0.1905  0.0049
27786W        W44047  17.273   9.833   2.120  0.1088  0.0257  0.0552
27787W        W44048   3.934  15.294   3.879  0.1504  0.1376 -0.3690
27788W        W44049  17.710  16.570   0.894  0.2396 -0.2505  0.0350
27789W        W44050  15.059   0.361  13.906 -0.0114 -0.0366 -0.1070
27790W        W44051  10.523  15.932   1.040  0.0020  0.0332  0.1803
27791W        W44052   1.885   9.677  14.989  0.0480  0.1569 -0.2276
27792W        W44053   9.500   8.608   4.535  0.0241  0.0528  0.1235
27793W        W44054   2.321   0.305   2.402 -0.1224 -0.5206 -0.5131
27794W        W44055   5.682   9.176  15.097  0.3808  0.0244 -0.1786
27795W        W44056   3.660   0.762   2.478 -0.0561  0.2668  0.1688
27796W        W44057  11.902  14.616  13.960  0.1539  0.1045  0.1346
27797W        W44058   1.024   0.802  15.336  0.1438 -0.1661 -0.2439
27798W        W44059  10.414  15.556  15.296 -0.0564  0.0494  0.0045
27799W        W44060  15.413   5.305   4.820 -0.0436  0.0812 -0.2527
27800W        W44061   6.289  17.580  16.172  0.0326  0.4089  0.0213
27801W        W44062   7.081   0.109  14.163  0.0796  0.0079 -0.0968
27802W        W44063  12.514  18.340  15.157 -0.0546 -0.1053 -0.1491
27803W        W44064  12.294  13.539   5.953  0.0391  0.0402 -0.1098
27804W        W44065   4.167   9.790  12.799  0.0146 -0.1767 -0.2838
27805W        W44066   0.476   6.948  15.150 -0.0780  0.0051 -0.1359
27806W        W44067   3.982   2.692   0.124  0.0128 -0.0823  0.1871
27807W        W44068  14.492   5.110   0.506  0.1525 -0.1237  0.1710
27808W        W44069  14.056   2.992   4.055 -0.1366  0.0497  0.0572
27809W        W44070   1.486  15.442  12.342  0.0199  0.0186 -0.0518
27810W        W44071   3.940   5.217  13.063  0.3647 -0.0473  0.1191
27811W        W44072   3.964   9.969  12.358 -0.3596 -0.3264  0.1958
27812W        W44073   1.164  17.520  13.134  0.3291 -0.1475 -0.0771
27813W        W44074  17.520  11.352   4.454 -0.1684 -0.0673 -0.0892
27814W        W44075  17.346  13.450  11.910  0.0209  0.2313 -0.2017
27815W        W44076   7.910   4.797   3.557 -0.3299 -0.0281 -0.4990
27816W        W44077  16.607  15.596   0.622  0.1218  0.1068 -0.2199
27817W        W44078   0.053   4.265  15.542 -0.0686 -0.2977  0.1856
27818W        W44079   3.081   9.156   1.229 -0.1614  0.2496  0.1311
27819W        W44080  14.100  10.733   0.900 -0.2196  0.0065  0.0619
27820W        W44081   9.280   7.912  15.309 -0.0757  0.3777 -0.1691
27821W        W44082   8.256   0.698  12.601 -0.4061  0.1702 -0.1221
27822W        W44083   2.998   8.270   2.348  0.1624 -0.0972 -0.0809
27823W        W44084   5.578   3.472   3.368 -0.2612  0.2064  0.2205
27824W        W44085   1.691   8.930   2.689  0.0873 -0.0009  0.7026
27825W        W44086   8.812  10.390  16.087 -0.1597 -0.2469 -0.0585
27826W        W44087   6.872  15.114  13.444  0.0994  0.0718 -0.1684
27827W        W44088  16.522  14.641  12.579  0.4050  0.0487  0.1864
27828W        W44089   3.415  17.850  15.628  0.3717  0.0299  0.4374
27829W        W44090   7.460  10.342  12.867  0.1079  0.4360 -0.2626
27830W        W44091  10.756  10.787   2.839  0.3723 -0.1326 -0.1188
27831W        W44092  17.360   1.073   3.465 -0.1288  0.1559 -0.1061
27832W        W44093   7.758   1.709  14.755 -0.0520  0.0922 -0.2105
27833W        W44094   6.154   4.237  13.011 -0.0146  0.1819 -0.1823
27834W        W44095   6.743  11.893   4.458 -0.0716 -0.0484  0.1806
27835W        W44096   0.582  10.042  14.511  0.1308  0.4926 -0.2241
27836W        W44097   5.398   6.410   5.686  0.0771 -0.0369  0.3003
27837W        W44098  17.307   0.287  15.128  0.1528  0.3594 -0.0768
27838W        W44099  14.982  12.049  13.186  0.2041  0.2698 -0.1750
27839W        W44100   2.798  12.859   4.870  0.0320 -0.0700 -0.4083
27840W        W44101  14.145  16.010   0.862 -0.2209 -0.1471 -0.0675
27841W        W44102  10.342  16.865   3.555 -0.0718  0.0222  0.0658
27842W        W44103   0.785   7.949   0.616  0.0433 -0.1221 -0.3541
27843W        W44104  10.965   4.622  12.409 -0.0304  0.1660  0.0994
27844W        W44105  12.419  18.058  14.687  0.1015 -0.0065 -0.2477
27845W        W44106  14.315  14.667   1.904  0.1366  0.1026 -0.0643
27846W        W44107  12.239   8.595  14.330  0.2156 -0.0329 -0.1007
27847W        W44108   3.347  16.784  12.932 -0.3933 -0.3421 -0.1188
27848W        W44109   1.888   2.367   4.757  0.2136 -0.3286 -0.0001
27849W        W44110   9.747  15.725   4.384 -0.1627  0.1105 -0.1009
27850W        W44111   4.100   5.878  12.106  0.0973 -0.0862  0.0047
27851W        W44112   3.096   5.008   0.535 -0.0106  0.2734 -0.0307
27852W        W44113   4.570   7.830   5.850  0.0188  0.0577 -0.1366
27853W        W44114   3.177   0.409   1.958  0.3532  0.0046 -0.2779
27854W        W44115   5.439  15.021   4.992  0.0813  0.0369 -0.0131
27855W        W44116   6.539  14.024   3.144 -0.1419  0.3052 -0.2654
27856W        W44117  18.077  16.922   2.002 -0.2151  0.3328  0.0456
27857W        W44118  15.942  16.420   1.996 -0.0568 -0.0266 -0.0678
27858W        W44119   7.984   6.802   2.386  0.3590  0.0988 -0.2030
27859W        W44120   8.548  16.404  11.976 -0.1477 -0.1340 -0.2659
27860W        W44121  11.815  14.602  12.663  0.0151 -0.0286  0.0713
27861W        W44122  11.544   3.744  14.818 -0.0932  0.1610 -0.4480
27862W        W44123   7.534   1.728  12.775  0.4949  0.0325  0.0247
27863W        W44124   9.480   8.246   2.640 -0.0155 -0.2888  0.2086
27864W        W44125  13.966   9.504   0.682 -0.3442  0.0373 -0.1113
27865W        W44126  11.710  10.959  14.819 -0.2376  0.1178 -0.1544
27866W        W44127   4.926  12.692   3.972 -0.1388 -0.0628 -0.0240
27867W        W44128   8.216   8.232  12.436  0.0591  0.2177  0.0445
27868W        W44129  14.842   9.474   3.520  0.0065 -0.1478  0.1883
27869W        W44130   8.334  11.245   0.528 -0.4438 -0.1104 -0.0855
27870W        W44131   6.597   1.570   1.640 -0.5529 -0.1266  0.0988
27871W        W44132  14.653  11.625   0.853 -0.4564  0.2713 -0.1333
27872W        W44133   8.857   1.886  12.875 -0.1408  0.0819  0.0399
27873W        W44134  16.526  10.233  13.840  0.0166 -0.1604 -0.0598
27874W        W44135   1.636  17.598  15.292  0.0863  0.1514  0.1128
27875W        W44136  12.056  11.945   2.100  0.1136  0.0468 -0.5718
27876W        W44137   5.942   7.050   5.409 -0.2251 -0.0639  0.1520
27877W        W44138  16.425   5.120  13.823 -0.2469 -0.0908  0.4892
27878W        W44139  17.159   2.355  15.282  0.0610 -0.2001 -0.1217
27879W        W44140   7.639   0.420   5.046 -0.2200 -0.1045  0.2342
27880W        W44141   6.751  14.301   5.258  0.0632  0.0088  0.0154
27881W        W44142  14.982  18.279  12.222  0.0476 -0.0629 -0.1798
27882W        W44143  17.689   5.900   4.319 -0.0019  0.0190 -0.2192
27883W        W44144   2.603   2.311   3.525 -0.1704  0.0710  0.0538
27884W        W44145   0.397   2.575  16.293  0.2816  0.1584  0.1680
27885W        W44146   5.111   2.909   1.096  0.1430  0.1626 -0.0498
27886W        W44147   8.655   3.840  15.280 -0.0932  0.0890 -0.0193
27887W        W44148  10.399   4.106   2.918  0.4733  0.1114  0.2860
27888W        W44149  15.617   4.466   0.345 -0.0737  0.2586  0.1703
27889W        W44150  15.790   7.397   2.699 -0.0129 -0.2020 -0.2579
27890W        W44151   7.612   8.488   1.470 -0.0213  0.3449 -0.1282
27891W        W44152  13.860  13.541  15.409 -0.2868 -0.0526  0.1315
27892W        W44153   4.997   2.522  16.279  0.0455 -0.1565 -0.0418
27893W        W44154   8.615  15.826   0.012  0.1257  0.0691  0.3622
27894W        W44155  16.985   1.022  12.167 -0.1243  0.3218  0.4041
27895W        W44156   4.123   1.235   1.718  0.4960 -0.1059 -0.1441
27896W        W44157  10.842  15.903  11.337  0.2183 -0.2542  0.1095
27897W        W44158   6.377  12.648  13.300 -0.0293  0.1649  0.4623
27898W        W44159  15.388   8.623   3.608  0.0492  0.0755  0.1681
27899W        W44160   2.821   2.011   6.241  0.0067  0.4561 -0.0420
27900W        W44161  17.283   9.925   3.239  0.1003  0.0426  0.2692
27901W        W44162  11.998  12.788   2.670 -0.1988  0.2368  0.0460
27902W        W44163  12.973  13.674  15.477  0.0042 -0.1660 -0.3216
27903W        W44164  15.724   8.970  11.154 -0.1547 -0.0939 -0.1930
27904W        W44165  18.035   9.293  11.636  0.0893  0.2257  0.1203
27905W        W44166  15.484   4.832   2.935 -0.0862  0.0238  0.4061
27906W        W44167   9.279   5.970   1.534 -0.2032 -0.0175 -0.0375
27907W        W44168   1.173  11.855  16.068  0.0317  0.0295  0.3172
27908W        W44169   6.566  14.764  13.174  0.2200  0.1255 -0.1324
27909W        W44170   2.062  16.930   3.494  0.1145  0.0348  0.0358
27910W        W44171   2.954  17.590   5.920  0.1428 -0.1753 -0.1066
27911W        W44172  14.392   1.573  12.392  0.0890 -0.0745 -0.2809
27912W        W44173   1.396  16.615   4.214  0.1491  0.0395  0.0632
27913W        W44174   4.669  15.466   2.103 -0.1205  0.0127 -0.1143
27914W        W44175  16.439   6.600   5.882 -0.1500  0.2394 -0.1874
27915W        W44176   6.486  16.445   2.171  0.2177  0.1751 -0.3655
27916W        W44177  15.394  11.708   1.937 -0.2628 -0.1283 -0.2872
27917W        W44178   4.972  12.546   0.850 -0.0652 -0.0431  0.2062
27918W        W44179   3.120  14.721  13.800  0.2249 -0.0288 -0.0083
27919W        W44180   7.856  16.179   2.018  0.1351  0.0440  0.0162
27920W        W44181   0.769  11.578   4.595 -0.0585  0.1093 -0.1499
27921W        W44182  12.468  17.086   4.902  0.2038 -0.2619  0.1878
27922W        W44183  14.651  17.368  12.113  0.2931  0.1046 -0.2672
27923W        W44184   4.038  13.529   0.939 -0.1028  0.3061 -0.1902
27924W        W44185   6.254  11.160  16.169  0.1333  0.1203  0.1773
27925W        W44186  13.932   2.860  16.164 -0.0843  0.0597  0.0361
27926W        W44187  11.466  10.475   3.793  0.1694 -0.1107 -0.1832
27927W        W44188   4.112  12.000   5.771  0.1198  0.0898  0.0840
27928W        W44189   0.680  12.749  15.644 -0.0868 -0.1910  0.1393
27929W        W44190  16.198  18.220   3.840  0.0469 -0.2671  0.2392
27930W        W44191  18.025  17.559  13.067  0.3204 -0.1357  0.2290
27931W        W44192  10.608   6.520  10.732  0.0765 -0.0069  0.2824
27932W        W44193   0.929   4.146   5.255 -0.0040  0.1233 -0.0527
27933W        W44194   9.565   3.887   3.156 -0.1349 -0.1205  0.1059
27934W        W44195   7.667   0.789   0.087  0.0660  0.0512 -0.3599
27935W        W44196  10.555   2.135  14.579 -0.1143 -0.1546  0.4233
27936W        W44197  18.112  15.713  16.112  0.2116 -0.3377 -0.0207
27937W        W44198  15.935   3.605   0.224  0.2445  0.1358 -0.2661
27938W        W44199  12.774  15.080   3.787 -0.0355  0.0564 -0.3637
27939W        W44200   1.571   9.819  14.499 -0.4592  0.0245  0.3479
27940W        W44201   5.227   5.387   0.756  0.3284 -0.1822  0.1211
27941W        W44202   6.813  12.079   5.236 -0.1206  0.0746 -0.1372
27942W        W44203   9.351  10.392   1.465  0.0123  0.1904 -0.0263
27943W        W44204   3.666   1.344   3.397 -0.0470 -0.1551  0.1679
27944W        W44205   0.668   3.669  15.813  0.1648 -0.0575  0.2717
27945W        W44206   8.891  15.940  14.531  0.1141 -0.4132 -0.1294
27946W        W44207  10.856   8.435   1.099 -0.0675  0.2634  0.0855
27947W        W44208   1.791   1.614   5.231 -0.1948 -0.4295  0.0216
27948W        W44209   8.560   7.888   2.491  0.0239  0.1823  0.0934
27949W        W44210   0.154  16.652   3.006  0.3456 -0.0423 -0.1179
27950W        W44211  14.190  12.855   1.036 -0.0265 -0.2859  0.4112
27951W        W44212   0.809  14.448   2.708 -0.0608 -0.0959 -0.0817
27952W        W44213  10.888   7.585   4.600 -0.1094  0.0378 -0.3598
27953W        W44214   8.382  17.262  11.821 -0.5838  0.0936 -0.4206
27954W        W44215  12.111  14.988  12.238  0.1111 -0.0301  0.2838
27955W        W44216   7.459   4.455  11.197  0.1788 -0.3192 -0.0378
27956W        W44217  15.118   9.681  11.531 -0.0378  0.1694  0.0123
27957W        W44218   5.593  11.613   5.598 -0.1924 -0.0383  0.4056
27958W        W44219  16.835   6.470   4.501  0.0960  0.0144  0.0512
27959W        W44220  12.674   6.252   4.584 -0.2483  0.0774  0.2112
27960W        W44221   5.336  15.950   1.266 -0.1378 -0.0192 -0.2166
27961W        W44222  12.573  14.325   0.644  0.2251  0.1053 -0.0234
27962W        W44223   9.069  12.697  15.793  0.1578 -0.0913 -0.2857
27963W        W44224  13.730  10.972  13.982 -0.1500 -0.2801  0.3126
27964W        W44225  10.893  14.299  12.493 -0.1190 -0.1308  0.1113
27965W        W44226   4.987  13.272   4.258 -0.2691 -0.2935  0.0735
27966W        W44227  10.691   2.088  11.802 -0.0726 -0.2115  0.1097
27967W        W44228   6.219  14.250   5.272 -0.0698  0.1699  0.5557
27968W        W44229   0.364   5.282   5.601  0.0116 -0.0879 -0.1223
27969W        W44230  10.613   6.934  12.258 -0.3682 -0.0778 -0.1284
27970W        W44231  16.634  11.277  10.979 -0.3684  0.1050  0.2719
27971W        W44232  11.941   9.736   1.833 -0.1860 -0.2324  0.2973
27972W        W44233   7.883  16.687  11.285 -0.0334  0.0834 -0.1524
27973W        W44234   6.122   2.068  14.548  0.1520 -0.1642  0.0151
27974W        W44235   2.637   3.097   0.845 -0.0113 -0.3017 -0.1711
27975W        W44236  11.037  14.105  14.247 -0.1596 -0.2353 -0.0125
27976W        W44237  14.249   0.703  15.404 -0.5541 -0.0094  0.2171
27977W        W44238   7.296  11.601  15.467  0.0987  0.1603  0.3538
27978W        W44239   0.457   2.885   1.519  0.2311  0.2497 -0.1119
27979W        W44240   5.891   2.272   3.910 -0.0341 -0.1966  0.1774
27980W        W44241  14.976   2.273   4.555  0.0254 -0.0933  0.0131
27981W        W44242   7.776  16.464   5.025  0.1352 -0.2002 -0.3261
27982W        W44243  15.321  14.090  15.092  0.0721 -0.1461  0.0693
27983W        W44244   1.617   1.169   5.163  0.2494  0.0982  0.1445
27984W        W44245   9.587   8.377  12.185  0.0332  0.1706  0.1317
27985W        W44246   7.220   7.180  10.976  0.3486  0.0152  0.1328
27986W        W44247   9.851   2.570  11.966  0.0080 -0.1362 -0.2085
27987W        W44248  12.486  13.010   5.463 -0.0723 -0.2070  0.1331
27988W        W44249   6.314  11.170  12.511  0.2154 -0.1882  0.2647
27989W        W44250   3.838  17.235   4.034 -0.1834  0.2312 -0.0986
27990W        W44251  10.685  12.777   1.321  0.0342  0.0301 -0.0346
27991W        W44252   0.185   6.842  15.628  0.2050 -0.2451  0.0579
27992W        W44253   3.111  12.141   0.885  0.1094 -0.1895  0.2877
27993W        W44254   7.194   1.646  13.913 -0.0609 -0.1985 -0.1469
27994W        W44255  11.742  17.206  13.372 -0.0287 -0.1229 -0.2345
27995W        W44256   8.502  17.695   1.264 -0.0011  0.3259  0.1106
27996W        W44257   2.944   9.308   0.796  0.0391 -0.1895  0.0302
27997W        W44258   1.476   1.437   4.417 -0.1350 -0.0214  0.0054
27998W        W44259  13.836   9.970  15.609  0.1710  0.0836 -0.2958
27999W        W44260  17.091  12.505   1.189 -0.0388 -0.1268 -0.0566
28000W        W44261   6.350  14.728   5.125 -0.2196 -0.2464 -0.1121
28001W        W44262  16.446   4.767  11.859 -0.0888 -0.2108 -0.0488
28002W        W44263  17.421   4.000   1.652  0.1711  0.0104  0.0817
28003W        W44264  17.851  16.960  13.111  0.0643  0.2108 -0.0674
28004W        W44265  10.416  17.758   5.685 -0.0128  0.0091 -0.1069
28005W        W44266   8.536   1.059   5.387 -0.1698  0.0734 -0.1419
28006W        W44267   3.481   6.996  15.449  0.0899  0.1615  0.0133
28007W        W44268   0.461  12.412   4.025 -0.0416 -0.0370  0.0643
28008W        W44269   2.219   3.155   5.086  0.1048  0.3874  0.0526
28009W        W44270   4.830  16.391  12.246  0.1890  0.1030 -0.1234
28010W        W44271   6.652   4.896  15.120  0.2936  0.2648  0.1710
28011W        W44272   7.474   5.068  15.218 -0.0321  0.5395  0.3100
28012W        W44273  13.682  17.254   0.043 -0.0831  0.1676 -0.2606
28013W        W44274   2.591   3.621   0.881  0.0539 -0.1244  0.2042
28014W        W44275  12.596   5.921   3.816 -0.2175 -0.1060  0.2190
28015W        W44276  15.863  17.063   0.308  0.3235  0.1980  0.0058
28016W        W44277  15.650  11.613  12.528 -0.3452  0.0731  0.3271
28017W        W44278  13.343   7.518   2.624 -0.0212 -0.2709 -0.0981
28018W        W44279   0.393   2.878   3.479  0.5483  0.0241 -0.0190
28019W        W44280   1.568  15.475  15.015  0.1270 -0.2277 -0.1251
28020W        W44281  12.256  12.486  12.304 -0.1754  0.0656  0.0756
28021W        W44282   5.591  16.966  12.817  0.3708  0.2543  0.0242
28022W        W44283   4.525  10.462   2.698  0.1757 -0.0252 -0.4776
28023W        W44284  16.763  11.993  13.357 -0.1747 -0.0150  0.0166
28024W        W44285  15.859  13.696  15.712  0.2106 -0.0812  0.1219
28025W        W44286  11.855   8.193   0.326  0.0734  0.1768  0.2005
28026W        W44287   9.686  14.598   5.768 -0.0792 -0.2799 -0.1080
28027W        W44288   1.137  16.795   3.851  0.0454 -0.3302 -0.0391
28028W        W44289  13.676   7.446   0.241 -0.2358  0.1860 -0.0298
28029W        W44290   4.533   4.314   2.971 -0.2295 -0.2221  0.4220
28030W        W44291   6.095  12.340   3.156  0.0478 -0.1618 -0.0990
28031W        W44292   6.176  16.302   4.111  0.1515 -0.1637 -0.0374
28032W        W44293   8.430  14.596  13.966 -0.2212 -0.0427 -0.3604
28033W        W44294   5.476   9.682  12.738  0.1526 -0.0483 -0.0198
28034W        W44295   8.413  15.043   2.384  0.1203  0.1748 -0.0345
28035W        W44296  11.369  15.340   2.114  0.1040 -0.1628  0.0472
28036W        W44297   5.414   3.042   4.434 -0.0385 -0.1481  0.0608
28037W        W44298   4.260  11.430  11.982 -0.3959 -0.1255 -0.1347
28038W        W44299   5.090   2.463  15.160 -0.0065  0.3611 -0.1432
28039W        W44300   2.664  11.116  15.750 -0.1139  0.1317 -0.0669
28040W        W44301   5.683   8.427  14.260  0.1493 -0.1614 -0.0022
28041W        W44302   6.554  11.853   3.765  0.2132  0.1082 -0.0261
28042W        W44303   2.144  17.125   1.487 -0.0203 -0.3549  0.0762
28043W        W44304  11.613   8.033   2.798  0.0939  0.1161  0.4735
28044W        W44305  17.130   7.700  13.655 -0.1697 -0.1229  0.0260
28045W        W44306   9.437  16.906  13.869  0.4026  0.1249  0.2125
28046W        W44307   1.412   1.093   4.050 -0.2423  0.1384  0.0422
28047W        W44308   0.801   9.993  11.100 -0.0289  0.1290  0.3023
28048W        W44309  10.238  17.115   2.764  0.2385  0.1158  0.1262
28049W        W44310   9.981  10.154  13.899 -0.3796  0.1321  0.0767
28050W        W44311   2.335  10.876   3.813  0.3744  0.1710  0.0927
28051W        W44312  12.398   9.039  13.835 -0.2472 -0.0810  0.2098
28052W        W44313  18.109  10.085   1.544 -0.0164 -0.0333  0.1158
28053W        W44314  14.133   2.367   4.535 -0.1318 -0.2997 -0.0315
28054W        W44315  12.114   2.893  14.588 -0.0663  0.3103 -0.0163
28055W        W44316   7.472  16.519   1.802 -0.3380  0.2643 -0.0934
28056W        W44317   5.218   7.265  12.273 -0.0251  0.3511 -0.2224
28057W        W44318   4.399  11.786  14.419  0.0842 -0.1565 -0.1907
28058W        W44319   6.516  11.607  11.548  0.1015  0.0212  0.3533
28059W        W44320  18.216   9.720   1.884  0.0976 -0.0924  0.1701
28060W        W44321   6.383   1.822   5.791 -0.1712  0.3593  0.1371
28061W        W44322   5.647  10.607   2.437  0.2820  0.0895 -0.0364
28062W        W44323   4.010   1.936  16.181  0.3271 -0.1009 -0.0402
28063W        W44324   3.861   6.874  13.272  0.2010 -0.0250  0.2770
28064W        W44325  16.483  11.100  12.507  0.3089 -0.0554 -0.1679
28065W        W44326  13.690  14.726   5.905 -0.1671  0.0125 -0.1302
28066W        W44327  15.744   7.260   0.515  0.1272 -0.2900  0.1806
28067W        W44328  12.885  12.451  14.801  0.0348 -0.0109 -0.1327
28068W        W44329  10.362   2.177   3.265 -0.0008  0.1308 -0.0776
28069W        W44330   9.108  17.646   0.809  0.1481  0.0279  0.5505
28070W        W44331   1.616   2.494   2.119  0.1311  0.3920  0.2960
28071W        W44332   7.969  10.581   4.655  0.4895 -0.1807 -0.0505
28072W        W44333  18.327   3.009  11.646  0.0900  0.3610 -0.0437
28073W        W44334   8.071   8.318   1.286  0.2273  0.0187  0.0458
28074W        W44335   2.672   1.159   3.019  0.3104 -0.3743  0.3088
28075W        W44336   1.515  13.476   5.282  0.1175  0.2095  0.1921
28076W        W44337  12.126   4.531   1.805  0.0724  0.0232  0.0547
28077W        W44338   5.803   6.489   4.865  0.0921 -0.0907 -0.1656
28078W        W44339  16.910  10.284   1.322 -0.0760 -0.2666  0.0286
28079W        W44340  16.213   4.329  11.766  0.2596  0.2229  0.0079
28080W        W44341   2.155  13.755   3.627  0.3113  0.1067 -0.1841
28081W        W44342   9.083   9.954  14.180  0.0207  0.1277  0.1524
28082W        W44343   0.360   5.586  14.108  0.0102  0.1901  0.1485
28083W        W44344  18.352  10.599   2.982  0.1122  0.0174 -0.0699
28084W        W44345  16.989  11.652   5.345 -0.1581  0.1959 -0.2585
28085W        W44346  10.828   6.214  13.524 -0.4065  0.2846 -0.1644
28086W        W44347   1.531   6.166   1.925 -0.1474  0.2223  0.0937
28087W        W44348   9.577   9.744   0.112  0.3012  0.0312 -0.0335
28088W        W44349  17.967   4.694   5.381  0.0419  0.0210  0.0683
28089W        W44350   8.642   6.020  14.604 -0.0432 -0.4098  0.0697
28090W        W44351   3.769  11.611  15.420  0.0462  0.0389  0.1875
28091W        W44352   4.942  16.113   2.964 -0.2537 -0.1500  0.1466
28092W        W44353   4.912   6.568  14.051  0.0190  0.1036 -0.4001
28093W        W44354   2.886  15.814   4.592  0.1295  0.3194  0.1697
28094W        W44355  16.741  15.436   1.890 -0.0644  0.2539  0.0292
28095W        W44356  11.685  16.162  14.847  0.1233 -0.1488  0.5046
28096W        W44357   9.340  15.683  13.877  0.2456  0.2555  0.1529
28097W        W44358   7.006  11.569   2.155 -0.0131 -0.0007  0.0544
28098W        W44359   8.828   7.100  12.248 -0.1018  0.1493 -0.1269
28099W        W44360   9.434   2.327   4.258 -0.1883 -0.0744  0.0398
28100W        W44361  15.261   6.876   2.873  0.0249 -0.1392  0.1059
28101W        W44362  13.860   2.986  12.376  0.2225  0.0614 -0.0660
28102W        W44363  14.390  12.630  12.924  0.1877 -0.0947  0.0786
28103W        W44364   0.911  13.111   1.610 -0.0134 -0.3343  0.0806
28104W        W44365   8.514  12.964  12.045 -0.0354 -0.1796  0.1663
28105W        W44366  17.608   8.330   4.083 -0.2885  0.2294 -0.1091
28106W        W44367   6.224   8.206  15.970  0.2003  0.2496 -0.1136
28107W        W44368   9.832  12.194  14.675 -0.3024  0.0891  0.0836
28108W        W44369  15.010   7.871   2.686 -0.1130  0.0560  0.0726
28109W        W44370  18.208  11.914  12.387  0.1177 -0.3411 -0.0154
28110W        W44371  10.516  12.029   3.085  0.2859  0.1712 -0.1664
28111W        W44372  14.786   7.010  12.098 -0.0474 -0.0571  0.2529
28112W        W44373  10.877   8.058   1.988 -0.1348 -0.0794 -0.2151
28113W        W44374  10.226   3.723   2.043  0.2821 -0.2126  0.1305
28114W        W44375   9.549  10.250  13.965 -0.0917 -0.4276 -0.6950
28115W        W44376  10.224  16.783  15.969  0.3318 -0.0560  0.3003
28116W        W44377   5.701   5.110  11.375  0.3884 -0.2701  0.2997
28117W        W44378   0.973  16.837   3.222  0.1932  0.1534 -0.1207
28118W        W44379   4.047   5.418   3.379  0.0310 -0.0524  0.0095
28119W        W44380  14.826  12.517  13.162  0.1076 -0.2726 -0.0437
28120W        W44381   1.814   8.514   1.107 -0.0409 -0.2210  0.0999
28121W        W44382   7.630   6.383  13.425 -0.0768 -0.0253  0.2328
28122W        W44383   1.960  11.771  13.959 -0.4276  0.0571 -0.0220
28123W        W44384   1.180   6.991   1.543 -0.2813  0.0644  0.0150
28124W        W44385   6.142   0.537   5.024 -0.1740 -0.0799 -0.2231
28125W        W44386   7.480  11.610   3.937  0.1016  0.0827 -0.0810
28126W        W44387  13.969   1.666  15.109 -0.1676 -0.1895  0.0487
28127W        W44388   8.711  15.049   1.522  0.0279  0.2607  0.0379
28128W        W44389  16.884   3.126   0.428  0.0559  0.1643 -0.2430
28129W        W44390  12.404   5.089  12.184  0.0621 -0.2598 -0.3067
28130W        W44391  13.810   5.241   3.242  0.0262  0.0704 -0.1369
28131W        W44392  13.117   9.833  14.926  0.3793 -0.0993 -0.0411
28132W        W44393   3.585   4.809   0.599  0.0407  0.1601  0.1133
28133W        W44394  11.705  11.767  16.262  0.2055  0.1476 -0.2842
28134W        W44395   0.398   6.455   3.556 -0.0011  0.4257 -0.1751
28135W        W44396   7.666   1.057  12.785 -0.1003 -0.1688  0.3055
28136W        W44397  15.804  12.183  13.262 -0.1502 -0.1354  0.0100
28137W        W44398  11.091  16.234   5.705 -0.0220  0.0399 -0.0047
28138W        W44399  16.921  16.108  12.037 -0.1707 -0.0008 -0.0065
28139W        W44400   3.309  10.722  13.442  0.1884  0.1491  0.0146
28140W        W44401  13.560   0.502  13.747 -0.3537 -0.1235 -0.2457
28141W        W44402   8.073  12.831  14.570  0.2500 -0.0430 -0.0223
28142W        W44403   4.463   8.515   2.450  0.1406  0.1856 -0.1056
28143W        W44404  14.819   1.498   0.023  0.1608 -0.1696 -0.2118
28144W        W44405  10.594  11.476   0.753 -0.5917 -0.0729  0.0125
28145W        W44406  13.935   9.214  14.904 -0.1796 -0.2129 -0.1235
28146W        W44407   0.756  10.066   2.502 -0.1790  0.1562 -0.0617
28147W        W44408  12.680   5.018   2.309 -0.0396  0.1077  0.0843
28148W        W44409  13.507   8.169  15.225 -0.0657  0.1481 -0.2110
28149W        W44410  16.623   5.937  13.980  0.4356  0.0074  0.0823
28150W        W44411   8.360   1.911   2.737  0.0403 -0.0207  0.1857
28151W        W44412   4.396   2.908  13.194 -0.1230  0.0829 -0.0700
28152W        W44413   1.993  10.793   4.225  0.2097 -0.0421  0.2016
28153W        W44414  11.328   0.578   4.323 -0.0332  0.0434 -0.2017
28154W        W44415   3.334  15.403  16.003 -0.0612 -0.0778 -0.1825
28155W        W44416   8.515   8.171   3.140  0.1365  0.2202  0.1830
28156W        W44417   6.449   8.573   5.050 -0.0808 -0.0312 -0.0715
28157W        W44418   9.443   0.976   2.367 -0.3154  0.1560  0.1609
28158W        W44419  17.998   7.291  16.083 -0.0881 -0.1319  0.1871
28159W        W44420   7.685  16.506   2.348  0.3603 -0.1874 -0.0484
28160W        W44421   2.110   5.710  13.399  0.0855 -0.1849 -0.1568
28161W        W44422  11.974   3.680   5.765 -0.1083  0.0596 -0.3127
28162W        W44423   7.254   7.097  12.516  0.0225 -0.0053  0.2670
28163W        W44424  10.764  11.659   3.415 -0.1693 -0.1314 -0.2194
28164W        W44425  11.443  15.860   3.144  0.0092  0.0692 -0.1013
28165W        W44426   7.578   0.587  13.541  0.1083 -0.2115  0.1448
28166W        W44427   5.294  11.056   5.607 -0.3092 -0.0630  0.0147
28167W        W44428   3.091   0.586  13.406  0.0055  0.2823  0.1944
28168W        W44429  15.941   4.803   1.410  0.1860 -0.1017  0.2059
28169W        W44430   1.746  11.664   3.564  0.0955  0.0193  0.0038
28170W        W44431  17.586  16.470  15.720  0.1331 -0.1700 -0.0471
28171W        W44432   4.513   7.472  13.626 -0.0062 -0.1040  0.2281
28172W        W44433  12.000   0.590   1.600  0.1863 -0.0143 -0.3094
28173W        W44434  10.605  15.619   4.196 -0.0266 -0.1405 -0.1007
28174W        W44435  17.689   2.548   1.178 -0.3588  0.1121  0.2327
28175W        W44436   9.133   5.599  14.257  0.0746 -0.0488  0.2353
28176W        W44437   6.546  12.022  10.349 -0.2849  0.0854  0.0951
28177W        W44438  13.186  11.931   4.223 -0.0029 -0.2040 -0.0941
28178W        W44439   3.141   1.279   0.258 -0.2225  0.2139  0.0192
28179W        W44440   8.340   8.659   3.359 -0.0430  0.1907 -0.0892
28180W        W44441  10.939   0.505   2.748  0.0403  0.2880  0.4031
28181W        W44442   8.549  13.644   0.409  0.1160 -0.1569  0.2033
28182W        W44443  12.343   6.738  16.267 -0.1993 -0.4477 -0.0631
28183W        W44444   5.249   6.651   4.893 -0.1397 -0.2236  0.0895
28184W        W44445  17.680   8.994   1.634  0.0647 -0.0277  0.3208
28185W        W44446   4.919   0.625   2.213  0.2994  0.1954  0.0698
28186W        W44447  12.461   0.156  14.716  0.1724  0.0513 -0.0243
28187W        W44448  18.307   3.317   4.680 -0.0703  0.2433 -0.2515
28188W        W44449  13.064  15.094  15.307 -0.2247  0.0023 -0.0764
28189W        W44450  16.217   6.211   1.602  0.0442 -0.0476 -0.1483
28190W        W44451   9.603   6.739   0.269 -0.2771  0.1324  0.1176
28191W        W44452  12.155   5.101   4.102  0.0448  0.2139 -0.3316
28192W        W44453  12.970   0.742  15.314  0.0121  0.2374 -0.3044
28193W        W44454   2.411   8.957  12.911 -0.1418  0.0967  0.1499
28194W        W44455  18.382  17.442  16.226 -0.2762 -0.3845  0.3024
28195W        W44456   0.428   7.397  15.447  0.0637  0.0268 -0.0910
28196W        W44457  17.452  12.082   3.464 -0.1128  0.4051 -0.2265
28197W        W44458  14.068   8.573   4.400  0.1478  0.2888  0.0720
28198W        W44459  17.673  15.092  12.166 -0.2285 -0.2245 -0.0338
28199W        W44460  16.103   7.800   5.440 -0.3843 -0.2570  0.1765
28200W        W44461  17.232  10.351   2.343 -0.0330 -0.3744  0.2106
28201W        W44462  18.242  10.856  11.855  0.0024  0.2614  0.0818
28202W        W44463   0.507  13.425   3.962  0.2695  0.0616  0.2614
28203W        W44464   4.661   5.769  14.616  0.1947 -0.1044 -0.0490
28204W        W44465  12.074   1.112   2.822  0.3462 -0.2843  0.0372
28205W        W44466   2.256  11.251  16.172  0.1010  0.0539  0.1067
28206W        W44467  12.836  18.121  12.971  0.1204  0.4991 -0.2303
28207W        W44468  14.579   3.801   1.394 -0.1865 -0.1733 -0.2288
28208W        W44469  17.443   4.188  12.639 -0.0407  0.5390 -0.1676
28209W        W44470   6.805  13.455   2.514 -0.0664 -0.2424 -0.1458
28210W        W44471   2.374  12.769   6.081  0.6179  0.1665  0.2423
28211W        W44472   4.785  13.640   3.959  0.0405 -0.0487 -0.1101
28212W        W44473   7.648   8.975  12.025 -0.1102  0.2371  0.0587
28213W        W44474  15.204  11.587  12.241 -0.1120 -0.0284 -0.2031
28214W        W44475  13.580   0.368  12.891 -0.0665 -0.3430 -0.2021
28215W        W44476  16.743  15.782   1.554 -0.1330  0.2246  0.1691
28216W        W44477  13.135  13.105   1.181 -0.0119  0.0362  0.2221
28217W        W44478  17.957  18.270   4.571  0.2407  0.2691  0.1858
28218W        W44479   6.386  15.792   0.800  0.0398 -0.2595  0.4834
28219W        W44480  16.933  15.704   2.270 -0.0654  0.1167 -0.5080
28220W        W44481  11.854   8.189  12.808  0.1306 -0.3339 -0.2780
28221W        W44482   7.162  15.418  11.787  0.0741  0.0429 -0.2498
28222W        W44483  12.438  15.246   2.611 -0.0842 -0.2066 -0.1773
28223W        W44484  13.701   1.032   0.264 -0.2721 -0.1671 -0.2694
28224W        W44485   7.426  17.437   3.801 -0.0996 -0.1818 -0.3469
28225W        W44486  10.633   2.278   4.481  0.1692  0.0095 -0.1464
28226W        W44487   8.295  14.836  12.089 -0.1280  0.2828  0.1356
28227W        W44488   8.138   7.977   5.632 -0.1754 -0.1572 -0.1162
28228W        W44489   7.014   1.966  12.024  0.2965 -0.0138 -0.2584
28229W        W44490   8.165   2.893   1.236  0.0430 -0.4641 -0.0792
28230W        W44491   2.519   4.725  15.047  0.1305 -0.0797  0.2445
28231W        W44492  12.610   7.182  14.611 -0.3025  0.0365  0.4609
28232W        W44493  11.021  10.374  12.701  0.0008  0.1323 -0.0167
28233W        W44494   6.869  11.755  14.571  0.0578 -0.0336  0.5900
28234W        W44495   2.138  12.841   3.914  0.2298 -0.0420  0.2126
28235W        W44496   8.472   9.506   5.100  0.0183 -0.0335 -0.1587
28236W        W44497   1.215  10.445  11.818 -0.0674 -0.0845  0.0689
28237W        W44498   7.641  11.532  16.245  0.1487 -0.1913  0.3127
28238W        W44499  16.668  11.433  15.574  0.1221  0.0194 -0.1536
28239W        W44500  13.384  17.022   4.624 -0.1799 -0.0214  0.1088
28240W        W44501  15.185   7.695  12.596 -0.0009 -0.2085 -0.0775
28241W        W44502   5.751   4.817  13.367  0.0624 -0.2085 -0.4287
28242W        W44503  15.063  13.667   5.352  0.0157 -0.1671 -0.0785
28243W        W44504   7.675   6.946  14.176  0.2506  0.2764  0.2668
28244W        W44505   7.930   8.099   1.736 -0.0188  0.3378 -0.3511
28245W        W44506  17.050   0.221  11.938  0.2526 -0.0411  0.2886
28246W        W44507   2.522   3.982   1.660 -0.2180 -0.1201 -0.0363
28247W        W44508  17.955   7.904   5.041  0.2724 -0.1680 -0.4086
28248W        W44509   5.131   6.309  12.304 -0.0785  0.5544 -0.1208
28249W        W44510  14.222  16.441   0.062  0.2095  0.1930 -0.1478
28250W        W44511   7.081   7.755   3.036 -0.2492  0.4197  0.3584
28251W        W44512   7.859   6.051   4.475  0.1531 -0.0314  0.2394
28252W        W44513   6.934  16.254  16.113 -0.3698  0.0889  0.1636
28253W        W44514  15.927   4.112   2.612 -0.3784  0.0965 -0.2415
28254W        W44515  14.711   2.560   3.024  0.1539 -0.0081 -0.0448
28255W        W44516   7.579  18.325  16.193  0.1484 -0.5190 -0.0833
28256W        W44517   4.786   1.648   3.713  0.1265  0.0522 -0.0844
28257W        W44518  10.133  14.163   5.702  0.2444 -0.1176 -0.0815
28258W        W44519   1.422  13.337   4.285 -0.1044  0.0297  0.1517
28259W        W44520   8.844  14.470  15.753 -0.3633  0.0859 -0.0764
28260W        W44521   2.848  17.120   4.648  0.1381 -0.3765 -0.1485
28261W        W44522  15.142  12.371   3.652  0.1048  0.4025  0.1090
28262W        W44523   2.603   3.358   6.158 -0.3341  0.3775  0.3974
28263W        W44524   7.898  14.109  13.593 -0.1551 -0.2596  0.0645
28264W        W44525  16.837   1.449  12.736 -0.2187 -0.3321 -0.1244
28265W        W44526   4.629   2.042   1.022 -0.1107 -0.0195  0.1667
28266W        W44527  12.202  13.189   4.480 -0.1629  0.2698 -0.1136
28267W        W44528   5.995   8.125   3.949 -0.1224 -0.0231  0.1124
28268W        W44529  17.055   7.775   1.014 -0.0086  0.1149  0.1529
28269W        W44530   1.147  10.815   4.741 -0.2073 -0.0930  0.1390
28270W        W44531   8.108   9.817   3.791  0.0752 -0.2357 -0.0513
28271W        W44532   6.216  10.562  14.154 -0.1481  0.2932  0.2475
28272W        W44533   9.068   8.592  12.052 -0.0574  0.3593 -0.1674
28273W        W44534  13.144  16.263  15.511 -0.2484 -0.0811 -0.2793
28274W        W44535   3.939   7.186   2.407 -0.1544  0.1216 -0.1866
28275W        W44536   5.487   0.217   0.326  0.0406 -0.0557 -0.0963
28276W        W44537   6.546   4.787   2.400  0.1543 -0.0515  0.0301
28277W        W44538   8.073   5.139   5.480 -0.0785  0.2424  0.0997
28278W        W44539   7.976   4.119   1.400 -0.0257  0.1624 -0.2785
28279W        W44540   1.969   7.979   2.297  0.6370 -0.1905  0.1331
28280W        W44541  18.264   6.177   1.381 -0.1459  0.0758  0.2417
28281W        W44542   1.730  17.339   5.809  0.1504  0.0069 -0.2616
28282W        W44543  14.193  14.107   2.523  0.1056 -0.1756  0.0249
28283W        W44544   7.579  12.421   0.722  0.2834  0.1388  0.1272
28284W        W44545   8.223   4.621   5.869  0.2387  0.1598 -0.0718
28285W        W44546   1.983  15.079   2.206  0.1519  0.1853  0.3405
28286W        W44547   7.599   6.202   3.933 -0.1447 -0.1802  0.0718
28287W        W44548   1.138  15.225   1.983 -0.2488  0.1829  0.0597
28288W        W44549  13.438  14.432  10.861  0.4080  0.4586 -0.4170
28289W        W44550  18.295   7.802  11.383 -0.0259 -0.1463  0.0936
28290W        W44551  15.944  10.443   3.688 -0.1243 -0.4972  0.1332
28291W        W44552   6.680  15.042   3.140 -0.0173 -0.1932  0.0311
28292W        W44553  14.071   2.020   0.575  0.2085 -0.2640  0.1543
28293W        W44554  10.234   5.415   2.123 -0.1869  0.2986 -0.4427
28294W        W44555   5.471   2.430  16.197  0.0947 -0.0020 -0.0544
28295W        W44556   2.523   1.038  14.390 -0.1925  0.2648  0.1159
28296W        W44557  11.787   7.897   3.595 -0.0420  0.3764 -0.2700
28297W        W44558  17.022   8.292  12.736  0.1620  0.0457 -0.3251
28298W        W44559   1.765   6.389   4.622 -0.0340  0.0580 -0.2938
28299W        W44560  14.306   9.764   4.734 -0.2887  0.1468  0.0674
28300W        W44561   9.804  15.608   0.459 -0.0305  0.3823  0.1837
28301W        W44562   2.352   4.366  12.445 -0.1267 -0.0997 -0.1363
28302W        W44563   2.149  11.964   3.457 -0.2223  0.0809 -0.1213
28303W        W44564  15.433   8.190  11.580  0.1791  0.0709  0.0770
28304W        W44565   3.341   7.397  15.636  0.1472 -0.0873  0.2586
28305W        W44566   1.207   1.710   4.938 -0.2158  0.0905  0.4578
28306W        W44567   5.925  12.758  14.836  0.2083  0.5743 -0.1122
28307W        W44568  16.634   6.743   0.854  0.3476 -0.1612 -0.0207
28308W        W44569   8.011  15.932  12.445 -0.0971 -0.1120  0.4203
28309W        W44570  17.728  11.759   3.067 -0.1428  0.0157 -0.0657
28310W        W44571  11.462   9.653  11.995 -0.1482  0.3331 -0.1715
28311W        W44572   8.130  14.979  16.285 -0.0398 -0.0919 -0.1209
28312W        W44573   8.483   0.343   4.277  0.0248 -0.0857 -0.3637
28313W        W44574   8.735   6.233   2.223 -0.0667  0.2960 -0.2397
28314W        W44575  17.536  14.376  15.103 -0.1780  0.0725  0.1621
28315W        W44576  13.233   9.154   1.291 -0.0664  0.2819  0.1362
28316W        W44577  12.529  10.354  14.457 -0.1479 -0.1812  0.0874
28317W        W44578  17.832  12.658  13.089  0.1405 -0.5071 -0.3955
28318W        W44579  13.357   4.226   1.519 -0.0316  0.5017 -0.2937
28319W        W44580   5.165  15.440   3.794  0.1690 -0.0430  0.0018
28320W        W44581  17.342  12.772  13.941 -0.1714  0.0353 -0.4338
28321W        W44582  14.508   2.745  15.639 -0.1600 -0.0300 -0.0348
28322W        W44583  12.186   1.920   1.022 -0.0143  0.1928  0.1797
28323W        W44584  12.114   4.214  11.841 -0.1479  0.1769  0.0236
28324W        W44585  16.336  12.549   2.789 -0.1391 -0.3046  0.0626
28325W        W44586   0.809  17.235   2.930 -0.0122 -0.3678 -0.0077
28326W        W44587  14.517   3.285   2.504 -0.1798  0.1909  0.4026
28327W        W44588   9.858  11.461   1.454  0.0399  0.2649 -0.1199
28328W        W44589   5.472  14.977   4.351  0.2099 -0.2645  0.1464
28329W        W44590  12.430   3.877   3.614  0.2174  0.3261  0.0881
28330W        W44591   3.095   2.330  12.194  0.0637  0.1462 -0.1991
28331W        W44592   3.287   7.426   5.054 -0.0699  0.1410 -0.1204
28332W        W44593  14.058  17.884  13.276 -0.0628 -0.0099  0.0775
28333W        W44594  12.132   7.122  14.621  0.0161 -0.2908  0.0570
28334W        W44595   7.093  14.961   4.443 -0.1523  0.2580  0.0041
28335W        W44596   1.989  17.819   3.437  0.2258  0.2396  0.0057
28336W        W44597  16.552   9.364   3.841  0.0559  0.1132  0.1557
28337W        W44598   0.960   7.443  15.231  0.0315 -0.1583  0.1528
28338W        W44599  12.657   0.325   5.318  0.0237  0.0049 -0.3541
28339W        W44600   9.863  12.116  13.716 -0.0474 -0.2469 -0.0198
28340W        W44601   2.207  10.212  12.215 -0.1271 -0.0482  0.4184
28341W        W44602   9.015  16.030  13.603  0.1250 -0.0078  0.0319
28342W        W44603   2.862   0.615   0.702 -0.3142  0.0633 -0.0073
28343W        W44604  10.652  17.531   5.242 -0.0580  0.1549 -0.2312
28344W        W44605   0.680  17.489  10.800 -0.3421  0.0960 -0.0235
28345W        W44606   1.984   9.599  14.246  0.0383 -0.1968  0.1646
28346W        W44607  15.727   7.779  11.644 -0.0285  0.1977  0.0227
28347W        W44608   2.273   8.677   3.253 -0.0166  0.3260  0.1165
28348W        W44609   6.332   1.404  14.643 -0.2521 -0.2410 -0.1876
28349W        W44610   6.967   4.904   3.653 -0.1091 -0.1207  0.2593
28350W        W44611  13.083   5.906   1.123 -0.4071  0.0549 -0.2145
28351W        W44612   3.268   9.123  13.830  0.0779  0.2066 -0.1165
28352W        W44613   0.797   9.003   3.290 -0.0224 -0.3286 -0.0571
28353W        W44614   4.377   2.353  13.148 -0.1143 -0.0898 -0.2258
28354W        W44615   5.728  13.816   2.106  0.1083  0.2670  0.0693
28355W        W44616   7.946  16.299   0.064  0.2321 -0.1750 -0.0963
28356W        W44617   6.103   8.209   1.846  0.0374  0.0008 -0.5128
28357W        W44618   1.141   7.570   0.478  0.0155  0.0291 -0.0798
28358W        W44619  17.354   5.037  15.482 -0.4535 -0.0348  0.2744
28359W        W44620   4.877  10.362   2.320  0.1716 -0.2408 -0.0158
28360W        W44621  11.323   9.982   0.482  0.1130  0.0943  0.0202
28361W        W44622  10.363   0.949   3.832 -0.0236 -0.3000  0.1183
28362W        W44623  16.806   8.898   3.825 -0.0593 -0.1660  0.1589
28363W        W44624  16.031  12.513   0.195  0.0206 -0.3390  0.0315
28364W        W44625  17.297   3.126  12.704 -0.0069  0.0449 -0.1638
28365W        W44626  16.597   2.228   0.110 -0.0015 -0.1128  0.0308
28366W        W44627  14.601  10.936  11.103  0.1398  0.4009 -0.2408
28367W        W44628   6.855  17.617   2.538 -0.1855 -0.1206  0.0305
28368W        W44629   8.081  14.082   5.766 -0.1258  0.1611  0.1135
28369W        W44630  14.361  12.606   4.737  0.2077 -0.2861  0.2462
28370W        W44631   6.788  14.005   2.683 -0.1559 -0.0472  0.2424
28371W        W44632   4.188   3.802   3.267  0.0649  0.2277 -0.0820
28372W        W44633   9.479  15.561  11.655 -0.2907  0.3617  0.1424
28373W        W44634   9.124   7.475   2.058 -0.2509 -0.2286 -0.1192
28374W        W44635  16.198   5.600   5.410 -0.2744  0.0621 -0.1816
28375W        W44636   1.151  13.080  15.704 -0.1344 -0.0973 -0.0719
28376W        W44637   4.104  15.966  14.183  0.0016 -0.0018 -0.0259
28377W        W44638  15.382  14.356   0.506  0.3587  0.1059  0.0468
28378W        W44639   6.900  11.435   3.161 -0.0490  0.2737  0.0946
28379W        W44640   3.389  15.479   5.797 -0.0291  0.0107 -0.1283
28380W        W44641   2.027   4.452   4.072 -0.2587 -0.0207 -0.1982
28381W        W44642   2.802  10.533  15.574 -0.0252 -0.2297 -0.0593
28382W        W44643  12.767  15.782  14.628  0.0449  0.0778  0.1281
28383W        W44644  14.110  16.978  16.116 -0.2204  0.2817  0.3372
28384W        W44645  17.739   7.364  13.635 -0.2945  0.0817 -0.0413
28385W        W44646  17.704   8.457  11.438 -0.1125 -0.0233 -0.0619
28386W        W44647  18.242   9.900   5.062 -0.0926 -0.0289  0.1981
28387W        W44648   5.249   3.676   0.960 -0.2529  0.2329  0.1051
28388W        W44649  18.213  15.792  15.539 -0.3240 -0.0220  0.2009
28389W        W44650   3.462   0.823  13.662 -0.1836  0.0533  0.0855
28390W        W44651   1.301   7.963   3.910 -0.2053 -0.1075 -0.0973
28391W        W44652  15.969   5.784  13.398 -0.2002 -0.1429  0.0117
28392W        W44653   7.454   5.414  12.403  0.0924  0.1746  0.2169
28393W        W44654   4.446   5.717   0.957  0.1064 -0.2866 -0.3177
28394W        W44655   7.211  10.558  15.703 -0.0187  0.2332 -0.0092
28395W        W44656  15.159  13.615   2.159  0.1737  0.0320 -0.1406
28396W        W44657  13.415  12.937  14.431  0.1272 -0.1879 -0.2746
28397W        W44658   1.735   0.959  14.986 -0.3479 -0.2605 -0.0274
28398W        W44659  17.026   7.827   5.143 -0.1594 -0.2498  0.0343
28399W        W44660   5.346   1.609   4.901 -0.1803 -0.0397 -0.0573
28400W        W44661  13.426  17.050   5.108 -0.1072 -0.0816  0.3866
28401W        W44662  14.770   6.503   1.909 -0.0624 -0.1295 -0.2263
28402W        W44663   9.313   6.380   3.382  0.2117  0.0106 -0.0926
28403W        W44664  12.305  16.742   1.253  0.2413 -0.2349 -0.3322
28404W        W44665  10.835   7.583  13.556  0.0189 -0.0873 -0.1922
28405W        W44666  11.207  10.301   0.807 -0.1276  0.3746  0.3363
28406W        W44667  10.926   9.924   3.307 -0.3153  0.0776 -0.0727
28407W        W44668   6.621   5.031   0.206  0.0339 -0.2222 -0.1350
28408W        W44669  18.008  10.594  12.196  0.1709  0.0249 -0.0258
28409W        W44670  15.656   5.544  16.055  0.2564  0.2631  0.1736
28410W        W44671  15.982   4.796  13.622 -0.0374 -0.0899  0.0458
28411W        W44672  14.939   6.924  14.340 -0.1375 -0.2142  0.2155
28412W        W44673   1.963   2.919  13.638  0.2313 -0.2712 -0.1040
28413W        W44674   6.341  18.357  14.950  0.1467 -0.1441 -0.0030
28414W        W44675   1.653  10.664  12.136 -0.3334 -0.0593  0.2196
28415W        W44676   5.447  13.268   0.475 -0.3623  0.2119 -0.0310
28416W        W44677  17.685   6.923  16.283  0.1643 -0.1110 -0.0322
28417W        W44678  14.972   3.444  15.145  0.1121 -0.1779  0.0200
28418W        W44679  18.193  12.327  13.847  0.2024  0.0413  0.0001
28419W        W44680  14.166  13.517   3.217  0.2657 -0.0894 -0.1615
28420W        W44681  16.047  18.259  13.016 -0.0072 -0.4229  0.1665
28421W        W44682  14.623   1.511   5.691  0.4540 -0.1489  0.0907
28422W        W44683   9.159   2.631  11.041  0.1467 -0.2935  0.2125
28423W        W44684   8.062   9.286  16.150  0.1730  0.0481 -0.2255
28424W        W44685   7.177   1.618   5.667  0.0922 -0.3009  0.0961
28425W        W44686  13.315   8.856   1.767  0.3764 -0.1856 -0.0894
28426W        W44687   4.412   8.038   0.169 -0.2011  0.0937 -0.2874
28427W        W44688   7.532   8.697  13.174  0.2254 -0.1516  0.2036
28428W        W44689   4.369   9.451   2.872  0.0302  0.3141 -0.3516
28429W        W44690   2.375  10.027  12.893  0.0670 -0.0593  0.0484
28430W        W44691   6.417   1.736  11.769 -0.0592  0.1679 -0.0257
28431W        W44692   1.566  10.168  13.115 -0.1711 -0.1867 -0.0505
28432W        W44693   7.971   8.452  15.794 -0.1404  0.1870  0.0853
28433W        W44694   8.413  14.191  13.531  0.0379 -0.0594 -0.3952
28434W        W44695  10.399   8.124  11.878  0.1116  0.3508 -0.1161
28435W        W44696  10.580  15.822   2.544 -0.3833  0.0093 -0.1471
28436W        W44697  10.414   2.141   5.274  0.2915 -0.0995 -0.2893
28437W        W44698   6.293  14.717  12.381  0.0932  0.2492  0.0100
28438W        W44699   8.983  12.630  11.198 -0.0581 -0.1239 -0.1048
28439W        W44700   0.946   5.921  11.811 -0.3677  0.0665  0.0245
28440W        W44701   1.142  11.327  13.091  0.1527 -0.1836  0.1025
28441W        W44702   7.945   8.179  10.587  0.0289  0.0328  0.1700
28442W        W44703   7.594  13.973   0.347  0.1138 -0.1056  0.0855
28443W        W44704  16.226   3.123   1.581 -0.1645  0.0040 -0.1942
28444W        W44705  16.565  10.599  10.813  0.0417  0.3678 -0.1124
28445W        W44706  10.073  18.209  14.359  0.1152  0.0186 -0.2558
28446W        W44707   7.973  11.423   4.061  0.2538  0.0647  0.0328
28447W        W44708  16.992  18.360   0.655  0.0652 -0.0769 -0.1324
28448W        W44709  11.884   9.353   1.558  0.1225  0.0852 -0.1182
28449W        W44710   8.168   1.678  11.366  0.1227  0.1782  0.0557
28450W        W44711   7.052   6.156   1.508  0.1784  0.1968  0.0580
28451W        W44712  17.522  14.596   0.765 -0.0453 -0.1907  0.0299
28452W        W44713   5.427   5.342   4.422  0.0888 -0.2091  0.3048
28453W        W44714  12.473  17.878  13.321  0.0420 -0.0763 -0.0742
28454W        W44715   8.785   3.551   0.857  0.3429 -0.2652  0.0795
28455W        W44716   7.992  13.328  14.663 -0.1151  0.2075  0.0178
28456W        W44717   1.879   0.414  14.116 -0.2051 -0.3591  0.3127
28457W        W44718  13.715  15.824  12.445  0.0736  0.1880  0.1197
28458W        W44719   5.492   5.342  15.476  0.2264  0.0326  0.1713
28459W        W44720   8.286  17.349  12.510  0.1976  0.0767 -0.1384
28460W        W44721  14.426  15.692   2.573  0.0728 -0.0447 -0.1460
28461W        W44722  12.731  13.713  12.646 -0.1237 -0.3002 -0.0330
28462W        W44723   0.625  10.331  15.174  0.2620 -0.0359  0.2343
28463W        W44724  18.264  11.027  14.221  0.2451 -0.0422 -0.4189
28464W        W44725   1.784   5.761  16.198  0.0095  0.0787  0.3052
28465W        W44726   8.142  13.149   2.567  0.1950  0.2192  0.1188
28466W        W44727  16.843  11.172   3.868 -0.1190 -0.1303  0.1466
28467W        W44728   4.592   0.199   5.631  0.2443  0.2496  0.0528
28468W        W44729  12.855   9.672   2.160 -0.3837 -0.1085 -0.4345
28469W        W44730  17.138   1.437   4.779  0.0604 -0.1926 -0.1736
28470W        W44731  10.366   8.060   2.986  0.1103  0.1201  0.1255
28471W        W44732   0.740   7.660   1.872 -0.0310 -0.0545  0.2496
28472W        W44733   1.953  17.787   5.799  0.1179 -0.0485  0.2740
28473W        W44734   2.849   1.518   0.831  0.1470 -0.2260  0.0521
28474W        W44735   9.337   3.535   3.989 -0.4422 -0.1380 -0.1019
28475W        W44736  11.043   5.701   1.430  0.0623 -0.4216  0.2099
28476W        W44737   7.776   5.489  12.821  0.0626  0.2469 -0.1420
28477W        W44738   2.717  16.725  10.114  0.3005 -0.1356 -0.2735
28478W        W44739  16.333   5.467   4.952  0.3045  0.1197 -0.1583
28479W        W44740  12.617  14.676   0.184 -0.3356 -0.1595 -0.2206
28480W        W44741   1.929   8.330   3.392  0.1706 -0.2701 -0.0882
28481W        W44742  17.503   5.203   0.820  0.0095  0.2519 -0.1026
28482W        W44743   6.315   2.976  13.220  0.0038  0.0237 -0.3930
28483W        W44744   4.938  17.288   4.991 -0.2085 -0.0391 -0.0241
28484W        W44745   9.702  17.226  16.265 -0.0954  0.0725 -0.0636
28485W        W44746   4.054   4.443  12.646  0.1586  0.3564  0.1862
28486W        W44747   3.249  17.165   4.224 -0.1076  0.0733  0.1227
28487W        W44748  12.111  15.329   4.585 -0.4496 -0.0323  0.1566
28488W        W44749   0.117   5.405  12.294 -0.1582 -0.3367  0.1105
28489W        W44750   0.215  11.542   4.683  0.0447  0.0066 -0.0331
28490W        W44751  16.712  11.215   2.483  0.0111 -0.0662  0.1416
28491W        W44752  10.151   5.924   2.705  0.0402 -0.3706  0.0815
28492W        W44753  14.793  16.599   3.616 -0.3309  0.2442  0.0575
28493W        W44754  11.274   5.889  15.800  0.1297 -0.1633 -0.1073
28494W        W44755  15.168   8.848  15.903 -0.1781 -0.0441  0.1525
28495W        W44756   7.394   3.134   1.255  0.1284  0.3936 -0.0332
28496W        W44757  17.429   9.227   4.386 -0.2780 -0.1032  0.0161
28497W        W44758   5.966   7.754  13.893  0.0877  0.3832 -0.1805
28498W        W44759   7.405   1.984  15.106 -0.0203 -0.2026  0.2062
28499W        W44760   7.724   5.836  15.783 -0.2498  0.0802 -0.0215
28500W        W44761   7.687  11.461  15.738 -0.3508 -0.0162  0.0535
28501W        W44762   0.626   5.885   0.906 -0.1526 -0.0864 -0.1665
28502W        W44763  12.038   4.656  12.056  0.2624  0.2062 -0.0189
28503W        W44764   1.148   4.214   0.236 -0.2451 -0.0523 -0.1125
28504W        W44765   1.768   6.495  12.076  0.2336  0.1223 -0.1036
28505W        W44766  17.017  10.721   6.107 -0.0208  0.1947 -0.1592
28506W        W44767  15.813  15.906   1.861  0.0053  0.2497 -0.2011
28507W        W44768  15.741  14.782  11.962 -0.0403 -0.2349  0.5233
28508W        W44769   4.329  12.870  13.243  0.0271  0.0989  0.1081
28509W        W44770  11.558   4.401   1.589  0.1829 -0.2064  0.1538
28510W        W44771   6.107  17.350  15.280  0.1368  0.0306 -0.5890
28511W        W44772  13.681  13.123  12.529  0.1373 -0.0342 -0.0549
28512W        W44773   6.876  13.635   1.392  0.0484  0.2141 -0.3511
28513W        W44774  15.679   0.809   5.666  0.1150 -0.0157 -0.1233
28514W        W44775   1.802   3.577   3.975 -0.1160  0.1010  0.2455
28515W        W44776  17.385   2.002  14.920  0.5048 -0.2510 -0.1904
28516W        W44777   4.610   1.798   5.502 -0.5209  0.2856  0.1754
28517W        W44778   2.419  12.867  13.978 -0.3242 -0.2270  0.0956
28518W        W44779  10.586   4.401   2.064 -0.0690  0.0102 -0.2544
28519W        W44780  17.137  13.938  11.965  0.1069  0.1375 -0.0963
28520W        W44781  18.124   0.851   0.555  0.3290  0.2348  0.0789
28521W        W44782   3.294   4.094   2.121 -0.0024  0.2969 -0.1640
28522W        W44783   4.235   0.040   2.595 -0.1038 -0.1501 -0.0982
28523W        W44784  16.091   1.614   3.899 -0.1813  0.0226  0.1449
28524W        W44785   6.251  11.025   3.674 -0.0989  0.0480  0.2430
28525W        W44786   1.762   1.457   5.730 -0.0451  0.0486 -0.0509
28526W        W44787   5.507  15.297  12.489  0.1085 -0.1072 -0.0094
28527W        W44788  14.938  11.120  11.414  0.2574  0.3087  0.1340
28528W        W44789  12.773   2.448   3.469 -0.2017 -0.3472 -0.2864
28529W        W44790   9.364  17.416  15.937 -0.0602 -0.0337 -0.0508
28530W        W44791   5.855   4.604  16.127  0.0273  0.1196  0.0373
28531W        W44792   7.584   9.731   3.446 -0.0571  0.0700 -0.2273
28532W        W44793   1.534  17.952  13.591  0.1228  0.0397 -0.1968
28533W        W44794  10.317   6.144   4.639 -0.2766 -0.1258  0.0056
28534W        W44795   8.050   2.652   5.081  0.1282  0.0180 -0.1153
28535W        W44796   5.126   8.391  15.087  0.0438  0.3920 -0.0591
28536W        W44797  13.350  12.566  14.690 -0.2060 -0.1965 -0.0651
28537W        W44798   9.434   2.024   5.066 -0.4449 -0.0081 -0.0556
28538W        W44799  11.401   2.739   0.128 -0.2113 -0.0931 -0.0709
28539W        W44800   9.806  15.870  16.297 -0.0092  0.1389  0.0502
28540W        W44801  13.042   3.993   3.722 -0.0703  0.2596 -0.0357
28541W        W44802  16.808   5.401  12.621 -0.0049  0.1237  0.2419
28542W        W44803   5.373  13.789   1.263 -0.0856 -0.0943  0.0369
28543W        W44804   8.050  12.352  12.046  0.2198  0.1350 -0.1482
28544W        W44805   9.557   9.062   0.782  0.0660 -0.1313 -0.0173
28545W        W44806   9.955  11.246  15.614 -0.0637 -0.2979 -0.3981
28546W        W44807  16.079   1.309  13.309 -0.1865  0.2407 -0.1335
28547W        W44808   2.041   5.476  11.760  0.2400  0.0887 -0.0758
28548W        W44809   1.708   2.095  13.365  0.1017 -0.2642  0.0250
28549W        W44810  16.686   9.047   2.232 -0.0292 -0.1514  0.3175
28550W        W44811   3.222   7.367   4.423 -0.2388 -0.0801 -0.1486
28551W        W44812   9.395  17.003  15.572  0.2621 -0.2038  0.0480
28552W        W44813  10.253  10.755   4.979 -0.1803 -0.0917  0.0674
28553W        W44814  14.999   9.183  11.824  0.0804  0.0627  0.0336
28554W        W44815  11.380   2.540  10.422 -0.0572  0.3848  0.0117
28555W        W44816   5.220   1.357  13.144 -0.0679 -0.1708 -0.0682
28556W        W44817  16.920  11.031   2.042 -0.4267  0.1402 -0.0139
28557W        W44818  12.263   5.283   2.578  0.3469  0.1163  0.1442
28558W        W44819   4.980   4.465   4.674  0.0382 -0.0599 -0.0094
28559W        W44820   4.084   4.918   3.611  0.0569  0.1879  0.2247
28560W        W44821  13.285   1.548   1.689  0.3226 -0.0124 -0.1422
28561W        W44822   6.848  13.470  11.721  0.2746  0.0666 -0.1184
28562W        W44823  10.863   0.764   4.139 -0.0763  0.1675 -0.0375
28563W        W44824  13.139  10.187   0.000  0.0571  0.0529  0.2538
28564W        W44825  12.215  11.310  16.122 -0.0503 -0.1079 -0.0241
28565W        W44826  17.748  15.263   1.917 -0.0625 -0.2602  0.0486
28566W        W44827   0.302   7.410  13.454 -0.1749 -0.0090  0.3615
28567W        W44828  11.190  15.134  10.933 -0.1214 -0.2153 -0.0590
28568W        W44829  15.897  14.394  12.712  0.0877 -0.0074  0.1275
28569W        W44830  13.913  13.698   1.703  0.3206  0.2606 -0.3609
28570W        W44831   7.914  17.215  13.201 -0.0216 -0.2531  0.0347
28571W        W44832  14.455  15.731  14.159  0.0626 -0.1680 -0.2458
28572W        W44833  10.191   5.656  15.168 -0.0356  0.0724  0.2339
28573W        W44834  17.971  18.081  13.009  0.4775 -0.2370  0.2814
28574W        W44835   1.697  16.913  14.621 -0.0194 -0.2757  0.2690
28575W        W44836  13.103   5.673   3.843 -0.3492  0.1930 -0.0434
28576W        W44837   1.599   1.786  15.568 -0.4941  0.0110  0.4522
28577W        W44838  12.220   4.139  13.842  0.0951 -0.0905 -0.1255
28578W        W44839  12.326  15.492   3.991  0.0757  0.0901  0.1208
28579W        W44840  11.423   1.093   2.334 -0.1802  0.0966  0.0798
28580W        W44841   3.405   9.144   3.472 -0.2398 -0.1472  0.1043
28581W        W44842   2.695   2.793   2.277  0.0083 -0.0606  0.2311
28582W        W44843  10.434   6.067  14.400  0.2252  0.0390 -0.3151
28583W        W44844   4.230   8.462  11.446 -0.1204  0.1456  0.3655
28584W        W44845   3.667   4.088   0.053  0.0907  0.0136 -0.1660
28585W        W44846  15.673   6.631   5.370 -0.1289  0.3408 -0.1801
28586W        W44847  13.160  14.948   0.576 -0.2169 -0.2660  0.1580
28587W        W44848   4.062   9.651   3.272  0.0076 -0.1092 -0.1732
28588W        W44849   2.573  17.767  14.478  0.0658  0.0797 -0.1803
28589W        W44850   8.472   5.385   0.131 -0.0062  0.1746  0.1501
28590W        W44851   8.440   4.819  11.061 -0.1894 -0.1661 -0.2608
28591W        W44852  13.001  11.265   4.934 -0.1252 -0.0451  0.1992
28592W        W44853   2.081   1.852  15.723 -0.0893  0.2646  0.1324
28593W        W44854  10.635   9.962  13.058 -0.0784 -0.1408 -0.1578
28594W        W44855  14.034  12.349  13.996  0.0632  0.1647 -0.1299
28595W        W44856  16.283   3.583   3.380  0.0871 -0.2200  0.0551
28596W        W44857   1.373   9.983  11.788 -0.2165  0.0989 -0.1108
28597W        W44858   6.262   4.234   4.839 -0.2604  0.3125  0.1631
28598W        W44859  12.346   7.181   2.274  0.0217 -0.2691  0.0633
28599W        W44860   2.577   9.991   5.613 -0.1572  0.1082 -0.1602
28600W        W44861   7.529   9.702  13.140  0.0134 -0.2344  0.0471
28601W        W44862  15.402   8.896  11.960  0.0177  0.4967 -0.0277
28602W        W44863   7.026  10.038  14.694  0.2853  0.0003 -0.0768
28603W        W44864   9.855  10.122   3.592  0.0075 -0.1665  0.0490
28604W        W44865  15.781  17.895   0.014 -0.0132  0.0449 -0.3000
28605W        W44866   6.112   4.039  13.820  0.2448  0.1335 -0.3132
28606W        W44867   5.165   7.616   0.305  0.0079  0.1567  0.3927
28607W        W44868   2.986   2.520  14.758  0.1743 -0.3376 -0.0512
28608W        W44869   1.271  18.292   1.508  0.4681 -0.2285  0.1992
28609W        W44870  15.806  10.024   4.021 -0.3296 -0.1820  0.1014
28610W        W44871  16.677   8.642   4.962 -0.0954 -0.0758 -0.1560
28611W        W44872  16.711  11.754   1.810 -0.2628 -0.1154  0.1734
28612W        W44873   0.993   7.868  13.040 -0.3811  0.1182 -0.2109
28613W        W44874   6.686  12.369   4.595 -0.1423  0.0773 -0.4214
28614W        W44875  14.491   0.373   1.762  0.2363  0.3202  0.0531
28615W        W44876   7.674  11.330  10.544 -0.1018  0.1329  0.1168
28616W        W44877   2.347  12.009  11.472 -0.2218  0.0757  0.0188
28617W        W44878  10.378   3.817  15.598 -0.4399  0.0461 -0.0353
28618W        W44879  17.692   4.245   2.361 -0.1482  0.0429  0.1131
28619W        W44880   3.719  12.873   4.035 -0.0830  0.4354  0.2195
28620W        W44881  15.116   4.464  11.278  0.0133 -0.0991  0.1128
28621W        W44882   1.013   1.330  13.734 -0.0525  0.0324  0.1508
28622W        W44883  14.154  11.936   9.992 -0.1011 -0.0666 -0.1439
28623W        W44884   0.251  13.130  11.456  0.2824  0.1126  0.0134
28624W        W44885   7.440   6.519   2.345  0.1779  0.0048 -0.0404
28625W        W44886  15.888  12.523  12.915 -0.2226  0.1177 -0.0012
28626W        W44887   4.530  12.526   2.534  0.2061  0.0365  0.0574
28627W        W44888   2.310   3.099  13.984  0.2568  0.4248  0.0674
28628W        W44889  16.312   8.204   0.822  0.1998  0.0708 -0.1781
28629W        W44890   5.109   6.196  13.507 -0.1658 -0.1555  0.0948
28630W        W44891  17.325   7.851  12.803 -0.2192  0.1517  0.3241
28631W        W44892   2.816  17.428  13.293 -0.0631  0.0461  0.1129
28632W        W44893   4.954  11.178   0.616 -0.0402  0.1977  0.0631
28633W        W44894  17.266   3.679  11.925  0.0560 -0.1417 -0.2482
28634W        W44895   1.932  10.238   6.148 -0.0261  0.2431 -0.0149
28635W        W44896  12.606  11.510   4.606 -0.3344 -0.2453 -0.0463
28636W        W44897  16.548   3.090  13.795  0.2398 -0.1603 -0.2087
28637W        W44898   9.961   0.193  15.034 -0.5655 -0.0561 -0.3765
28638W        W44899  10.276   2.385   4.122 -0.3225  0.1679  0.0386
28639W        W44900   3.647  15.525  14.928  0.0486 -0.1110  0.0685
28640W        W44901   7.910  11.794  12.932  0.0232 -0.1206  0.0120
28641W        W44902   4.355   8.456  12.836 -0.0186  0.1701  0.0309
28642W        W44903   6.360   4.271   4.370  0.0830  0.2383 -0.1183
28643W        W44904  17.401   0.592  14.379 -0.0195 -0.1638  0.3323
28644W        W44905   6.256  12.834  14.458  0.0313  0.1973  0.1063
28645W        W44906   9.616  10.292  12.693  0.1318 -0.2626  0.0535
28646W        W44907   7.451  10.149  15.227 -0.0961  0.2909 -0.3714
28647W        W44908  16.793  17.257   1.163 -0.0223 -0.0387  0.1832
28648W        W44909  17.618  11.829   5.878 -0.2666 -0.0225  0.0350
28649W        W44910   1.817   7.716  14.789  0.2896  0.2806  0.2055
28650W        W44911   2.698   9.976  14.458  0.0787 -0.2000 -0.2501
28651W        W44912  10.055  14.658   3.576 -0.2684  0.1625  0.1353
28652W        W44913   2.795   3.882   2.657  0.4733 -0.0313 -0.0860
28653W        W44914   8.658   4.872   4.634  0.2034 -0.1027  0.0114
28654W        W44915  17.562  16.276   4.923  0.0674 -0.0688  0.1332
28655W        W44916  11.491  15.936   4.515  0.0387  0.0373 -0.0383
28656W        W44917   9.649  17.477   2.238  0.5578  0.2127  0.2212
28657W        W44918   3.843   9.081  11.831  0.2228 -0.0741  0.2541
28658W        W44919   1.120   3.329  11.412 -0.0684 -0.1094  0.3706
28659W        W44920  14.932  13.569   1.314 -0.0786 -0.0569 -0.1779
28660W        W44921  14.930  10.704   0.622 -0.2230  0.0816  0.2767
28661W        W44922  12.540  13.321  12.376 -0.0087  0.0794  0.2621
28662W        W44923  14.492   7.289   3.313 -0.1902  0.0342 -0.2521
28663W        W44924   3.099  10.488   0.097 -0.0724  0.3530  0.1928
28664W        W44925  10.112  18.127  13.281  0.0574  0.1224 -0.1091
28665W        W44926   1.306   2.943   6.185 -0.2927 -0.0741  0.0258
28666W        W44927  13.881   2.250  14.879  0.1835  0.3615  0.0606
28667W        W44928  15.041   7.136  11.630  0.3427  0.2143  0.0605
28668W        W44929   9.942  16.518  15.099  0.3845 -0.1993 -0.0106
28669W        W44930   7.025   0.423   2.050  0.0065 -0.0672 -0.0413
28670W        W44931  15.976  15.326  13.192  0.0324 -0.0114  0.1786
28671W        W44932  12.798   8.889   5.275  0.0809  0.3302 -0.0548
28672W        W44933   0.596  10.200  12.754 -0.1276  0.3763  0.2665
28673W        W44934  15.432  14.551  10.536 -0.1490  0.0893  0.0081
28674W        W44935  11.727   8.277   4.041  0.2292  0.4188  0.1579
28675W        W44936  14.276   4.278  13.755 -0.0077  0.1845  0.1710
28676W        W44937  10.843   8.330  14.072  0.0780  0.2799  0.0178
28677W        W44938  10.467  12.579  10.765  0.1274 -0.3364  0.0276
28678W        W44939   4.136   0.427  16.033 -0.0464 -0.1942 -0.2360
28679W        W44940   2.250   9.450  10.385 -0.3483  0.0948  0.2362
28680W        W44941  11.669  16.577   1.050  0.0727 -0.1114  0.1059
28681W        W44942  10.293   0.308  14.185  0.1172 -0.0854 -0.1460
28682W        W44943  10.355   9.055   3.124 -0.0093  0.0091 -0.1663
28683W        W44944   5.420   4.242   3.416  0.2254 -0.0125 -0.0079
28684W        W44945   1.508  14.080  15.865 -0.0584 -0.0988 -0.0319
28685W        W44946   2.696   1.303   0.002 -0.3673 -0.3087 -0.1121
28686W        W44947  17.987   6.699   0.666  0.1898 -0.3109 -0.2260
28687W        W44948  13.596   4.222  15.879  0.3419 -0.0248  0.0480
28688W        W44949   3.301  13.254  11.598 -0.0430 -0.1201 -0.0458
28689W        W44950  10.376  11.309  16.277  0.1846  0.2434 -0.3947
28690W        W44951   3.478  15.900  12.516  0.0195 -0.1899  0.0232
28691W        W44952   5.653   9.502  14.078  0.1593  0.2745 -0.4063
28692W        W44953  12.776  14.929  11.050  0.0257 -0.0776  0.0619
28693W        W44954  16.713  12.198   2.051  0.4018 -0.0657 -0.1921
28694W        W44955   1.993   0.518  15.140  0.1728  0.2539  0.2467
28695W        W44956   8.585   8.890   4.313  0.2270 -0.1624  0.0396
28696W        W44957   1.484   0.369   0.417 -0.0310  0.5426 -0.2240
28697W        W44958  15.667  16.363  16.065  0.2020 -0.1557  0.3167
28698W        W44959   3.220  17.448  14.449 -0.0563  0.1563  0.1342
28699W        W44960  14.641  12.838  10.115  0.1713  0.5387 -0.3127
28700W        W44961   2.340   5.910  11.758  0.1320 -0.1453  0.0018
28701W        W44962   3.295  16.767  14.810  0.2803  0.3619  0.1760
28702W        W44963  11.887  10.660   4.029 -0.2954 -0.0660  0.0131
28703W        W44964   7.182   8.118   0.173  0.0801 -0.0829 -0.2350
28704W        W44965   5.672   3.450  16.025 -0.1956  0.1229  0.1185
28705W        W44966   0.902   9.782   4.339 -0.0634 -0.2203 -0.0360
28706W        W44967  12.720   5.342   4.841 -0.0511 -0.0048  0.2619
28707W        W44968   3.465   7.375   0.425 -0.1075  0.0355  0.0376
28708W        W44969   8.407   3.570  10.640 -0.2177  0.2076 -0.1638
28709W        W44970   0.586  13.150   2.131 -0.0714 -0.1657  0.1321
28710W        W44971  16.652   1.094   4.585 -0.1160  0.0067 -0.0463
28711W        W44972  12.691  17.864  15.079 -0.0212 -0.1514  0.2532
28712W        W44973   7.261  10.570  13.589 -0.0501 -0.3518  0.2064
28713W        W44974  16.865  17.947  15.497  0.1107  0.6040  0.0596
28714W        W44975  12.579   1.073   1.704 -0.3073 -0.3913  0.2849
28715W        W44976  14.657   8.522   0.349  0.2018 -0.0137  0.2488
28716W        W44977   4.250   1.032  14.008 -0.4238 -0.2077 -0.1489
28717W        W44978  10.590  18.012   0.435 -0.1126 -0.0992 -0.0428
28718W        W44979   2.824  12.229  11.429 -0.1043  0.0419 -0.3769
28719W        W44980  12.881  13.676   2.301  0.1696  0.0803 -0.4065
28720W        W44981  13.334  11.801  11.239  0.0880  0.0816 -0.2424
28721W        W44982  14.752  15.421   1.473 -0.1764  0.1151 -0.2978
28722W        W44983   3.415   1.437   4.302 -0.2490  0.0045 -0.0873
28723W        W44984  14.727   0.906   3.603 -0.2031  0.1644 -0.2151
28724W        W44985   0.227   8.003  16.249  0.1666 -0.2324 -0.0927
28725W        W44986  14.468   7.605   1.901 -0.3230 -0.0636  0.2158
28726W        W44987  12.988   1.892  11.977  0.2697 -0.3057  0.3922
28727W        W44988   7.848  11.158  13.934 -0.3584 -0.0843  0.1737
28728W        W44989   1.111   8.050  11.750  0.1038 -0.1301 -0.0204
28729W        W44990   2.273  17.461   0.053  0.1581 -0.2269 -0.3712
28730W        W44991   1.065  17.703  15.342 -0.0939  0.0152 -0.0575
28731W        W44992   5.981   9.366   2.426  0.2097  0.2056  0.3223
28732W        W44993  11.460   6.875   1.863  0.1156 -0.0728 -0.0166
28733W        W44994  10.649   6.636  10.261 -0.0835 -0.0796  0.0178
28734W        W44995   7.852   5.765  14.698 -0.2362  0.0108  0.0306
28735W        W44996  12.647   0.187   0.962  0.4503 -0.1588  0.0742
28736W        W44997   7.845  12.137  11.636 -0.2317 -0.4518 -0.0769
28737W        W44998  12.648   9.479  15.421  0.0391 -0.1865  0.0421
28738W        W44999  10.470  17.234   2.251  0.2999 -0.1002  0.0260
28739W        W45000   2.401   6.691  16.094  0.1737  0.3275 -0.1831
28740W        W45001   5.949  11.979   1.670 -0.1965 -0.3775  0.2214
28741W        W45002   7.243   0.074   4.666 -0.0476 -0.1585  0.2531
28742W        W45003   2.805   2.989  14.499  0.1461 -0.0096 -0.1633
28743W        W45004  13.088   9.690   3.788 -0.0283 -0.1658 -0.0002
28744W        W45005  14.599  17.947  12.046  0.0388 -0.2862  0.2549
28745W        W45006   5.947  11.662   5.051  0.0599 -0.0548 -0.0524
28746W        W45007  11.010   2.364   3.624 -0.0689 -0.1868 -0.2562
28747W        W45008   6.470   6.949   5.353  0.0357 -0.0274 -0.2882
28748W        W45009   6.352  15.016  14.191 -0.1440  0.2160  0.1380
28749W        W45010  15.271  11.148   4.538 -0.5954 -0.1579 -0.1006
28750W        W45011  15.871   8.616   0.726 -0.0953  0.0585  0.1984
28751W        W45012   4.990  15.439  11.403 -0.0141 -0.2653  0.0833
28752W        W45013   0.460   3.431   3.794  0.1518 -0.0535  0.3191
28753W        W45014   1.636   7.865  13.819  0.0897  0.2814 -0.3071
28754W        W45015   8.585   9.430   0.025  0.0594  0.1525 -0.2643
28755W        W45016   7.387   9.696  13.659 -0.1015 -0.4503  0.0574
28756W        W45017  10.944   5.664   2.801  0.0044 -0.3005 -0.4570
28757W        W45018  17.575  13.888   2.746  0.0137  0.0220  0.3167
28758W        W45019   8.774  13.184  15.774  0.1451  0.0676 -0.0975
28759W        W45020  13.653   6.719  11.308 -0.0103  0.0105 -0.0259
28760W        W45021   3.261  16.329   5.781 -0.1258  0.1649  0.0225
28761W        W45022   1.047  10.006   5.292 -0.0235 -0.0675  0.1019
28762W        W45023  12.629   3.013  13.293 -0.1245  0.0331  0.1287
28763W        W45024  16.345   5.198  15.469  0.0303 -0.1510 -0.2434
28764W        W45025   4.466  12.842   4.116  0.0085 -0.1947 -0.1744
28765W        W45026  14.587   7.192  11.438  0.2521  0.3201  0.2128
28766W        W45027  11.148  13.995  15.716  0.2524 -0.1715 -0.1125
28767W        W45028   7.914  10.283   4.122 -0.0054  0.1498  0.0821
28768W        W45029  12.757   2.118   4.817  0.1303 -0.0970  0.1647
28769W        W45030   3.509  18.364  11.072  0.2583  0.0556  0.2788
28770W        W45031  11.241   7.992  15.851  0.0026  0.3059  0.1166
28771W        W45032  13.420  12.964  13.009 -0.0322 -0.0363 -0.3128
28772W        W45033   5.573  10.261   1.685 -0.1499 -0.1638  0.0650
28773W        W45034  11.746   0.671   1.130  0.4182 -0.0752 -0.2119
28774W        W45035  12.955   8.493  15.896  0.1876  0.1817  0.0973
28775W        W45036   4.061  15.606   6.144  0.0469 -0.4819  0.2625
28776W        W45037  10.736  12.821   3.509  0.2290  0.0799  0.0392
28777W        W45038  16.632   7.926  13.726 -0.3350  0.1747  0.0756
28778W        W45039  17.711  16.382   3.392  0.0889 -0.0715 -0.0740
28779W        W45040  11.262  11.299  13.047  0.0919  0.1998 -0.2335
28780W        W45041   7.182  13.110  11.601 -0.1083 -0.2093 -0.0353
28781W        W45042  17.684  14.349   0.330  0.3090 -0.0597  0.1121
28782W        W45043   1.250   2.284  12.113  0.2150 -0.1624 -0.1271
28783W        W45044   0.523   8.840   0.105  0.0632  0.1057 -0.3528
28784W        W45045  10.486   6.529   4.947 -0.0671 -0.2354  0.0466
28785W        W45046  13.150  17.167   5.647 -0.0066 -0.0486  0.2815
28786W        W45047  15.033  12.602  16.247 -0.0785 -0.4906 -0.0093
28787W        W45048  16.147   1.028   5.648 -0.0278 -0.0062 -0.0062
28788W        W45049  18.090  12.266   2.456  0.0150 -0.1747  0.3215
28789W        W45050   8.057   4.984   1.440  0.2321 -0.3323 -0.0988
28790W        W45051   3.729  10.394  14.221 -0.3644 -0.1508  0.1070
28791W        W45052   1.988  14.163  13.906  0.1599  0.0379  0.2133
28792W        W45053  15.136   6.111   2.680 -0.1955  0.1746  0.1369
28793W        W45054   6.415   6.515   0.712  0.1641 -0.2301  0.1533
28794W        W45055  12.832   2.282   4.292  0.1314  0.1423 -0.2412
28795W        W45056   0.755   0.940   3.378  0.1138 -0.2149 -0.1499
28796W        W45057   4.478   7.462  12.675  0.1521  0.2118  0.3158
28797W        W45058   9.903   4.813   3.589  0.2114  0.1635  0.1588
28798W        W45059  15.135  12.907  15.263 -0.0316  0.2954  0.2122
28799W        W45060  11.299  15.201  11.470 -0.1637 -0.3998 -0.4895
28800W        W45061  14.388   9.622  12.995 -0.2186  0.2236 -0.2406
28801W        W45062  10.572  10.685   0.263 -0.2646 -0.1373 -0.1739
28802W        W45063   6.211   9.253  14.503 -0.1490  0.3209 -0.2202
28803W        W45064   8.340   0.359  12.084  0.0164  0.0148 -0.0947
28804W        W45065   0.295  11.746   1.116  0.1382  0.1924  0.2691
28805W        W45066   0.594  14.046   0.772 -0.2432 -0.0883 -0.1429
28806W        W45067   8.163   2.170  15.454  0.1483  0.0341  0.3479
28807W        W45068  13.994   3.862  16.070  0.1948 -0.0542  0.0275
28808W        W45069  14.039  15.985  15.335  0.2605 -0.0163 -0.0363
28809W        W45070  10.629  11.908   1.624 -0.2919 -0.1388  0.0244
28810W        W45071   4.146   7.837  12.400  0.0028 -0.3204  0.1129
28811W        W45072  16.347   4.950   3.956 -0.1098  0.0997 -0.0606
28812W        W45073   4.571   5.852  11.517 -0.1680 -0.2202  0.1498
28813W        W45074  16.595  15.882  13.918  0.1898  0.0742  0.1738
28814W        W45075   3.948  16.370   1.427 -0.0889  0.0870  0.3986
28815W        W45076  11.175   5.304   1.771  0.2398  0.2407  0.1434
28816W        W45077  12.771   5.666  14.642  0.2016 -0.1808 -0.2575
28817W        W45078   8.260  17.387   4.216 -0.2222 -0.0817 -0.1663
28818W        W45079   8.002   5.368  12.428 -0.1694  0.0678  0.1390
28819W        W45080   6.201  10.624  15.622  0.1877 -0.1401  0.1032
28820W        W45081   6.773   0.835  11.352 -0.0196 -0.0457 -0.3433
28821W        W45082   0.116   1.128   2.355 -0.2613  0.4088 -0.3417
28822W        W45083  12.933  11.740   0.342 -0.1042 -0.1095  0.0142
28823W        W45084  13.555   1.897   0.266  0.2246 -0.5890 -0.1476
28824W        W45085   0.058   0.422   6.099 -0.0335 -0.1349 -0.3650
28825W        W45086   9.330  17.109   0.844 -0.0282 -0.2212 -0.2013
28826W        W45087   7.823  12.081   5.084  0.0699 -0.0520  0.0057
28827W        W45088  13.431  13.399   5.377  0.0231  0.1288  0.2159
28828W        W45089  15.853   2.774  16.118 -0.0049 -0.1431  0.1635
28829W        W45090   1.364  10.087   1.425  0.3244 -0.2095  0.0482
28830W        W45091   8.389  10.260   1.532 -0.0363 -0.1973  0.1910
28831W        W45092   3.628   3.108   3.898  0.0311  0.0046 -0.1410
28832W        W45093   4.226  10.001   2.912  0.1107  0.1516 -0.1159
28833W        W45094   2.397   7.672   2.185 -0.0522 -0.0880  0.2237
28834W        W45095   7.984   3.329  13.718  0.3041 -0.1460  0.0959
28835W        W45096  15.853  12.093   0.498  0.0271 -0.1476 -0.0794
28836W        W45097  17.325  13.443   3.357 -0.0381 -0.1937  0.0178
28837W        W45098  18.248   7.712  15.942 -0.2609  0.0668  0.0927
28838W        W45099  11.663  12.226  11.764  0.2608  0.0629 -0.1373
28839W        W45100  14.770  15.740   0.793  0.0503 -0.0605 -0.0275
28840W        W45101  10.565   9.874  11.611 -0.1651 -0.0164  0.2523
28841W        W45102   7.289   7.274   2.784 -0.1637  0.2970 -0.2639
28842W        W45103  13.570  14.200   3.118  0.2052 -0.3186  0.1594
28843W        W45104   2.707   3.381   1.340  0.0920  0.1722  0.1656
28844W        W45105  11.897   4.842   0.710 -0.0158  0.0756  0.1270
28845W        W45106   7.672   3.124  12.732  0.0200 -0.2543  0.1852
28846W        W45107  17.379  11.430  14.891 -0.0468  0.1807 -0.0250
28847W        W45108  13.158  14.927   6.086  0.2297 -0.2576  0.1581
28848W        W45109  10.549  17.298  11.829  0.0665  0.0524 -0.1339
28849W        W45110   9.608   0.307  12.134  0.2042  0.0703  0.0717
28850W        W45111  11.961   6.964  16.069 -0.1517 -0.2134 -0.0640
28851W        W45112   8.222   6.067   0.363  0.1806 -0.0198 -0.2518
28852W        W45113  11.780  13.070  15.273 -0.1164  0.0366  0.0289
28853W        W45114  10.754   7.051   2.881  0.0835  0.2933 -0.0152
28854W        W45115   4.358  15.469   4.081  0.1170  0.1331 -0.1898
28855W        W45116   4.692   4.073   3.512 -0.0416 -0.0281 -0.0673
28856W        W45117  13.073   1.199   5.748 -0.0022  0.1369  0.3603
28857W        W45118   0.314   3.881  15.275 -0.3601 -0.1094  0.0059
28858W        W45119   6.932  16.583   1.994  0.0816  0.0709 -0.1451
28859W        W45120  12.310  14.343  12.321 -0.0566  0.1325 -0.2039
28860W        W45121   9.676  15.982   2.315  0.2316  0.2859 -0.0498
28861W        W45122  11.803  14.656  15.279  0.1976 -0.0314  0.0601
28862W        W45123  13.898   8.004  14.110  0.0078 -0.2608  0.1589
28863W        W45124   3.831   8.931  15.611  0.0554 -0.1243 -0.2844
28864W        W45125   0.459   0.309  16.279  0.0007  0.0999 -0.0364
28865W        W45126   2.300  16.841   0.712 -0.2226 -0.0635  0.3129
28866W        W45127   1.684   0.947   4.702  0.0122  0.1672  0.0070
28867W        W45128   6.558   6.725  11.409  0.2553 -0.2789 -0.2383
28868W        W45129   0.467   6.960   4.372  0.1170 -0.0554  0.0713
28869W        W45130  17.127  18.204   2.204 -0.2308  0.0286 -0.1882
28870W        W45131   4.279  11.805   3.381 -0.2083 -0.1145 -0.1268
28871W        W45132   9.530   1.512  14.950 -0.1303  0.0191 -0.1193
28872W        W45133  10.759   7.382  12.517  0.0182  0.0260  0.0516
28873W        W45134   8.242  15.560   2.284 -0.0141  0.3532 -0.0551
28874W        W45135   0.430   1.388   0.866 -0.1653  0.1005 -0.0136
28875W        W45136   5.203   9.468   2.305  0.3817 -0.1105  0.0805
28876W        W45137   4.710  17.050  11.570  0.3631 -0.2946  0.3911
28877W        W45138   2.536   2.682  15.041 -0.1068 -0.1101 -0.2522
28878W        W45139  15.622   2.132  12.384 -0.1635  0.1718  0.1604
28879W        W45140   7.612   6.185   0.692  0.2857 -0.3500  0.3305
28880W        W45141  15.043   9.370   2.102 -0.2550  0.1242  0.0313
28881W        W45142  11.327  14.076   0.136  0.0944 -0.1261  0.1966
28882W        W45143  17.160  10.213   1.789 -0.1907  0.0327 -0.0455
28883W        W45144   6.146   2.805   3.102 -0.1589  0.1550  0.1557
28884W        W45145   9.225   6.836  12.480  0.1112  0.0574 -0.3147
28885W        W45146   5.995   8.101   9.975 -0.1983  0.0087  0.0014
28886W        W45147  14.315  14.177   0.433 -0.0200 -0.0649  0.1108
28887W        W45148  12.377  17.720   5.060  0.1107  0.1101  0.1665
28888W        W45149  16.836   9.878   1.639  0.1478  0.1906  0.1525
28889W        W45150   6.637   8.189   5.415 -0.2951  0.0177  0.2935
28890W        W45151   2.816  16.008  13.192  0.1510  0.0507 -0.2830
28891W        W45152  17.045   7.655   3.559 -0.1468  0.0540  0.2863
28892W        W45153   7.901  17.894  14.460 -0.3361 -0.5220  0.1761
28893W        W45154   9.473   8.046  11.834 -0.1316  0.1091 -0.0778
28894W        W45155   1.398   6.040  11.560  0.2351  0.2408  0.0674
28895W        W45156   6.245  17.870  10.801  0.0107  0.0504  0.2200
28896W        W45157  16.906  14.187  14.399 -0.0894 -0.0112 -0.1470
28897W        W45158  10.299  10.502   5.691  0.0135  0.1537 -0.1655
28898W        W45159  17.349   9.723  14.730  0.0091  0.1181  0.3343
28899W        W45160   6.121  11.871   0.289 -0.0483  0.1567  0.0962
28900W        W45161   2.524  14.577  13.609 -0.1976  0.0123  0.0020
28901W        W45162   0.466  16.772   1.047 -0.1196  0.2418 -0.0770
28902W        W45163   2.688   8.893  14.684  0.2827  0.3050  0.1531
28903W        W45164   0.560  11.184  14.005 -0.0262 -0.2067 -0.0143
28904W        W45165   8.745   8.186  10.758 -0.1162 -0.0077  0.2676
28905W        W45166  12.871  14.234   5.611 -0.4315  0.0709  0.0263
28906W        W45167  11.354   4.165  16.241 -0.0842 -0.0518  0.0118
28907W        W45168  13.548  15.137  14.076 -0.0203 -0.1987 -0.0805
28908W        W45169   6.188   9.065   0.756 -0.0628 -0.1216 -0.0860
28909W        W45170   9.614   7.507   2.083 -0.0984  0.0470  0.2752
28910W        W45171  17.425  16.878   0.571 -0.4237  0.1720 -0.1541
28911W        W45172  16.396  13.209   1.244  0.0024 -0.0610  0.1669
28912W        W45173   3.690  17.432  15.121  0.1461  0.1742  0.0945
28913W        W45174  13.147   3.033  15.704 -0.0711 -0.1311  0.3732
28914W        W45175  16.097  12.493  14.765 -0.3439  0.0399 -0.0030
28915W        W45176   0.736   5.052   1.988  0.1428  0.3712  0.0208
28916W        W45177  15.749  12.187  15.614 -0.3932 -0.2333 -0.0830
28917W        W45178  10.894   9.218  11.414  0.2302  0.2792  0.3626
28918W        W45179   7.028   7.172  13.551  0.1085 -0.2255 -0.2442
28919W        W45180  15.452  15.112   5.319 -0.1467  0.1820  0.1729
28920W        W45181   2.073   8.403  15.906 -0.0902  0.2265 -0.2297
28921W        W45182  11.918  12.587  14.520 -0.3332 -0.1533  0.0900
28922W        W45183  16.037   9.883  15.956  0.1511  0.1835 -0.0490
28923W        W45184  14.188  11.627   4.995  0.1447 -0.0526 -0.0151
28924W        W45185   1.920   5.760   4.660 -0.2588 -0.0835  0.0661
28925W        W45186   1.649  15.770   5.227 -0.1834 -0.4494  0.1062
28926W        W45187  12.135   0.514  15.975  0.0390 -0.1501  0.0446
28927W        W45188   8.876  15.726  13.201  0.1176 -0.1076  0.1358
28928W        W45189   7.570   7.555  11.810  0.1790 -0.1129 -0.0812
28929W        W45190   4.402   1.538  12.312 -0.1992  0.0201 -0.0171
28930W        W45191   4.405   5.996   5.694  0.2037 -0.1868  0.1463
28931W        W45192   7.430  13.577   2.335 -0.1132  0.1061  0.0946
28932W        W45193   7.746  15.945  14.936  0.1508  0.3305  0.3007
28933W        W45194  11.571  17.355  16.001  0.0818 -0.2231  0.3974
28934W        W45195  17.884   7.572   2.284 -0.2464 -0.1046 -0.0904
28935W        W45196  10.145   3.389  15.053 -0.2513 -0.3001  0.1986
28936W        W45197  13.778   7.272   2.507 -0.1561  0.0562  0.0105
28937W        W45198  13.440   4.780   5.053  0.4088 -0.1409 -0.1411
28938W        W45199  10.642  12.693   4.482 -0.0533 -0.3602  0.1046
28939W        W45200   2.463  12.852   1.139  0.0749  0.1019 -0.1561
28940W        W45201   8.923   5.292   4.365  0.1725 -0.0779 -0.2005
28941W        W45202   9.050  10.210  15.059 -0.2506  0.1296  0.0723
28942W        W45203   0.138  17.274  12.031  0.2337 -0.1019 -0.0475
28943W        W45204   4.399   5.472  15.000 -0.0837  0.0488 -0.0283
28944W        W45205   0.798  14.691   6.029  0.1493  0.0611 -0.1719
28945W        W45206  11.191  16.641  15.526  0.0624  0.2145 -0.1528
28946W        W45207  11.922   2.686   1.310 -0.2440 -0.0627 -0.2606
28947W        W45208  10.881   6.153   0.541  0.0365  0.4254 -0.3316
28948W        W45209   5.432  17.517  12.736 -0.3991 -0.1291  0.0269
28949W        W45210  16.296   4.503   1.207  0.3016  0.2497  0.1283
28950W        W45211  12.760  12.128  13.475 -0.4797  0.1209 -0.2982
28951W        W45212   6.838  15.071  14.020  0.3082 -0.3844  0.0618
28952W        W45213   5.816   2.416  11.443 -0.0071  0.0148  0.3472
28953W        W45214   8.419   4.550   2.834 -0.0439  0.0036 -0.0185
28954W        W45215  15.054   3.979  12.519  0.2234  0.0960  0.1589
28955W        W45216   3.626   5.840   4.714 -0.1859  0.1006  0.1888
28956W        W45217   0.987   4.918   3.558  0.1140  0.1672 -0.2653
28957W        W45218  12.996   4.156   2.854 -0.0764 -0.0980 -0.1470
28958W        W45219  14.489  10.318   4.050 -0.1241  0.0192 -0.3666
28959W        W45220   9.872   0.316   0.576  0.3771 -0.1548  0.1456
28960W        W45221  15.993  13.919   4.964 -0.0686  0.2459  0.0573
28961W        W45222   5.206  10.755  15.141 -0.2675 -0.0936 -0.0081
28962W        W45223   6.316   3.165  14.835 -0.2675 -0.2514  0.2900
28963W        W45224  16.452  17.259   0.821  0.1516 -0.0872 -0.3785
28964W        W45225   8.790   4.013   1.954  0.2060 -0.2269 -0.0598
28965W        W45226  11.135  10.841  14.384  0.2287  0.3333 -0.2195
28966W        W45227  15.961  10.238  15.121  0.2336 -0.1441  0.0838
28967W        W45228  16.904   2.316  11.137 -0.2583  0.0536  0.3598
28968W        W45229  11.160   2.490  12.912  0.0409 -0.1672 -0.2236
28969W        W45230  17.583   2.667  12.073  0.0705  0.1418 -0.0194
28970W        W45231  11.481   4.556   2.786 -0.2451 -0.2358  0.0605
28971W        W45232  11.538   2.472  14.680 -0.0831 -0.2144  0.0652
28972W        W45233  14.792   2.232   5.390 -0.2511 -0.1520  0.1007
28973W        W45234   7.932   9.380  13.390  0.2592 -0.0456  0.0878
28974W        W45235  15.084   8.353  15.766 -0.0012 -0.4231 -0.1761
28975W        W45236   2.804   1.741  13.963 -0.1085 -0.0787 -0.0060
28976W        W45237  12.220   8.493  13.709  0.0133  0.0107 -0.1880
28977W        W45238   1.657  12.501  12.274  0.1978  0.0043 -0.0912
28978W        W45239   9.181  11.893  14.157  0.0257 -0.1401  0.1805
28979W        W45240   7.322  12.927   5.074 -0.0525 -0.3207  0.1293
28980W        W45241  14.165   4.867  16.266  0.0667 -0.0040  0.2736
28981W        W45242  11.991   3.001   2.727 -0.3492 -0.0644 -0.4569
28982W        W45243  10.687   6.624   3.120  0.1086 -0.0901 -0.1560
28983W        W45244  15.865   8.510  11.184  0.1411 -0.0364  0.2603
28984W        W45245   3.444   8.768  15.925  0.1081 -0.1484  0.2472
28985W        W45246  15.286   8.253   3.012 -0.0098 -0.2986  0.1515
28986W        W45247  12.415   9.840  15.766 -0.4196 -0.3129 -0.0600
28987W        W45248  15.133  14.418  15.453 -0.0654 -0.0243 -0.2792
28988W        W45249  13.080   7.829  12.895  0.0333 -0.2923 -0.0432
28989W        W45250   8.812   6.281   1.553 -0.1310  0.2036  0.0381
28990W        W45251  13.256  11.359   2.999  0.2392 -0.1514  0.2077
28991W        W45252  14.891  10.864   5.272  0.0928 -0.1003  0.0867
28992W        W45253  10.599  14.894   4.203  0.0960  0.2748 -0.0119
28993W        W45254   9.971   7.017   5.410 -0.1482 -0.0219 -0.1035
28994W        W45255  15.393  14.949  13.917  0.1200 -0.3424 -0.0584
28995W        W45256   1.744  13.284  14.099 -0.0815  0.2356  0.1791
28996W        W45257  18.317  16.228   2.244  0.1211 -0.3212  0.1898
28997W        W45258   7.799  16.038   1.522 -0.0361  0.3036 -0.1336
28998W        W45259   0.565  10.218   3.544 -0.0800  0.0087 -0.1660
28999W        W45260   9.769   3.853   5.070  0.4129  0.2154 -0.0191
29000W        W45261   2.713   4.311  11.931  0.1586 -0.1448  0.0178
29001W        W45262   3.999   5.756   1.296  0.0522 -0.2086 -0.1457
29002W        W45263   6.712  10.314  14.148  0.3262  0.1209  0.1552
29003W        W45264   6.201  16.729   1.874  0.1334 -0.1427 -0.1081
29004W        W45265   7.185   5.101   5.944 -0.1676  0.0969 -0.0393
29005W        W45266  12.124   7.823   3.957  0.0420 -0.3315 -0.0461
29006W        W45267   7.751  16.677  12.953 -0.1304  0.1065  0.1854
29007W        W45268   2.244  10.114   3.173  0.1067  0.2088  0.0467
29008W        W45269   9.951   6.231  15.710 -0.0800  0.1985  0.1346
29009W        W45270  10.888  13.747  10.920  0.1020 -0.0813 -0.3086
29010W        W45271   6.041  11.977  12.018  0.2815  0.0399 -0.1683
29011W        W45272  15.369  11.936   0.393  0.3350 -0.3941 -0.1264
29012W        W45273   2.575   1.813   2.514  0.1317 -0.1213 -0.3401
29013W        W45274  18.325  16.878  12.595  0.1352  0.0298  0.1795
29014W        W45275   6.683  13.916  16.274 -0.5118  0.0406 -0.0958
29015W        W45276   5.223   9.442  15.854  0.0980  0.2368  0.0576
29016W        W45277  10.184  15.860   4.527 -0.2168 -0.0110  0.3096
29017W        W45278   6.238  10.212   0.255  0.1388  0.0665 -0.0224
29018W        W45279   5.942  18.238   3.173 -0.1703  0.0351 -0.5095
29019W        W45280   4.060  14.750   1.021  0.0386 -0.5127 -0.3987
29020W        W45281   0.612   5.099  14.453 -0.3440  0.0648  0.2588
29021W        W45282  15.942   4.455   4.444  0.3357  0.1485  0.1273
29022W        W45283   5.702   0.891   2.437 -0.0898 -0.1942  0.7879
29023W        W45284   7.629   8.888   2.419 -0.1356 -0.0465 -0.0556
29024W        W45285   9.407   0.143   0.788  0.1074  0.0254 -0.0712
29025W        W45286  13.541   2.665  13.267 -0.2020 -0.2898  0.3274
29026W        W45287  16.025   3.373  15.001 -0.1131 -0.0374 -0.2392
29027W        W45288  13.610   0.865  14.576  0.0637 -0.0752 -0.1466
29028W        W45289   9.205   1.724   0.688  0.2352 -0.3122  0.0126
29029W        W45290  10.269   2.629   2.614 -0.1385 -0.0078 -0.1558
29030W        W45291  17.019   0.583   5.354  0.1885  0.0493  0.1695
29031W        W45292  14.676  13.113  15.447 -0.3444 -0.1687  0.4599
29032W        W45293   6.559   4.405  15.134  0.0773  0.4287 -0.0334
29033W        W45294  14.430   0.588   0.164 -0.2451  0.1687 -0.1195
29034W        W45295   6.122  12.158  13.889 -0.0482 -0.2943 -0.2598
29035W        W45296  10.083   2.531  13.647  0.0876 -0.1404 -0.2238
29036W        W45297  17.615  11.556   0.643 -0.3749  0.0041 -0.1683
29037W        W45298  12.145  15.383   1.663  0.1874  0.0691 -0.2268
29038W        W45299  17.164  12.441  14.968 -0.2180  0.1086  0.2826
29039W        W45300   2.830  13.741  16.194  0.1240  0.6329  0.1600
29040W        W45301   6.707   0.816   1.962  0.3238 -0.2071  0.2333
29041W        W45302  13.852   8.923  10.462  0.1299 -0.1933 -0.0648
29042W        W45303  12.886   7.920   2.637 -0.1587  0.0494  0.0316
29043W        W45304  13.498   2.128  15.344 -0.4922 -0.3184  0.1762
29044W        W45305  12.501  11.528   0.150  0.1771  0.0164  0.5455
29045W        W45306   9.958   8.992  10.308  0.2710  0.0247  0.0261
29046W        W45307   1.632  16.578   1.627 -0.1179  0.2873  0.2583
29047W        W45308  14.130   6.965   3.230  0.2807 -0.0065 -0.0307
29048W        W45309   3.398   3.024   5.186 -0.2974 -0.1810 -0.0796
29049W        W45310   4.557  17.061   1.385 -0.0137 -0.0354  0.2472
29050W        W45311   1.465   9.044   0.619 -0.1011  0.4349 -0.0538
29051W        W45312  10.850  14.388   0.970 -0.2587  0.0865  0.1095
29052W        W45313   3.029  13.521  14.519 -0.0453  0.1830  0.1940
29053W        W45314  11.077  10.480  16.295 -0.2178  0.1329  0.2568
29054W        W45315   0.604   1.357  13.307 -0.0680 -0.0060 -0.0380
29055W        W45316   2.868   9.704  12.752 -0.0179 -0.2147 -0.1777
29056W        W45317   6.144   8.794  14.912  0.2904  0.1254 -0.2576
29057W        W45318   0.460  17.379   1.492 -0.0199  0.2437 -0.1526
29058W        W45319  17.536  18.340   0.550  0.2309 -0.0519  0.1785
29059W        W45320  12.816   5.864   2.821 -0.1352 -0.0352  0.3474
29060W        W45321  14.462   9.049  10.941 -0.1816 -0.1327 -0.1264
29061W        W45322  16.626  11.496  13.273  0.2805 -0.0948 -0.3345
29062W        W45323  17.450  11.129   2.199 -0.1562 -0.0512 -0.3664
29063W        W45324  13.960  15.118  12.387 -0.1335  0.2860  0.0477
29064W        W45325   7.103   3.456  13.524 -0.1031  0.1566  0.0278
29065W        W45326  11.204   6.389  11.698 -0.0695  0.1265 -0.2270
29066W        W45327  14.390   2.409   5.793 -0.0326 -0.2960 -0.2956
29067W        W45328  11.826  16.672  13.218 -0.2555 -0.2191  0.0063
29068W        W45329  14.259  10.357   5.413  0.0110 -0.0179 -0.1579
29069W        W45330   8.309   1.895  14.731 -0.2179 -0.0174  0.1654
29070W        W45331  13.928  14.968   2.772  0.2925 -0.5092 -0.0496
29071W        W45332   3.454   1.094   2.149 -0.0053 -0.3880  0.2019
29072W        W45333   2.134   1.244   2.316 -0.0274  0.1239  0.2596
29073W        W45334   2.658  10.084  15.921  0.0987 -0.1451  0.0122
29074W        W45335  13.909  12.502   0.698 -0.1861 -0.1826  0.1170
29075W        W45336  14.744  14.509   5.015 -0.1585 -0.1476  0.1568
29076W        W45337   7.103  16.967  12.379  0.0611  0.1231  0.0014
29077W        W45338   5.019  10.672   2.644  0.2250 -0.1700  0.0846
29078W        W45339   5.238   8.186  14.632  0.1663 -0.0440 -0.4448
29079W        W45340   4.874   9.462  14.165  0.3404 -0.0123 -0.3255
29080W        W45341   5.168   8.200  13.666 -0.2492 -0.0700  0.0692
29081W        W45342  13.124  16.954  11.554 -0.0722  0.1875  0.0087
29082W        W45343   5.123  17.235  14.480  0.0784 -0.0065  0.1295
29083W        W45344   5.417  16.116   1.789  0.2028  0.0170 -0.2222
29084W        W45345  18.358   9.698  12.446  0.2249 -0.0688  0.0848
29085W        W45346   2.813   1.199  14.041 -0.2324 -0.1737 -0.0353
29086W        W45347   2.074  12.656  12.608 -0.0894  0.1433  0.0880
29087W        W45348  13.470  10.835   2.312  0.0550  0.1253 -0.2825
29088W        W45349   2.773   5.707  11.995 -0.1159  0.1342 -0.2459
29089W        W45350  11.838  14.193  12.406  0.2251 -0.0112 -0.2228
29090W        W45351  14.555   0.862   0.587  0.1303  0.0873 -0.0468
29091W        W45352   1.729  12.751  11.387  0.0142 -0.1640  0.1530
29092W        W45353   3.344  14.572   3.855  0.1270  0.1355  0.0849
29093W        W45354   0.467   9.004  13.942 -0.0462  0.2548  0.1691
29094W        W45355  15.059  17.468  15.099  0.2712 -0.2999 -0.0987
29095W        W45356  15.578  16.706  14.752 -0.0543 -0.1485  0.0351
29096W        W45357   6.167   5.868  12.837  0.1518  0.4867  0.0507
29097W        W45358   4.394   4.110  14.813  0.1400 -0.0220 -0.1386
29098W        W45359  17.533   4.567   5.617 -0.4994  0.2774 -0.0080
29099W        W45360   0.078   8.335  13.341 -0.2808  0.0081 -0.1265
29100W        W45361  14.736   9.623  15.368 -0.1281  0.1901 -0.4805
29101W        W45362   8.812  17.214  15.042  0.0871 -0.0512 -0.2680
29102W        W45363  12.295   4.303  15.313 -0.2549 -0.1362  0.0953
29103W        W45364  10.469  16.050  13.991  0.0364 -0.2285 -0.3880
29104W        W45365  13.870   6.545  14.866  0.4274  0.1989  0.1214
29105W        W45366  10.338   0.244   2.270 -0.2915  0.0325 -0.2054
29106W        W45367   3.623  13.488  15.740 -0.2979  0.2985  0.2909
29107W        W45368  16.555   6.945  14.357  0.2540  0.2775  0.1927
29108W        W45369   9.886   9.984  13.019 -0.0483 -0.3822  0.3559
29109W        W45370   2.960   2.333   5.843 -0.0876 -0.2613 -0.2643
29110W        W45371   0.165  17.087   2.024 -0.2908 -0.0653  0.1266
29111W        W45372   2.911  15.418   3.846  0.1577 -0.0361 -0.0424
29112W        W45373   3.963   0.016  14.815  0.0459  0.1085  0.0168
29113W        W45374  12.042   0.858   0.808  0.1179 -0.0888  0.3411
29114W        W45375   5.850   1.690   4.789 -0.0345  0.0318 -0.0015
29115W        W45376   8.386   9.190   3.174  0.1241  0.3067  0.0993
29116W        W45377   4.093  11.186  10.545 -0.0255  0.0085  0.3066
29117W        W45378   9.106   1.991  15.003  0.0008  0.0161  0.0339
29118W        W45379   9.568   5.162   3.769  0.4905 -0.3629 -0.1024
29119W        W45380  13.937  10.571  13.258 -0.1311 -0.0685  0.2081
29120W        W45381  11.797   5.145  13.567 -0.0678  0.0144  0.0548
29121W        W45382  16.172   2.844   5.753  0.2445 -0.1760  0.0447
29122W        W45383  16.440  18.060  13.976  0.1199 -0.3216  0.0534
29123W        W45384   1.186   4.516   4.753  0.2700  0.1596 -0.2261
29124W        W45385  14.444  15.217   0.758  0.1116  0.0748  0.2427
29125W        W45386  17.950  15.291   4.888 -0.0736  0.0044  0.1880
29126W        W45387   5.979  12.678  11.843  0.4775  0.0140  0.0287
29127W        W45388   9.597  10.377  10.837  0.0706 -0.3521 -0.1566
29128W        W45389   3.425   4.584  15.392  0.1718  0.2435 -0.0600
29129W        W45390  18.380  12.545   1.368 -0.0529  0.1957  0.2759
29130W        W45391  11.759   2.971  15.613  0.0722 -0.1255  0.3274
29131W        W45392  15.017  10.479   1.045 -0.2262 -0.1436  0.1340
29132W        W45393  11.011   8.334   5.757 -0.0803  0.3187  0.0361
29133W        W45394   2.953  10.467  11.716 -0.1207 -0.2385 -0.4343
29134W        W45395  15.839   8.759   1.975  0.2121  0.2472  0.1955
29135W        W45396   1.732  14.102  14.303  0.0232 -0.0865  0.1733
29136W        W45397  10.049   9.474  16.190 -0.2736 -0.2004 -0.2715
29137W        W45398  15.624   1.766   2.172 -0.1916 -0.1233 -0.1691
29138W        W45399   9.792  10.225  11.807 -0.0158  0.1001 -0.3523
29139W        W45400   3.550   1.714  12.835  0.1205 -0.0165 -0.0762
29140W        W45401  17.119  15.815  13.649 -0.3869 -0.2184  0.0354
29141W        W45402   1.837   5.573  13.778  0.3396 -0.3724 -0.1100
29142W        W45403  12.511   2.439  12.855 -0.1361  0.0188  0.1121
29143W        W45404   9.822   5.224   1.398  0.1837 -0.0560 -0.0838
29144W        W45405   2.388  10.994   0.255 -0.1121  0.0330  0.1343
29145W        W45406   7.726   4.446   3.267  0.2812  0.2847 -0.0019
29146W        W45407   3.411  13.130   5.232  0.0876  0.0295  0.1716
29147W        W45408  18.102  12.507   0.791  0.0363  0.0181  0.0657
29148W        W45409   7.141   4.780   3.134  0.2699  0.0179  0.0789
29149W        W45410   3.534   4.327  11.820 -0.0981  0.1015 -0.3689
29150W        W45411  12.575  12.590  11.887 -0.0923  0.0765 -0.1846
29151W        W45412  10.579  11.836  16.138  0.1237 -0.2135  0.1297
29152W        W45413   8.020   3.140  15.564 -0.2269 -0.1725  0.0751
29153W        W45414   9.053   6.116   3.075 -0.4493  0.2381 -0.1186
29154W        W45415  15.995   7.113  13.580  0.1424 -0.2842 -0.1288
29155W        W45416   7.676  18.121  14.852 -0.0235  0.1552 -0.0006
29156W        W45417  16.741   4.581   5.896 -0.0550  0.2285 -0.0716
29157W        W45418  11.916   1.595   3.605 -0.2435 -0.0342 -0.1268
29158W        W45419   0.369   5.433   0.786  0.0341 -0.0305 -0.0899
29159W        W45420   2.508  11.667  11.802  0.3276  0.3145  0.0596
29160W        W45421   0.408  13.767  15.257 -0.1858 -0.1053  0.0854
29161W        W45422  12.258   6.041  12.124  0.0523 -0.0665  0.0135
29162W        W45423  14.522   9.853   0.872 -0.0948  0.1959  0.1911
29163W        W45424   3.135   8.698   6.270 -0.1804  0.1687  0.1788
29164W        W45425   5.014  10.343  13.671 -0.0349  0.0664 -0.0264
29165W        W45426  12.595   0.483  15.103  0.1094 -0.0966  0.1971
29166W        W45427   6.298   9.438  13.743  0.1015  0.4417  0.0664
29167W        W45428  18.269   0.046   5.107 -0.0538  0.1915 -0.0311
29168W        W45429   0.565   1.354   3.556  0.1713  0.5069  0.0940
29169W        W45430   6.692   3.009   0.269  0.0047 -0.1838  0.3237
29170W        W45431  15.278  16.336   4.609  0.0123  0.4485 -0.0829
29171W        W45432   6.589   5.250  14.730 -0.0021  0.3074 -0.2377
29172W        W45433   9.865   9.801   4.965  0.1577 -0.2090 -0.1911
29173W        W45434   9.822   0.227  15.640  0.4167  0.3942  0.0950
29174W        W45435   2.767   2.113   0.076 -0.0609 -0.0149  0.1373
29175W        W45436  10.586   7.473   0.004  0.0837 -0.3137  0.0733
29176W        W45437  11.579   0.240   4.058 -0.1655  0.1087 -0.5718
29177W        W45438  14.771  14.526   0.995 -0.0532 -0.1492 -0.2223
29178W        W45439  16.530   7.250   4.631 -0.0154  0.5383  0.1973
29179W        W45440  12.549   5.733  14.101 -0.0153  0.1033  0.1382
29180W        W45441   3.984  16.169  12.808 -0.2518 -0.3102 -0.2529
29181W        W45442   0.180   5.232   1.201 -0.0536  0.2477 -0.1667
29182W        W45443   9.163   4.586  13.962 -0.1165  0.1608  0.1693
29183W        W45444  10.805  11.548  10.875 -0.1584  0.0190 -0.2692
29184W        W45445  11.636   1.246  15.414 -0.0764 -0.3501 -0.0569
29185W        W45446   7.624  10.193   4.531  0.0150  0.2253 -0.0585
29186W        W45447  13.550   2.597   5.162  0.3644 -0.2521 -0.0434
29187W        W45448   5.659  15.757   4.566  0.1100  0.1244 -0.0287
29188W        W45449  13.456   3.824   3.504 -0.0115  0.3207  0.0151
29189W        W45450   1.753  14.588  14.157 -0.3557  0.3445 -0.1317
29190W        W45451  12.725  11.023   1.650  0.2022  0.1135 -0.1759
29191W        W45452  12.377  14.068   2.043 -0.0193  0.1996 -0.1886
29192W        W45453   7.973  16.983   5.015  0.1412 -0.1757  0.0990
29193W        W45454  12.443  17.918  12.758  0.2810  0.0126  0.0779
29194W        W45455  11.906  15.434   2.331  0.0147  0.1490  0.1255
29195W        W45456   6.142   9.648  15.838 -0.3300 -0.2733 -0.1943
29196W        W45457   5.569  10.034  15.397  0.0146  0.1526 -0.0328
29197W        W45458   6.549   0.465  14.946  0.1317 -0.0017  0.2632
29198W        W45459   8.014   6.166  16.190  0.2973 -0.0804  0.1011
29199W        W45460   8.689   5.642  12.673  0.4027  0.0591  0.1229
29200W        W45461   2.157   8.689   2.686  0.0721  0.0363  0.2662
29201W        W45462   0.666   2.794  14.655 -0.0799  0.1709  0.1036
29202W        W45463   9.901   2.677   0.526  0.1969 -0.1099  0.1491
29203W        W45464   9.388   0.895  12.608  0.2397 -0.0654 -0.1191
29204W        W45465  17.671   9.336  13.237 -0.0351  0.0885 -0.0289
29205W        W45466  13.728   4.000  12.336  0.0258  0.1081  0.3894
29206W        W45467  18.088   2.633   2.814  0.1583  0.0230  0.0376
29207W        W45468  12.396   3.938   4.510  0.2903  0.1925 -0.1196
29208W        W45469   7.288  10.818  11.538  0.3111 -0.0984 -0.0417
29209W        W45470   7.966   2.771  11.903 -0.0410 -0.0050 -0.2307
29210W        W45471  14.022   9.686   2.575  0.2829 -0.2026  0.1663
29211W        W45472  12.826   3.489   3.881 -0.0394  0.1077  0.2248
29212W        W45473  10.247  17.261  13.453 -0.1286  0.0873  0.1200
29213W        W45474  16.401  17.593   5.392  0.1220  0.0557  0.1161
29214W        W45475  10.860   2.474   1.124 -0.0199  0.0836  0.2851
29215W        W45476   3.795  15.235   5.914  0.0175  0.1815 -0.0346
29216W        W45477   7.005  13.156  15.415 -0.3368 -0.1536 -0.0514
29217W        W45478   5.655  10.198   3.631  0.0852  0.0485  0.2090
29218W        W45479  18.058  12.994  14.358 -0.0552  0.0368 -0.0923
29219W        W45480  11.085  12.892   4.552  0.2513  0.2251  0.0658
29220W        W45481  16.986   6.898  14.004  0.2011 -0.2872 -0.0499
29221W        W45482  13.860  10.839   1.725 -0.1205  0.2672 -0.0665
29222W        W45483   8.698   6.890  15.133  0.0999 -0.2830 -0.3304
29223W        W45484   7.789   0.388  16.009 -0.1501  0.1524  0.0887
29224W        W45485  14.490  16.035   3.344  0.0185  0.2752  0.2115
29225W        W45486  11.096  11.580   4.920  0.0803 -0.0633 -0.2582
29226W        W45487   4.326   9.135  12.006  0.1955  0.1472  0.1032
29227W        W45488  13.906   6.970  15.188  0.0926  0.0371  0.0234
29228W        W45489   8.467   2.799  14.678 -0.0021 -0.0566 -0.1621
29229W        W45490   7.400  11.243   2.384 -0.2132 -0.4870 -0.2529
29230W        W45491  11.801   7.822  11.637  0.1225 -0.0171  0.1885
29231W        W45492   0.722   5.172   0.419  0.0191 -0.1801 -0.1624
29232W        W45493   2.105  14.678  11.817 -0.1579  0.2097  0.1258
29233W        W45494   6.150   9.812   0.012  0.1376 -0.2904  0.0508
29234W        W45495   2.942  11.542   0.111  0.1742  0.1367 -0.1427
29235W        W45496   2.568  11.719   3.422  0.1915 -0.0406  0.0130
29236W        W45497   9.227  11.894  11.513 -0.2435 -0.0531 -0.0144
29237W        W45498   6.312   3.367   2.511  0.0058  0.0677 -0.1001
29238W        W45499   8.183  11.449  13.470  0.1680  0.3910 -0.2108
29239W        W45500   8.348   2.512   3.110 -0.2223 -0.2657 -0.2060
29240W        W45501   2.034  11.751  12.024 -0.3145  0.0823 -0.0583
29241W        W45502  17.105   2.626  11.838  0.0673  0.1084 -0.1340
29242W        W45503  18.214  12.920  11.825 -0.1567 -0.0991 -0.1649
29243W        W45504  12.340  17.748   1.403  0.0386  0.1690  0.0960
29244W        W45505   2.877  15.493  11.713 -0.1479 -0.1064 -0.1589
29245W        W45506  16.047  10.013  13.803 -0.0833 -0.3078  0.2699
29246W        W45507   1.551  15.034   1.763 -0.1224 -0.1100 -0.2218
29247W        W45508  13.342  12.335   5.025 -0.0895 -0.2291  0.0963
29248W        W45509  10.249  12.381  13.058  0.2284  0.1897 -0.0346
29249W        W45510   5.902  16.968  15.024  0.0155 -0.3716  0.2122
29250W        W45511  12.596   6.567  15.912 -0.1953  0.0130 -0.2756
29251W        W45512  16.073   1.175   1.581  0.2176  0.2786  0.1237
29252W        W45513   5.955  12.879  10.221 -0.0381  0.3138 -0.0131
29253W        W45514   6.154  13.343   4.875 -0.1289 -0.1175 -0.1541
29254W        W45515  16.215   7.742  16.003  0.0405  0.1827  0.1856
29255W        W45516   1.057  12.874   2.184 -0.0338  0.2989 -0.0305
29256W        W45517  16.479  12.113   5.798 -0.3353  0.1101 -0.2943
29257W        W45518  13.138  11.973  13.036 -0.0142  0.1239 -0.0599
29258W        W45519  17.324   7.173  13.712 -0.0459 -0.0490  0.0362
29259W        W45520  15.939  10.602   2.304 -0.2722  0.1553 -0.0284
29260W        W45521   5.614   1.552   3.315 -0.1551 -0.0797  0.2226
29261W        W45522   5.925   4.810   1.295  0.1674 -0.2470  0.2032
29262W        W45523  16.669  13.168  12.806 -0.0801  0.3134  0.3815
29263W        W45524   4.907  18.037  11.503  0.0507 -0.2524 -0.0403
29264W        W45525   0.335   7.143   3.795 -0.1252 -0.2604  0.3550
29265W        W45526   9.032   1.658  14.148 -0.0477 -0.2554 -0.0292
29266W        W45527   9.810   4.400  11.415 -0.2334 -0.3089  0.0865
29267W        W45528  10.144  11.847   1.711 -0.0008 -0.0016 -0.1603
29268W        W45529   8.883  11.945   2.330 -0.0021  0.2125  0.1577
29269W        W45530  12.282  10.614  10.589 -0.1450  0.0808 -0.0898
29270W        W45531   5.254   7.994  11.262  0.1184  0.2608  0.1207
29271W        W45532  13.457   1.643  11.331  0.0854  0.1120  0.1077
29272W        W45533  12.097  16.640   4.764  0.0698  0.3827  0.1660
29273W        W45534   0.419   4.753  14.805  0.0684 -0.1345  0.1804
29274W        W45535  12.343  11.118   4.519  0.1831 -0.2043 -0.1065
29275W        W45536   2.843  18.026   5.790 -0.1731  0.2165  0.0514
29276W        W45537   4.931  16.255   1.545  0.0561  0.0832  0.3568
29277W        W45538   3.671   3.430   3.545 -0.0907  0.2733  0.3613
29278W        W45539   6.648  14.778  16.057 -0.2083 -0.0434 -0.0929
29279W        W45540  12.052   6.518  13.418 -0.0440 -0.0642  0.1434
29280W        W45541  10.781   7.492   2.582  0.3018 -0.0010  0.2177
29281W        W45542  14.483  12.177  11.809  0.0517 -0.0349  0.0873
29282W        W45543   4.583   3.859   2.939  0.0771 -0.0327 -0.1319
29283W        W45544   7.656   9.611  16.202  0.0478 -0.1811  0.0161
29284W        W45545   2.456   7.062   3.375 -0.0656  0.3271 -0.0832
29285W        W45546  13.811   2.222  13.441  0.2140 -0.1744  0.0530
29286W        W45547  14.595   6.400  15.207  0.0422 -0.1690  0.1229
29287W        W45548  11.418  17.500  13.822  0.0218  0.1007  0.0450
29288W        W45549  13.101  18.105   4.805 -0.0437  0.1197  0.2311
29289W        W45550  17.787  16.923   5.785 -0.0271 -0.1360 -0.3229
29290W        W45551  16.044  10.040  12.932  0.2617  0.1865 -0.1496
29291W        W45552  11.080   5.285  13.287  0.0336 -0.0837  0.1350
29292W        W45553   2.557  17.863   1.298 -0.0715  0.3077 -0.2689
29293W        W45554   3.291   2.280   1.196 -0.2470 -0.0046 -0.0955
29294W        W45555   4.176  14.793   0.518 -0.2968  0.2228  0.1156
29295W        W45556   8.067   7.029  13.802 -0.0506 -0.1248 -0.1151
29296W        W45557   0.227   4.890   4.320 -0.3314 -0.1842  0.0911
29297W        W45558  17.299  13.142  15.312 -0.3240 -0.1855  0.2637
29298W        W45559  15.085  12.319  15.036 -0.2480  0.0564  0.2837
29299W        W45560   4.280   0.243   1.250 -0.4000  0.3127  0.0291
29300W        W45561   5.586  15.718   3.687 -0.1000 -0.0212 -0.0774
29301W        W45562  13.442   7.859  11.991 -0.1772 -0.1429 -0.2437
29302W        W45563   5.909   1.761   2.229  0.0426 -0.0810 -0.1160
29303W        W45564   3.022  11.611  13.414  0.0224  0.1764 -0.0627
29304W        W45565   5.800  13.687  14.920 -0.4152 -0.1049  0.3436
29305W        W45566   2.723  17.311  12.573 -0.1385  0.0127  0.1888
29306W        W45567  15.301  13.421   1.639 -0.0167  0.3010  0.5840
29307W        W45568  11.617  15.450  13.649  0.4779  0.0696 -0.1152
29308W        W45569   3.572  13.586  12.285 -0.2771  0.3660 -0.0738
29309W        W45570   8.164   9.799  13.178  0.0925 -0.0748 -0.2506
29310W        W45571   4.349  17.519   2.724 -0.2376  0.2923 -0.1169
29311W        W45572   0.633   8.455  14.670  0.0864 -0.3584 -0.0758
29312W        W45573  13.701   5.706   2.455 -0.0375  0.1367  0.1440
29313W        W45574   1.805   8.382  12.549 -0.2323  0.1680 -0.1297
29314W        W45575  14.957  10.612   3.968 -0.0805 -0.3188  0.2139
29315W        W45576  12.638   1.174   1.111 -0.3918 -0.0309 -0.2086
29316W        W45577   9.433   8.053  11.303 -0.0141  0.0931 -0.0684
29317W        W45578   1.509  15.793   4.041  0.2106 -0.1467  0.2667
29318W        W45579   8.624   7.763  11.318  0.1473  0.0861 -0.1318
29319W        W45580   0.781  10.837  14.968  0.5813  0.2887 -0.0067
29320W        W45581  13.013  12.820   4.359 -0.2106  0.0907 -0.3241
29321W        W45582   5.347  16.462   1.336 -0.3647  0.0965 -0.1134
29322W        W45583   4.778  15.165   4.037 -0.3735  0.1378  0.0219
29323W        W45584   4.430  18.105  14.128 -0.1052 -0.1509  0.0632
29324W        W45585  12.739   5.070   1.658  0.0611 -0.4988  0.0678
29325W        W45586   6.220   3.057   0.424  0.0177 -0.1741 -0.0929
29326W        W45587  16.177   9.205  11.886 -0.0885  0.2111 -0.1375
29327W        W45588  15.848   1.278  15.629  0.4392  0.0520 -0.0249
29328W        W45589  12.743   5.386  15.326  0.0074  0.0371 -0.0044
29329W        W45590   9.451  18.237   2.921 -0.1606  0.0957 -0.2014
29330W        W45591   6.676   6.064   4.208  0.2565  0.1498  0.1961
29331W        W45592  11.826   9.345  15.857  0.0844 -0.0709  0.1024
29332W        W45593  16.730   5.107   1.954 -0.3010  0.0736 -0.2323
29333W        W45594  15.762  17.538  11.860 -0.0169 -0.0701 -0.2612
29334W        W45595   2.780  13.370   0.315 -0.2578  0.1814 -0.0289
29335W        W45596   5.791   3.066   1.805 -0.0101  0.2619 -0.1104
29336W        W45597   1.493   8.158   5.635 -0.2280  0.0149 -0.0863
29337W        W45598  18.336  14.768   0.804  0.2999 -0.0465 -0.0241
29338W        W45599  12.501   3.127   4.123 -0.4314 -0.0626  0.0544
29339W        W45600  12.577   3.619  12.517  0.0001  0.0154  0.0252
29340W        W45601   3.866  14.709   4.675  0.0335 -0.1785 -0.1211
29341W        W45602   5.976  11.338   2.500 -0.0510  0.1943  0.4773
29342W        W45603   8.676  12.349  13.199 -0.1938  0.0887  0.0544
29343W        W45604  13.709  16.394  13.373 -0.0313 -0.2765 -0.3367
29344W        W45605   1.084   4.515   0.664  0.0174  0.2344 -0.0537
29345W        W45606   2.678   4.057   4.303 -0.3965 -0.2010  0.0105
29346W        W45607  15.239   0.781   5.385  0.0703  0.1923 -0.1634
29347W        W45608   5.341   2.836   0.221  0.1448  0.0809 -0.1520
29348W        W45609  15.326   2.131  16.036 -0.0494  0.2870 -0.2336
29349W        W45610   6.546  10.466   3.484 -0.0529 -0.3782  0.1929
29350W        W45611   3.230  17.182   0.880 -0.1624  0.0229  0.3041
29351W        W45612  15.611   9.478   1.265 -0.5026  0.0557  0.0015
29352W        W45613  11.432   0.453   2.942  0.1076  0.1576  0.1272
29353W        W45614   3.301   2.563  15.141  0.2444  0.1926  0.1102
29354W        W45615   0.972   8.570  14.114  0.2117  0.1629  0.1220
29355W        W45616  15.791   9.684  12.239 -0.1579  0.4537 -0.0688
29356W        W45617  16.137   4.699  14.888  0.2036  0.1053  0.1213
29357W        W45618   6.860   9.880   2.749  0.2654 -0.2426 -0.2905
29358W        W45619   0.561   6.677  12.019  0.0352 -0.1300 -0.2391
29359W        W45620   4.543   5.401   3.890  0.0119  0.0127 -0.3395
29360W        W45621   8.144   7.769  15.768 -0.0935 -0.1771 -0.1466
29361W        W45622  15.332   3.069  15.309 -0.0504  0.1581 -0.0957
29362W        W45623   5.669   7.767  15.677  0.0135 -0.0837  0.2335
29363W        W45624   7.134   0.115  11.404  0.0584 -0.1597 -0.0509
29364W        W45625   1.566  12.707  12.831 -0.2225 -0.0476 -0.3859
29365W        W45626  14.180   3.993  15.176  0.0365  0.0438 -0.1868
29366W        W45627   6.333  11.546   1.581 -0.1195 -0.2597  0.2085
29367W        W45628   5.553  11.388   5.188  0.2509 -0.1449  0.3630
29368W        W45629   4.700   9.768  10.028  0.3461  0.2524  0.1880
29369W        W45630  13.012   4.153  11.314  0.1548 -0.0834  0.4281
29370W        W45631   6.322   0.586  15.412 -0.0195 -0.0511  0.1496
29371W        W45632  11.167  17.914   2.267  0.2727  0.0981  0.0540
29372W        W45633   6.936   8.217  12.051 -0.3325 -0.1977  0.0297
29373W        W45634   3.023  16.155  15.482 -0.1524 -0.0278  0.2348
29374W        W45635   5.075   1.719   1.908  0.2231 -0.0285  0.2047
29375W        W45636  17.648  11.931   4.437  0.0850  0.0580 -0.1066
29376W        W45637  13.195  17.733   1.203 -0.0174 -0.1607  0.1570
29377W        W45638  10.551  13.878   1.066 -0.0327  0.0649  0.2194
29378W        W45639   8.599   7.884  15.846 -0.2311 -0.0966  0.1048
29379W        W45640   4.375   4.384   2.490  0.0698 -0.1987 -0.0841
29380W        W45641   5.620   6.057   2.561 -0.5064 -0.2192 -0.1252
29381W        W45642   7.166  11.696   0.031 -0.0138 -0.0851 -0.1269
29382W        W45643   2.248  13.747   4.147  0.0185 -0.3106 -0.1203
29383W        W45644  11.443   3.377  14.472 -0.0343  0.1162 -0.1857
29384W        W45645  11.968   5.593   4.874  0.1208 -0.0305 -0.2218
29385W        W45646   7.992   3.558  13.201 -0.1169 -0.0089  0.0933
29386W        W45647   3.942   6.508   2.577  0.1077 -0.0061 -0.3548
29387W        W45648  15.087  13.877   0.403 -0.0838 -0.5043 -0.0964
29388W        W45649  15.183   8.962  12.385 -0.0565  0.2306 -0.0207
29389W        W45650  12.269  12.953   3.563  0.0918  0.1802  0.1225
29390W        W45651   1.179   3.749   5.029 -0.0888  0.1469  0.0150
29391W        W45652   5.535   3.279   4.009 -0.0038 -0.0924  0.0832
29392W        W45653   4.219   1.910  11.328 -0.2405  0.0235 -0.2029
29393W        W45654  14.091  15.850   5.165 -0.2308 -0.0246 -0.1118
29394W        W45655  14.185   5.537   0.532  0.2083  0.0639 -0.1716
29395W        W45656   4.184   7.685   4.732 -0.0875  0.0287 -0.0031
29396W        W45657   8.411   8.430  14.877  0.1453 -0.4088  0.1105
29397W        W45658  10.217  12.621  14.882 -0.0814 -0.2138 -0.0187
29398W        W45659   3.697   8.677   3.411  0.3101 -0.1108  0.1293
29399W        W45660  15.361   4.687   2.421 -0.2698  0.1129 -0.0224
29400W        W45661   0.592   8.377  13.212  0.3845 -0.2651  0.0871
29401W        W45662  15.804   8.074  12.899 -0.2714 -0.3947 -0.0756
29402W        W45663   7.490  14.296  10.880 -0.0378 -0.2547 -0.2015
29403W        W45664  11.545   5.428  11.650  0.2901  0.0610  0.0387
29404W        W45665   1.005   1.801  12.706  0.0190 -0.1671 -0.0079
29405W        W45666  10.624  11.389   1.653  0.2433  0.2484  0.0998
29406W        W45667   8.325  11.795  15.211  0.3800 -0.2774 -0.3113
29407W        W45668  13.620   1.004  16.030  0.0315  0.0360  0.2766
29408W        W45669  17.421  14.027   2.179 -0.0379  0.2370  0.0930
29409W        W45670   7.128  14.884   3.247  0.0203  0.2572 -0.1316
29410W        W45671   2.543  10.385   3.891  0.1148  0.1824  0.2973
29411W        W45672   1.125   5.027   0.671 -0.0795  0.0515 -0.2802
29412W        W45673  11.214  17.358  14.328 -0.2420 -0.1606 -0.0518
29413W        W45674   6.806   9.344   2.300  0.1029 -0.1289 -0.0934
29414W        W45675   4.057   2.058  11.768 -0.0306 -0.1576  0.2867
29415W        W45676   5.595  16.411  14.253 -0.1055  0.0447  0.1588
29416W        W45677  12.178   3.371   2.381  0.2191  0.1005  0.4021
29417W        W45678  15.534  12.616   1.087 -0.0827  0.0410 -0.2140
29418W        W45679  10.910   6.517  12.170 -0.1068  0.2830  0.1499
29419W        W45680   3.733   1.170  13.937 -0.0297 -0.0736  0.0744
29420W        W45681   5.339   0.247  11.170 -0.0066  0.1271  0.1434
29421W        W45682   1.201  11.447   3.563 -0.0722 -0.2394 -0.0560
29422W        W45683  16.867   5.966   3.586 -0.0809  0.1045 -0.2886
29423W        W45684   4.909  10.646  10.478 -0.1495 -0.0621 -0.3885
29424W        W45685  16.134   6.539   0.175 -0.1017  0.0728 -0.1783
29425W        W45686  13.225   1.122   1.941  0.3602 -0.0260 -0.2220
29426W        W45687   2.261   4.957   4.016 -0.1920  0.1527 -0.3617
29427W        W45688  13.628   9.321   1.708 -0.3358  0.1766 -0.1853
29428W        W45689   8.277  16.172   1.629 -0.3489  0.1519 -0.0269
29429W        W45690  17.161   6.742   1.710 -0.0033 -0.1329 -0.1679
29430W        W45691  13.389  15.911  15.954 -0.1524  0.0696  0.0040
29431W        W45692   3.150  12.050  14.213  0.1494 -0.2581 -0.0819
29432W        W45693  15.811  13.701   0.978 -0.1424 -0.1413 -0.1099
29433W        W45694   5.479  11.648  16.261  0.2725 -0.1570 -0.0847
29434W        W45695   0.101   0.574   4.843 -0.1858  0.2766  0.3360
29435W        W45696  10.242  13.637   5.512  0.0016  0.2422  0.2758
29436W        W45697   9.853  14.410  12.260 -0.0271 -0.1302 -0.0542
29437W        W45698  13.579  13.934   1.925  0.2267  0.4217 -0.0910
29438W        W45699   4.751  14.786   0.605  0.3173 -0.5441 -0.2614
29439W        W45700  12.554   4.783  11.794 -0.0559 -0.1852  0.0586
29440W        W45701   5.297  14.286  13.705 -0.2919  0.1622  0.0354
29441W        W45702   0.730   5.370   3.526  0.1485 -0.1496  0.2284
29442W        W45703   4.422   7.016   1.174 -0.0651  0.2495 -0.0459
29443W        W45704   7.416  10.201   1.289  0.3032  0.2668 -0.1977
29444W        W45705  16.998  17.128  12.137  0.2108  0.0176 -0.1066
29445W        W45706   0.547   1.835  15.839  0.3161 -0.1434  0.0073
29446W        W45707  14.956  18.267  15.542 -0.0451 -0.2887 -0.0795
29447W        W45708   8.629  16.284   0.245 -0.0229  0.4402 -0.2347
29448W        W45709  15.446   9.951   1.532 -0.1677 -0.0045 -0.0747
29449W        W45710  15.848   7.444   5.244 -0.1192 -0.1795 -0.2339
29450W        W45711   6.150   3.140   1.128 -0.0118 -0.2164 -0.0581
29451W        W45712  16.444  10.198  10.553  0.2104 -0.0150 -0.0671
29452W        W45713  11.331   5.168   5.390 -0.0767 -0.2582  0.0574
29453W        W45714   9.720  16.723  15.876 -0.0189  0.1633 -0.1192
29454W        W45715   7.276   1.581   2.730 -0.1888 -0.0230 -0.3955
29455W        W45716  11.389   3.051   3.326  0.1892 -0.2052  0.2357
29456W        W45717   1.133   2.650  15.910 -0.1335 -0.0467  0.0698
29457W        W45718  15.339   6.999   0.202 -0.0733 -0.0450  0.2055
29458W        W45719  14.327   1.646   2.597 -0.0688 -0.1882  0.0663
29459W        W45720   0.213   4.412  16.054  0.3025  0.1769  0.0085
29460W        W45721   8.307  15.774  13.298  0.2567 -0.0893  0.0898
29461W        W45722   5.152  17.575   0.858  0.0231  0.0698  0.2294
29462W        W45723  13.124  16.624   4.391  0.1795 -0.1325  0.4765
29463W        W45724  11.024   1.116  15.689  0.2825 -0.2078  0.0684
29464W        W45725   9.713   8.825  10.809 -0.0573 -0.1402  0.1051
29465W        W45726  11.793   4.914   1.298  0.0235 -0.0306  0.2558
29466W        W45727  11.098   9.130  11.918 -0.0698 -0.1378  0.2425
29467W        W45728  17.391  17.837   3.398  0.0345  0.3498 -0.0100
29468W        W45729   3.846  18.381   5.815  0.1916 -0.1063 -0.0344
29469W        W45730  15.321   7.037   1.551  0.0714 -0.1025 -0.0136
29470W        W45731   4.046   4.005   2.801  0.1306  0.0670 -0.5101
29471W        W45732   6.921   7.182   2.228 -0.0338  0.1439  0.4101
29472W        W45733   1.029  12.753  12.983 -0.1171 -0.0214  0.1123
29473W        W45734  17.143   5.381  15.845  0.1703 -0.1288  0.0201
29474W        W45735   8.110   4.102  14.067  0.3321  0.1664  0.0429
29475W        W45736   6.242   3.479   0.781  0.2565  0.1134 -0.1051
29476W        W45737  18.234   8.908  14.111 -0.0070 -0.0664 -0.0403
29477W        W45738  11.385  16.265   6.129 -0.1202 -0.1454  0.1197
29478W        W45739  15.586   3.550   4.754  0.0577  0.1666  0.0198
29479W        W45740   9.176   6.299  11.747  0.2381 -0.4264 -0.0480
29480W        W45741  11.166   9.992  14.848  0.0905  0.2663 -0.2637
29481W        W45742   6.920  13.426  14.066 -0.1309  0.1110  0.0886
29482W        W45743  15.447  16.828   5.805  0.0864 -0.0955  0.0706
29483W        W45744  13.644  11.257  15.925  0.0769  0.0976  0.2864
29484W        W45745  13.797  10.878   4.750  0.0221  0.3443 -0.1554
29485W        W45746  14.642   1.682  10.977  0.1111 -0.0317 -0.2490
29486W        W45747  11.290   1.661  12.396 -0.0493 -0.3125  0.0068
29487W        W45748   6.565   7.565   1.772 -0.0586 -0.1803  0.0107
29488W        W45749  10.410   4.375   0.462  0.3756 -0.1885  0.2930
29489W        W45750  17.081  11.613  15.835 -0.2191 -0.4535 -0.0179
29490W        W45751  13.249   4.776  10.400  0.6202 -0.4381  0.1736
29491W        W45752   9.311   0.583   4.090  0.2601 -0.1137 -0.0733
29492W        W45753  14.471   6.202   1.029  0.0576  0.2402 -0.1341
29493W        W45754   0.173   2.996   0.206  0.0539 -0.0111 -0.1835
29494W        W45755   1.466   7.077   4.376  0.3792  0.0342 -0.0188
29495W        W45756   3.007   9.533   3.432  0.1601  0.2203 -0.2607
29496W        W45757  15.694  17.525   2.273 -0.0549  0.0525 -0.1688
29497W        W45758   7.296   9.430   1.590  0.2090 -0.2380 -0.2564
29498W        W45759   0.268  18.198  13.171 -0.2529  0.2147  0.5227
29499W        W45760  14.476  11.332   2.221 -0.1781 -0.1479 -0.0930
29500W        W45761  17.358   1.049  12.566  0.0164  0.0794 -0.0311
29501W        W45762  14.507  16.914   2.645 -0.1027 -0.2083 -0.1921
29502W        W45763  10.284  12.921  16.302  0.0395  0.2508  0.0285
29503W        W45764  10.737   5.241   1.536 -0.1037  0.0377  0.2167
29504W        W45765  13.268  17.462  16.032 -0.0166  0.3398  0.0305
29505W        W45766   0.405   9.437  10.490  0.0689 -0.3478 -0.2419
29506W        W45767   7.995  14.121   4.053 -0.3828  0.0812  0.1569
29507W        W45768   7.104   1.584   4.594  0.0572  0.0571 -0.4174
29508W        W45769  18.136   7.610   4.295  0.0953  0.1900  0.0641
29509W        W45770  14.281  16.318   3.734  0.2409  0.0751 -0.2657
29510W        W45771  11.140   6.470  12.700  0.1675 -0.0059 -0.1044
29511W        W45772   6.224  11.566  12.217  0.2150 -0.4423 -0.1630
29512W        W45773   2.355  11.912   1.187  0.0560  0.2212 -0.0585
29513W        W45774  16.045   2.036   2.663  0.3949  0.3246  0.0567
29514W        W45775  15.961   0.536  14.188 -0.1942  0.0339 -0.1841
29515W        W45776  16.167   6.621   3.153 -0.2310 -0.0264 -0.0641
29516W        W45777   7.005  12.763   4.543  0.1525 -0.4011 -0.2774
29517W        W45778   4.179  12.657   5.211 -0.0060  0.3083  0.3339
29518W        W45779  10.271  14.846   4.549 -0.0853 -0.0249 -0.4614
29519W        W45780   8.049   5.143  13.963  0.0354 -0.0372  0.1142
29520W        W45781  15.656  13.583   1.985  0.5007 -0.2526  0.4263
29521W        W45782   5.844  14.762  11.342 -0.1697 -0.0039 -0.0120
29522W        W45783   5.794  13.929  12.517 -0.3219  0.1842  0.0782
29523W        W45784   4.375  16.900   0.877 -0.3461  0.0813 -0.2342
29524W        W45785  12.470  17.164  15.837  0.1512  0.3343  0.2857
29525W        W45786  11.215  13.584  15.506 -0.0676  0.0702  0.1361
29526W        W45787   0.784   6.055   2.705  0.0866 -0.1196  0.1680
29527W        W45788  18.045  17.792  14.730  0.1183  0.1089 -0.0741
29528W        W45789  15.940  14.904  15.068  0.0106 -0.2543  0.0096
29529W        W45790  17.094   6.137  13.878 -0.0125  0.3441  0.2342
29530W        W45791   1.700   1.449   1.917 -0.0007  0.1584 -0.0595
29531W        W45792  17.315   0.652  13.742  0.0121  0.4313  0.1276
29532W        W45793  13.374  13.828   1.430 -0.1176  0.0361 -0.0548
29533W        W45794   5.322   9.999  11.804  0.4901  0.3377  0.2471
29534W        W45795  16.623  18.088  15.950  0.0418  0.0183 -0.0294
29535W        W45796   1.173  16.081   2.150 -0.1444 -0.4180  0.1557
29536W        W45797   8.586  12.435  10.789  0.1498  0.2094 -0.2590
29537W        W45798  17.896   5.844   1.191  0.1070 -0.0960  0.1400
29538W        W45799  15.752  15.742  13.481 -0.2479 -0.2757  0.0502
29539W        W45800  14.926   5.711   2.437 -0.2292  0.2736 -0.0875
29540W        W45801  17.052   7.374  12.745 -0.1897 -0.0465  0.0555
29541W        W45802  15.709  12.815  16.222  0.0512 -0.2519 -0.2029
29542W        W45803   6.134   8.620   2.993  0.1015 -0.1861 -0.0336
29543W        W45804   6.248   1.817   1.114 -0.1351 -0.4040 -0.0170
29544W        W45805  10.186   3.669  12.146  0.1350  0.1242 -0.5029
29545W        W45806   3.586  13.599   1.155  0.1243 -0.0786  0.1236
29546W        W45807   6.844  15.653   3.868  0.0087  0.0479 -0.3400
29547W        W45808   3.166  11.105  12.577  0.0415 -0.0187 -0.1120
29548W        W45809  10.246   4.164  13.729 -0.0889  0.2858  0.2971
29549W        W45810  11.489  13.300  14.578  0.1035 -0.0088 -0.0327
29550W        W45811  18.380   8.441   3.621  0.2116  0.1015 -0.2898
29551W        W45812  11.427   4.887  14.931  0.2262 -0.2753  0.1111
29552W        W45813  13.870   5.055  14.108  0.0091 -0.1257 -0.2262
29553W        W45814   3.245  14.697   0.813 -0.1467 -0.1584  0.0517
29554W        W45815   8.734  13.275   1.266  0.0743  0.1568 -0.2523
29555W        W45816  18.211   1.092  11.993  0.0854 -0.2516 -0.1124
29556W        W45817  15.260   2.144  13.848  0.2280 -0.1921 -0.1224
29557W        W45818  11.178   3.943   3.244 -0.0102 -0.3599 -0.0507
29558W        W45819  13.839  16.744   3.875 -0.1187  0.1342 -0.0938
29559W        W45820  14.779  15.922  11.793 -0.2939  0.1153  0.0976
29560W        W45821   4.858   2.311   1.887  0.0230 -0.0435  0.2483
29561W        W45822   3.984   4.438   4.564 -0.0262 -0.0747  0.0632
29562W        W45823   8.045  13.904   1.128 -0.0554  0.0344  0.0822
29563W        W45824  15.730   6.904   3.056  0.2540  0.3981  0.0157
29564W        W45825   2.500   2.559  13.337 -0.2082 -0.1826  0.1494
29565W        W45826   2.964  16.777  12.404 -0.1217 -0.1329  0.0258
29566W        W45827  17.499   2.803  13.030 -0.0795 -0.2153  0.1635
29567W        W45828  16.057   5.279  13.537  0.0841  0.1629 -0.0702
29568W        W45829  11.549  10.091  11.703  0.1633  0.0587 -0.0839
29569W        W45830   7.595   9.233   3.327  0.2455  0.2460  0.1540
29570W        W45831   4.838  10.132   0.511  0.0689 -0.4001 -0.1771
29571W        W45832  11.276  18.290  11.728  0.0950 -0.1080 -0.4409
29572W        W45833   0.531   4.740   2.312  0.2120  0.1216  0.1791
29573W        W45834   0.683   4.416  11.746  0.0445 -0.0881 -0.0389
29574W        W45835   2.451   0.941   5.835 -0.0202 -0.6536  0.1004
29575W        W45836  14.014  15.963   0.297  0.1351 -0.0479 -0.1568
29576W        W45837   6.804   2.758   6.057 -0.3305 -0.7091 -0.2323
29577W        W45838   4.283   6.529   2.159  0.2877  0.0435 -0.2143
29578W        W45839  13.919   9.962   5.546 -0.2377 -0.4793 -0.2045
29579W        W45840  14.209   2.615  14.659  0.0711 -0.0227 -0.0143
29580W        W45841   9.876  17.043   2.280 -0.2979 -0.3888  0.2094
29581W        W45842   8.590  11.834   4.743 -0.2487 -0.2066  0.2406
29582W        W45843  16.911  16.574   4.796 -0.1586 -0.1408 -0.0932
29583W        W45844   7.275   4.706  16.085 -0.1765 -0.1584  0.1270
29584W        W45845   3.237  10.981   0.127 -0.1183  0.2198 -0.0480
29585W        W45846   4.303  15.037   2.856  0.0606  0.2440  0.0480
29586W        W45847   2.064   7.637   4.905  0.0514 -0.0720 -0.0643
29587W        W45848   4.029  10.620   0.042 -0.1627 -0.0291 -0.0184
29588W        W45849  14.491  14.011  13.827 -0.1355  0.1035  0.1659
29589W        W45850  16.319   5.415   4.036 -0.0108  0.0173 -0.1876
29590W        W45851   0.808   2.103  13.379  0.1476 -0.1045 -0.1093
29591W        W45852   0.301   9.778   0.096  0.0146 -0.1397  0.0384
29592W        W45853  12.090   5.599  13.242 -0.0128  0.1534  0.2390
29593W        W45854   4.098   0.341  15.213 -0.2658 -0.1886 -0.2003
29594W        W45855   9.833  10.632   1.383  0.0013 -0.1743  0.2687
29595W        W45856  11.531   6.939  11.169 -0.0637 -0.3785  0.0531
29596W        W45857   8.647   6.250  13.707 -0.2549  0.2011 -0.0031
29597W        W45858  15.888   4.029   0.491 -0.0871 -0.1076  0.1490
29598W        W45859  17.988   1.026   2.485 -0.0343  0.2179 -0.2013
29599W        W45860   5.005  16.290   5.632 -0.1204 -0.2010  0.0713
29600W        W45861   5.089  15.713   0.104  0.0658 -0.1655 -0.2510
29601W        W45862   7.760   2.868  13.546  0.1217  0.0803 -0.3656
29602W        W45863  15.325   7.872  14.083 -0.1195  0.0339 -0.3737
29603W        W45864   4.868  14.106  13.402 -0.1100 -0.1520 -0.0116
29604W        W45865   8.343   3.465   5.110  0.2787 -0.0706  0.2089
29605W        W45866   7.086   4.722  15.262 -0.3413 -0.1113  0.0836
29606W        W45867  15.309   1.935   1.487 -0.0970  0.1412 -0.0006
29607W        W45868   3.664   4.452   1.055 -0.1147  0.1353 -0.2974
29608W        W45869   6.414  13.210   3.531 -0.1518  0.0800 -0.2009
29609W        W45870  15.617   1.733   5.979  0.0727  0.2157 -0.1754
29610W        W45871   6.014  17.209  11.949 -0.1145 -0.2468 -0.1923
29611W        W45872   5.715  11.786   2.596  0.0037  0.2226  0.0984
29612W        W45873  15.841   5.037   3.199  0.4546  0.0556  0.3017
29613W        W45874   0.709  17.971  13.060  0.2118  0.2432 -0.0058
29614W        W45875   2.097  15.645   3.379 -0.1920 -0.0364 -0.0327
29615W        W45876  16.928   6.340   2.002  0.1966  0.2289 -0.0665
29616W        W45877  12.681   3.953  13.465  0.3235 -0.4386 -0.2747
29617W        W45878   2.780  15.016  14.032 -0.0987 -0.1180  0.0521
29618W        W45879   7.803  13.524  10.887  0.0703 -0.1459 -0.0443
29619W        W45880  11.949   1.356  12.543  0.1205  0.3386  0.1314
29620W        W45881  10.557  12.416   1.640  0.2133 -0.2018 -0.0540
29621W        W45882   0.875   2.923   3.746 -0.1066  0.0593  0.5433
29622W        W45883   1.153  10.333   1.086  0.0204 -0.0702 -0.2612
29623W        W45884   5.725  12.577   1.448 -0.2949 -0.1023  0.1951
29624W        W45885   3.728  12.905   1.002 -0.1691  0.0580  0.0364
29625W        W45886   5.869   7.409  11.129  0.0244 -0.0629 -0.1650
29626W        W45887  11.794  12.784   1.314 -0.1917  0.1153 -0.0173
29627W        W45888  17.871  10.626  15.554 -0.1284  0.2014  0.0547
29628W        W45889  13.385  15.629  13.922 -0.0114 -0.0816 -0.3249
29629W        W45890  12.070  12.731   4.566  0.1079 -0.2477 -0.1486
29630W        W45891   4.257   9.423   4.140 -0.3047  0.0010  0.2831
29631W        W45892   7.250   0.453   1.499 -0.3022 -0.1679  0.3218
29632W        W45893   8.806  10.472   5.153  0.1148 -0.0038 -0.2091
29633W        W45894   1.584  16.974  15.871  0.1010 -0.1006 -0.4390
29634W        W45895   2.955   5.384   2.697  0.0782 -0.1813 -0.1920
29635W        W45896  14.828   0.076  14.217  0.1538  0.2354  0.0959
29636W        W45897  13.251   8.000  14.793 -0.0664  0.0269 -0.0786
29637W        W45898   0.348  13.686   0.929  0.2143  0.0327  0.2251
29638W        W45899  13.220   1.217  14.719 -0.2512  0.2858 -0.1750
29639W        W45900   2.693   6.568  12.668 -0.1013 -0.2513 -0.0449
29640W        W45901  14.990  13.641   3.922 -0.4004 -0.4738 -0.1609
29641W        W45902  14.030  16.194   3.151 -0.0666 -0.1653  0.0019
29642W        W45903  13.524   6.616  13.153 -0.2694 -0.3552 -0.0962
29643W        W45904   1.372   5.802   3.375  0.0627 -0.1644  0.1949
29644W        W45905   8.263   2.828   3.590  0.2599 -0.3793 -0.4339
29645W        W45906   1.350   0.405   1.790  0.0644  0.3452  0.1532
29646W        W45907   1.047  17.269   1.945 -0.0334 -0.2230  0.1300
29647W        W45908  15.870   9.960   1.130  0.2200 -0.1288  0.1539
29648W        W45909   2.955   2.980  14.991 -0.2355  0.0459 -0.2158
29649W        W45910  12.680   9.315   4.922 -0.1355 -0.2955  0.1330
29650W        W45911  17.555   3.712  15.880  0.5082  0.1949 -0.2829
29651W        W45912   8.147   4.545  12.950  0.1132  0.0227  0.3878
29652W        W45913   0.847  15.338  15.966 -0.1472 -0.4320 -0.1659
29653W        W45914   5.772   0.831  12.628 -0.2555  0.0229  0.0716
29654W        W45915   8.957  15.546   0.305 -0.0085  0.2568 -0.4335
29655W        W45916  14.085   2.803  13.710 -0.0836 -0.0185  0.0828
29656W        W45917   8.007  15.527   0.315  0.1483 -0.3697  0.0121
29657W        W45918   0.368   5.228  12.748 -0.1775 -0.1310 -0.0698
29658W        W45919  12.028   0.404  15.127 -0.1249  0.1419 -0.1805
29659W        W45920  15.056  12.375   0.467 -0.2243 -0.0114  0.2075
29660W        W45921   9.756   3.505  11.346 -0.0759 -0.0043 -0.2332
29661W        W45922  17.448  11.845  12.913  0.0854 -0.1657 -0.0622
29662W        W45923   4.138   3.675  14.470  0.3801  0.2018 -0.1270
29663W        W45924   2.347  14.856   3.179  0.0980 -0.0636 -0.0054
29664W        W45925  16.061   5.264  16.265 -0.0625 -0.2411 -0.2163
29665W        W45926  11.799  15.285   1.051  0.1687 -0.0630  0.0740
29666W        W45927   3.603  17.226   0.428 -0.0912  0.1042 -0.2647
29667W        W45928   7.689  12.291   2.569  0.2507  0.2778 -0.0422
29668W        W45929   4.775   1.216  15.898  0.2636  0.0463 -0.1453
29669W        W45930   9.339  16.366  12.498  0.0967 -0.0151 -0.1074
29670W        W45931  17.932  12.087   5.637  0.2622  0.3336  0.1230
29671W        W45932   9.025  15.240  16.234 -0.0612 -0.1297 -0.0394
29672W        W45933  11.155   7.245   2.065  0.0527 -0.2570 -0.1607
29673W        W45934   2.084  13.315  11.979  0.0006  0.0944 -0.0228
29674W        W45935   3.409  17.274   1.706 -0.0261 -0.2503 -0.2165
29675W        W45936  17.353  13.488  15.654 -0.0333 -0.0115 -0.3454
29676W        W45937   8.648   8.589  12.595  0.1331  0.1094 -0.1519
29677W        W45938  13.655  13.820  14.732  0.1185 -0.1929 -0.0459
29678W        W45939   8.550   1.177  15.273  0.0257  0.3037  0.1704
29679W        W45940   2.484   3.968  14.338 -0.0542 -0.0680 -0.2047
29680W        W45941  13.206   4.589   0.075 -0.2845  0.0761  0.1933
29681W        W45942  14.167   8.834  16.227  0.1206 -0.1285  0.1842
29682W        W45943  16.214   2.379  15.365 -0.1516 -0.0229 -0.0045
29683W        W45944   9.756   1.256   0.172 -0.0259 -0.0249 -0.3238
29684W        W45945  18.196  13.690   0.734  0.0846  0.1881 -0.2826
29685W        W45946  15.153  10.615  11.639 -0.4827  0.0633 -0.4217
29686W        W45947  18.313   3.915   6.062  0.0218  0.0116  0.1845
29687W        W45948   4.294   6.537  13.139 -0.1647 -0.3080  0.0092
29688W        W45949   0.046  12.571  15.799  0.2133 -0.0806  0.4482
29689W        W45950  10.393   5.240   5.018 -0.0941  0.0308  0.0040
29690W        W45951   5.570   6.753   4.499 -0.0510 -0.2955  0.0323
29691W        W45952  17.736   5.012   4.645  0.6728 -0.0909  0.1645
29692W        W45953   2.453  15.488   0.279  0.3415 -0.1360 -0.1098
29693W        W45954   5.359   2.661   3.187 -0.0598  0.0871 -0.5219
29694W        W45955   1.706   9.282  12.111  0.1490  0.0929  0.0285
29695W        W45956   1.657   4.337  15.745  0.0515  0.0855  0.1988
29696W        W45957  15.159   7.314   6.054 -0.0726 -0.0187 -0.2163
29697W        W45958  14.423   8.679   3.054  0.0541  0.1382  0.0430
29698W        W45959  10.419   2.061   0.977 -0.1336 -0.1293  0.0131
29699W        W45960  15.109   4.938  13.891  0.0743 -0.1243 -0.0204
29700W        W45961   2.144  15.158   1.076 -0.1817 -0.0856  0.0928
29701W        W45962   0.446   4.195   1.247  0.2153 -0.0805 -0.0343
29702W        W45963   5.850  17.951  14.070 -0.0731 -0.0448 -0.1261
29703W        W45964   7.746  13.823  15.066  0.1682  0.1639  0.0956
29704W        W45965  11.054  11.274  14.023 -0.2232 -0.0834 -0.1259
29705W        W45966  18.313   4.116   0.101 -0.4348  0.1167 -0.0671
29706W        W45967   4.533   6.861  11.961  0.0779  0.3065 -0.0086
29707W        W45968   5.638   8.842  10.963  0.0035 -0.2798  0.1999
29708W        W45969  11.796   9.361  13.052 -0.0115 -0.2759 -0.2248
29709W        W45970   8.074   1.393   4.942 -0.4091  0.2314 -0.1867
29710W        W45971  15.557   5.192  12.342  0.3186  0.0381 -0.0031
29711W        W45972  16.578  13.981  13.106  0.0643 -0.2886 -0.1149
29712W        W45973   6.600  15.928  13.519  0.2136 -0.2467 -0.0546
29713W        W45974   6.781  12.058   0.387  0.0632 -0.1335  0.1359
29714W        W45975  15.278  12.594  11.238 -0.1704 -0.1173  0.1238
29715W        W45976  17.003   7.825   1.705  0.2243 -0.2440 -0.0237
29716W        W45977  15.479  13.819  11.454 -0.0506 -0.1159 -0.0860
29717W        W45978   0.033   6.876  12.806 -0.0956  0.5625 -0.4356
29718W        W45979  15.400   6.520   3.562  0.0713  0.0642 -0.3493
29719W        W45980   3.146   4.946   3.681  0.1629 -0.3290 -0.1248
29720W        W45981  17.233  16.699  15.958 -0.0950  0.1426  0.2107
29721W        W45982   1.362  16.682  12.569 -0.0258  0.2738 -0.1715
29722W        W45983   8.393  10.822  12.792  0.3475 -0.0211 -0.1415
29723W        W45984   3.699  13.905   0.278  0.0944  0.1328 -0.1758
29724W        W45985  11.315  10.194  12.159 -0.2240  0.0531 -0.1524
29725W        W45986   5.149   8.808  12.564  0.2005 -0.0882  0.1103
29726W        W45987   7.226   0.645  11.443  0.0335 -0.0811 -0.1057
29727W        W45988   8.807  14.924   2.116  0.1730 -0.0545 -0.0328
29728W        W45989  16.114  10.373  16.012 -0.3386  0.0392 -0.0354
29729W        W45990  15.967   0.347  12.037  0.0792  0.1021  0.0046
29730W        W45991   3.147   9.059   3.043 -0.1347  0.0873 -0.0785
29731W        W45992  14.167   8.995   4.213 -0.3190 -0.0070 -0.4105
29732W        W45993   1.460   0.330   1.303  0.0021  0.2729 -0.1463
29733W        W45994  17.822   1.544  14.659  0.0624 -0.0237 -0.0625
29734W        W45995   1.057  14.782  12.476 -0.0829  0.1647  0.3492
29735W        W45996  10.875   6.614   1.092 -0.0968  0.0399  0.1244
29736W        W45997   1.869   8.224  13.998 -0.0718  0.0987 -0.2947
29737W        W45998   1.764  13.705  12.008  0.1844  0.3097  0.0384
29738W        W45999  15.260  17.206  15.865  0.0019  0.0014  0.3596
29739W        W46000  10.943  18.064   1.214  0.0350 -0.0679 -0.3124
29740W        W46001   4.049  11.167   0.003  0.2847  0.1653 -0.0408
29741W        W46002  14.424  15.954  16.262  0.0111 -0.0285 -0.1416
29742W        W46003   6.719  13.332  14.550 -0.0182  0.2422  0.2087
29743W        W46004   0.418   6.898  12.405  0.3469  0.0500  0.2648
29744W        W46005   5.439   9.925  16.253 -0.5362 -0.0009  0.1315
29745W        W46006   5.239  11.848   3.624  0.0914 -0.0755 -0.2739
29746W        W46007   4.962   4.422  15.622  0.0826  0.1335 -0.0049
29747W        W46008  15.135  12.348   4.136 -0.0924 -0.0745 -0.2164
29748W        W46009  12.847  14.774   5.705 -0.1484 -0.2626 -0.1494
29749W        W46010  16.532   5.186  12.234 -0.0347  0.1636  0.0578
29750W        W46011  16.460  14.870   0.351  0.1319  0.2402  0.2410
29751W        W46012  17.569  17.739  11.182 -0.0413 -0.2438  0.1202
29752W        W46013   9.400  12.061  15.104 -0.4313  0.0231 -0.1148
29753W        W46014  13.899   9.474  13.173 -0.0811 -0.1028  0.0150
29754W        W46015   7.213   8.226  11.105 -0.1686  0.0294 -0.0077
29755W        W46016   0.466   7.420  14.918 -0.3263 -0.2509 -0.1913
29756W        W46017   6.356  13.727   2.798 -0.0261 -0.2197 -0.1414
29757W        W46018   7.153  13.564  12.455 -0.0683  0.1463  0.0347
29758W        W46019   0.229  12.414  14.164  0.1661 -0.1661 -0.1653
29759W        W46020  17.178   1.028  15.983 -0.0742  0.2870  0.0916
29760W        W46021  13.168  13.183  15.807 -0.2173 -0.0397 -0.1574
29761W        W46022   9.775   3.018  11.733 -0.0073  0.0343  0.0233
29762W        W46023   0.356  11.088  12.170  0.1264 -0.1047  0.0308
29763W        W46024  11.481  13.767   4.820  0.0045  0.2085  0.3946
29764W        W46025   1.624  17.049   0.158  0.1232 -0.2299 -0.1878
29765W        W46026   6.429   6.841  15.723 -0.0543 -0.0188 -0.0634
29766W        W46027  17.805   3.250  11.423 -0.0198  0.0056 -0.0099
29767W        W46028  17.079   1.667   0.497  0.1152  0.0130 -0.2277
29768W        W46029  16.137  17.976   5.889  0.3039 -0.0641  0.1310
29769W        W46030   4.699   8.396  13.776  0.1839  0.0413 -0.2268
29770W        W46031  11.245   5.072  11.512  0.1465  0.0394  0.0234
29771W        W46032   1.600   1.715   2.959 -0.1031  0.0585  0.2987
29772W        W46033   3.989   0.946   2.170  0.1102 -0.1284  0.1185
29773W        W46034   3.069  12.340  15.690 -0.2930 -0.1818 -0.1166
29774W        W46035  11.365  13.007  13.068 -0.3847  0.0001  0.0336
29775W        W46036   5.081   6.102  11.522  0.3468  0.3571 -0.0709
29776W        W46037   3.021  11.205   4.541 -0.2592  0.0506 -0.0612
29777W        W46038  14.993  11.666   3.894  0.2249 -0.1613 -0.0129
29778W        W46039  15.529  15.883   1.396 -0.1331 -0.1783  0.2446
29779W        W46040   9.997  15.041  16.012 -0.2075  0.1860  0.2807
29780W        W46041  14.257   5.307   0.075 -0.0234 -0.0423 -0.0935
29781W        W46042  11.504  10.757  12.880  0.0574  0.0222  0.0010
29782W        W46043   5.804   4.838   3.771  0.0766 -0.2333  0.1045
29783W        W46044   7.319   7.940   1.186 -0.0760 -0.3535  0.0768
29784W        W46045   2.655   3.928  12.230 -0.2087  0.0955  0.2005
29785W        W46046  12.135   0.138  11.455 -0.2157 -0.2434 -0.2072
29786W        W46047   4.088   3.960  16.097  0.0961 -0.0792  0.0096
29787W        W46048  15.986   6.918  14.625  0.2239  0.3078 -0.1080
29788W        W46049   5.465   3.564   1.544 -0.1284  0.2004  0.1327
29789W        W46050   2.230   7.946   0.840  0.0639  0.2858 -0.1620
29790W        W46051  17.390   0.581   3.422 -0.0662 -0.1895  0.1639
29791W        W46052  12.872   8.408  12.249 -0.0843  0.0597  0.0458
29792W        W46053  11.696   9.379   0.824  0.0666  0.0547 -0.2559
29793W        W46054  14.276  14.098  16.171  0.1145  0.0770  0.0444
29794W        W46055  16.107   6.064   1.032 -0.3163  0.0982  0.1659
29795W        W46056   9.153  17.677  14.490 -0.0995  0.0620 -0.0632
29796W        W46057   7.406   9.560  12.659  0.0297 -0.0601  0.0867
29797W        W46058  11.984   7.777  12.542  0.3236  0.0825  0.0873
29798W        W46059   7.975  10.123  12.276 -0.1354  0.1062  0.0592
29799W        W46060  14.944  12.839   3.091  0.1550  0.0808 -0.0911
29800W        W46061   6.114  17.070   5.386 -0.1621  0.0130 -0.2221
29801W        W46062  14.394  13.151  12.911 -0.4610 -0.1784 -0.2381
29802W        W46063  17.253  15.688   4.366 -0.1886  0.3674 -0.3619
29803W        W46064  18.180   5.984  15.950  0.0887  0.1288 -0.0452
29804W        W46065   7.980   8.927  13.000 -0.1197 -0.2797 -0.0719
29805W        W46066   6.982  16.165  15.550  0.0773  0.0602 -0.1753
29806W        W46067   7.987  16.343   0.619  0.0081 -0.1168  0.0854
29807W        W46068   6.221   0.849  15.846 -0.4310 -0.1359 -0.1393
29808W        W46069  12.125  11.076   2.922 -0.1267  0.2365  0.1131
29809W        W46070   2.503   8.454  14.409 -0.4859  0.0368 -0.0007
29810W        W46071   2.753  11.100  16.289 -0.0220  0.2058  0.1772
29811W        W46072   5.983   4.655  12.307 -0.3176 -0.1082 -0.0479
29812W        W46073   4.085   8.201   2.859 -0.0398 -0.0706  0.1103
29813W        W46074   3.943   6.469  11.646  0.0799 -0.0947  0.1273
29814W        W46075  14.107  14.086   3.878 -0.1143 -0.4741 -0.1612
29815W        W46076   7.243   7.555   1.518 -0.1814  0.4030 -0.0481
29816W        W46077  14.062   7.142  15.734 -0.0427  0.2817 -0.1648
29817W        W46078   2.277   2.428  11.680  0.2578 -0.0995 -0.0384
29818W        W46079   7.439  13.474   3.924 -0.1211  0.4493  0.1417
29819W        W46080   0.179   1.028  15.972  0.0010 -0.0537  0.1311
29820W        W46081  11.496   3.184   0.744  0.0229  0.2261  0.1358
29821W        W46082  13.897  15.326   3.211  0.1317 -0.1385 -0.0722
29822W        W46083  17.328  10.541   1.456  0.0833 -0.2750  0.1957
29823W        W46084   1.657  17.865   0.595  0.0622 -0.0805  0.1108
29824W        W46085   7.923   8.067  13.160  0.0908  0.2503  0.0132
29825W        W46086   8.220  12.158   4.803 -0.1249 -0.0223 -0.2856
29826W        W46087  12.450  17.096   0.819  0.2019 -0.0451  0.1693
29827W        W46088  15.675  15.555  13.977  0.0658 -0.1066 -0.0904
29828W        W46089  13.529   3.670  13.493 -0.2144  0.0490  0.5373
29829W        W46090  13.236   0.698  14.854 -0.1051 -0.1552 -0.1927
29830W        W46091   0.413   0.049  15.878 -0.2151  0.2073 -0.3039
29831W        W46092   0.081   9.625   4.116 -0.2007  0.1095 -0.3585
29832W        W46093  16.182   5.068   5.386 -0.2246  0.1711  0.0418
29833W        W46094  10.880  16.810   3.585 -0.1444 -0.0296  0.0103
29834W        W46095  15.526  11.722   3.794 -0.2321 -0.0618 -0.2840
29835W        W46096  15.251  15.985   5.197 -0.1117 -0.2417 -0.1173
29836W        W46097  12.216   8.205   1.703 -0.0219 -0.2178  0.1417
29837W        W46098   0.072   3.370  14.143 -0.2328  0.2572  0.2626
29838W        W46099  10.794   6.850   4.551 -0.0724 -0.2066  0.1625
29839W        W46100   0.246   6.377  12.373 -0.0866  0.0936 -0.0162
29840W        W46101   0.695   5.720  13.783 -0.1802 -0.2246 -0.0340
29841W        W46102   3.237   7.325  15.147 -0.0832  0.0529  0.2254
29842W        W46103  11.353   2.214  11.156 -0.0299  0.1582  0.1815
29843W        W46104  16.014  14.976   0.666 -0.1679  0.0984  0.1487
29844W        W46105  15.445  10.371  11.985 -0.0492  0.1766  0.2468
29845W        W46106   3.236  18.347   5.643  0.3216  0.2042 -0.1778
29846W        W46107  14.652  11.094  10.651 -0.0858  0.2078  0.0391
29847W        W46108   3.750  10.874  12.130 -0.1380 -0.1631  0.0677
29848W        W46109  14.407   2.903  12.132 -0.1244 -0.2049  0.1055
29849W        W46110  11.364   6.040   4.496  0.0100 -0.2884  0.0432
29850W        W46111  13.897  11.998   0.694  0.1592  0.1615 -0.1536
29851W        W46112  11.956  13.635  14.409  0.0009 -0.1281 -0.1921
29852W        W46113   4.902  16.223  15.724 -0.1034  0.0202  0.1754
29853W        W46114   1.317   0.389  14.078 -0.3236 -0.1084 -0.2371
29854W        W46115  17.201   4.463  14.379  0.1621  0.0441 -0.0078
29855W        W46116   1.828   6.949   0.800  0.0671  0.0243  0.3098
29856W        W46117   0.096  10.449   1.768  0.1098 -0.0538  0.0840
29857W        W46118   7.734  15.165   4.041 -0.0221  0.0395 -0.3384
29858W        W46119  13.058  16.049  15.061  0.1858  0.1299 -0.0355
29859W        W46120   4.872  17.824  14.145 -0.1787 -0.0870  0.0623
29860W        W46121   0.656   2.941   2.498 -0.0014 -0.1603 -0.0397
29861W        W46122  13.202  11.386   0.595  0.3123  0.0632 -0.2915
29862W        W46123   4.507   1.781  15.995  0.0016  0.0950  0.2229
29863W        W46124   8.475   3.141  15.297 -0.2450  0.2995  0.2891
29864W        W46125   9.388  14.811  15.285  0.1846 -0.1809 -0.2100
29865W        W46126  12.558   8.861  11.380  0.2728  0.2055 -0.4337
29866W        W46127  15.298   9.394  15.908  0.1133 -0.5148 -0.0411
29867W        W46128  11.501  12.378  14.808  0.3438 -0.2479  0.2208
29868W        W46129   8.825  12.180  13.613  0.1236  0.0939  0.0010
29869W        W46130   6.238   9.410   3.603  0.0381 -0.0304 -0.2874
29870W        W46131   3.279  17.636   0.586  0.2394 -0.0842 -0.1747
29871W        W46132   5.488  10.748   0.198 -0.2162 -0.0900 -0.0795
29872W        W46133   8.359  10.056   0.421  0.3974 -0.2757  0.0857
29873W        W46134   0.256  11.307  11.468  0.2152  0.1488  0.0448
29874W        W46135   4.554   1.591  13.864  0.1343  0.0443  0.2291
29875W        W46136  17.718   1.855   3.091 -0.2307  0.0950  0.1169
29876W        W46137  11.515   6.212   1.758 -0.1953 -0.2172 -0.0657
29877W        W46138  13.803   6.534   1.562  0.0246 -0.3568  0.3999
29878W        W46139  11.222  16.571   2.697 -0.1816  0.2090  0.0566
29879W        W46140   3.746   5.997  13.674  0.2675 -0.0361  0.0819
29880W        W46141  13.332   7.453  14.793 -0.1427  0.2206 -0.0163
29881W        W46142   5.717  15.844  11.171 -0.3256 -0.0166  0.0162
29882W        W46143   7.914  15.219   2.067  0.2607  0.2737 -0.2990
29883W        W46144   0.291  10.691  14.028  0.0914  0.0652 -0.1098
29884W        W46145  14.026  18.187   4.756 -0.0523  0.0852  0.2944
29885W        W46146   0.480  15.297  15.611  0.0722  0.1454 -0.2862
29886W        W46147   8.883   8.445   3.280  0.2049 -0.3385  0.1340
29887W        W46148  17.396   6.409  15.457  0.0365  0.2641  0.0419
29888W        W46149   7.155   5.527   1.476 -0.0939 -0.5737  0.1868
29889W        W46150   6.592   8.939  13.766 -0.0623 -0.0016  0.0866
29890W        W46151  13.089  13.990   4.116 -0.0803  0.0151 -0.1470
29891W        W46152   3.218   6.417   3.527 -0.1760  0.0861  0.0089
29892W        W46153  10.975   3.901   5.255 -0.0379  0.2172  0.1263
29893W        W46154   8.976  12.071  12.659  0.0630 -0.0577  0.0545
29894W        W46155   3.804  11.110   3.461 -0.0431 -0.2163 -0.1093
29895W        W46156   6.985   1.538  16.254 -0.2565  0.2257  0.4457
29896W        W46157  13.793   8.901   0.734 -0.0756 -0.2394  0.0107
29897W        W46158  15.960   3.324   0.723  0.0828  0.0921  0.0267
29898W        W46159   8.756  18.169  11.319 -0.0352 -0.1943 -0.3570
29899W        W46160  11.945  12.760  13.168 -0.2698 -0.1170 -0.0453
29900W        W46161   7.217  11.183  11.914  0.3473  0.2053  0.0114
29901W        W46162   7.455  16.178   0.029 -0.0374 -0.0366 -0.1054
29902W        W46163   7.764   6.143  10.777 -0.0134 -0.2783  0.1422
29903W        W46164  12.112   5.193   0.354  0.0768  0.1940 -0.0821
29904W        W46165  17.873  15.650  15.183 -0.0716  0.0075  0.1083
29905W        W46166   0.535  16.440   3.318  0.1348  0.1285 -0.0841
29906W        W46167  14.755   0.212   4.605 -0.2546  0.0019 -0.0846
29907W        W46168  11.294  14.616  10.823  0.0060  0.0545  0.2665
29908W        W46169  14.094   7.979  11.196 -0.2190  0.1802 -0.1079
29909W        W46170  18.303  12.341   3.870 -0.0318  0.5477  0.0195
29910W        W46171   4.803  12.855   0.174 -0.0910  0.0112 -0.1506
29911W        W46172  17.275  12.880  12.146  0.0675  0.3603  0.1254
29912W        W46173  12.960   9.072  15.164  0.0284 -0.2015 -0.0495
29913W        W46174  10.150   8.693  13.025  0.0524 -0.1578 -0.4358
29914W        W46175  12.313  12.921   3.081  0.1557  0.1983 -0.0893
29915W        W46176  14.574   2.562  13.018 -0.0567 -0.4255 -0.0818
29916W        W46177  12.699  13.667  10.881  0.0083  0.3575 -0.1402
29917W        W46178  12.269  13.861  16.215  0.2470  0.0049 -0.1366
29918W        W46179  10.959   8.990   3.861 -0.0336 -0.5372 -0.5619
29919W        W46180   9.388   7.263   4.450  0.0184  0.0187 -0.3552
29920W        W46181  10.539   7.088  15.062  0.3206 -0.2999  0.1783
29921W        W46182   0.421   8.455   1.383 -0.0068  0.2583 -0.0471
29922W        W46183   5.427   3.609  14.039  0.0316  0.1447 -0.3587
29923W        W46184  10.383  14.265   2.518  0.0530 -0.2146  0.0969
29924W        W46185   4.525   2.199   4.717 -0.2160  0.0868  0.0136
29925W        W46186   5.129   7.623   5.019 -0.1531 -0.0476  0.1478
29926W        W46187   1.228   6.547  10.851  0.1187 -0.0177  0.1089
29927W        W46188  10.090  10.484  16.222 -0.1675  0.2359  0.2240
29928W        W46189   8.158   0.414   2.394  0.2967 -0.3218 -0.0042
29929W        W46190   5.767  13.779  13.527  0.1221  0.1364 -0.2452
29930W        W46191   9.414   4.246  14.816 -0.1945 -0.0435 -0.1978
29931W        W46192   5.215   8.479   0.194  0.3030 -0.1299 -0.1286
29932W        W46193   9.353  15.961  12.129 -0.0693  0.4036 -0.1750
29933W        W46194   7.653   9.024  15.279 -0.0790  0.0144  0.0123
29934W        W46195  18.150  17.075  14.708  0.1156  0.0261  0.2478
29935W        W46196  11.160  15.792   3.585  0.2216  0.2880  0.2834
29936W        W46197  14.811   3.464   1.722  0.0456  0.1153 -0.0608
29937W        W46198  12.653   2.471  14.972 -0.1240 -0.3696  0.0150
29938W        W46199   9.848  16.315  15.589  0.1335 -0.0427  0.2785
29939W        W46200  11.823  10.475  10.536  0.3245  0.0528  0.0634
29940W        W46201  11.954   3.728   3.659 -0.0397 -0.0861  0.0082
29941W        W46202  14.835   0.545   5.098 -0.1338  0.2380  0.0044
29942W        W46203   3.097  12.314   0.416 -0.0004  0.1939 -0.0291
29943W        W46204   0.961  10.424   5.914  0.2210 -0.3982  0.1537
29944W        W46205   6.467   9.160   0.371 -0.0244 -0.0971  0.5402
29945W        W46206   7.802  15.302   0.713 -0.2164 -0.5490 -0.0158
29946W        W46207   3.285  14.526  11.577 -0.0758  0.0969  0.0440
29947W        W46208  14.892   6.039   0.079  0.0236  0.0415 -0.1848
29948W        W46209  10.717  16.927   1.927  0.0040  0.4325 -0.1043
29949W        W46210   0.983  12.460   3.930  0.0190 -0.0879  0.1424
29950W        W46211   9.951   2.705  14.134 -0.1024  0.0259  0.0546
29951W        W46212  14.976  11.293  12.627  0.1088  0.1181 -0.2252
29952W        W46213   6.429  11.171  11.262  0.0811  0.0011  0.1463
29953W        W46214   4.033  15.924   3.294  0.0926 -0.4913 -0.4973
29954W        W46215  13.200   2.995   2.864  0.1024  0.3224  0.3288
29955W        W46216  10.115   3.041  12.215  0.0925  0.0244 -0.2468
29956W        W46217   7.725   3.072   3.504 -0.0280  0.0263 -0.2861
29957W        W46218   2.429   7.053   1.491  0.2045 -0.1667 -0.0382
29958W        W46219   9.060  16.420  14.541 -0.2975  0.0993 -0.0301
29959W        W46220   9.248  17.647  12.010  0.1958  0.1533  0.0840
29960W        W46221   0.498  17.212   4.690 -0.0960 -0.1133 -0.2372
29961W        W46222  10.064   8.747   4.484  0.4456  0.0676 -0.0366
29962W        W46223   3.186   5.908   4.762  0.0152 -0.0374 -0.1388
29963W        W46224   1.105   9.928   3.541 -0.0240  0.0722 -0.0423
29964W        W46225   4.777   5.258   2.720  0.2088  0.1777 -0.0597
29965W        W46226   1.033   0.095   4.251 -0.0891  0.2736 -0.0004
29966W        W46227   8.632  12.293   0.559  0.1904  0.3298  0.0097
29967W        W46228  10.061   7.315  12.597 -0.1239  0.1620 -0.2044
29968W        W46229  11.612  17.962  13.737  0.1127 -0.0561 -0.0683
29969W        W46230   9.560  10.236   5.037  0.1809  0.2332  0.0479
29970W        W46231  11.734  16.938  12.248 -0.0015  0.1231 -0.0518
29971W        W46232  11.027   0.098  12.542  0.0861 -0.1043 -0.1186
29972W        W46233   3.703   4.648  12.298 -0.0994  0.3116 -0.1234
29973W        W46234   1.330   8.355   4.239 -0.0061 -0.1272 -0.2571
29974W        W46235   2.035   6.658  12.949  0.0764 -0.0469 -0.0926
29975W        W46236  16.053   7.487  14.422  0.0860 -0.5079  0.1553
29976W        W46237  17.591   0.068  12.663  0.2128  0.1508  0.4124
29977W        W46238   8.400   1.165  11.585 -0.0370 -0.0672 -0.0336
29978W        W46239  15.025  17.437   5.332  0.0327 -0.0784 -0.3211
29979W        W46240  12.279   5.948   4.560 -0.4149 -0.1754  0.0550
29980W        W46241  15.927  12.972  14.611  0.2311  0.0221  0.1175
29981W        W46242   1.164   7.937   1.820 -0.1231 -0.0974  0.0692
29982W        W46243   3.715  10.985   0.324  0.1413 -0.2132 -0.1012
29983W        W46244   7.792  13.073   1.152  0.2929  0.0633 -0.0809
29984W        W46245  15.607   5.863  13.959  0.2732  0.0571 -0.1074
29985W        W46246  15.780  10.841   5.248  0.0715  0.0713  0.0564
29986W        W46247   3.331  12.636   1.197  0.1009 -0.3120 -0.0173
29987W        W46248   2.555   4.237   4.755 -0.2007  0.2029 -0.0392
29988W        W46249   1.451   9.994  14.965  0.1783 -0.2299 -0.0932
29989W        W46250   6.350  15.447  16.269 -0.3830  0.0789 -0.2035
29990W        W46251  14.298   3.960  11.382 -0.1623  0.1339  0.0142
29991W        W46252  15.941   1.765  12.374 -0.2637 -0.1168  0.3106
29992W        W46253  12.173  13.927   3.281 -0.1728 -0.2122  0.3362
29993W        W46254   5.689  12.859   0.719 -0.0690 -0.3437  0.0820
29994W        W46255   2.493  13.272   4.153 -0.0652  0.0693  0.4043
29995W        W46256   2.000   9.567   3.921 -0.1855  0.0150  0.0855
29996W        W46257   2.028   3.408  16.034 -0.2971 -0.0580 -0.0212
29997W        W46258   4.141  11.208  15.297 -0.1176 -0.0549  0.0408
29998W        W46259  16.325  12.874   3.970  0.3657  0.0670 -0.2558
29999W        W46260  15.303   7.395  15.030 -0.0827 -0.2691 -0.0759
30000W        W46261  12.281  16.125  12.021  0.1809  0.1264  0.0726
30001W        W46262   5.587   3.358  12.181  0.0243 -0.0762  0.0096
30002W        W46263  12.957  13.588  13.548  0.0474 -0.2466  0.1665
30003W        W46264   0.622  11.002   2.303  0.1296 -0.0688  0.2327
30004W        W46265  15.973  17.903   2.426 -0.0604 -0.0867  0.2542
30005W        W46266   6.311  10.394  12.004 -0.0209 -0.0882 -0.5648
30006W        W46267   6.671  10.069   3.182  0.2476  0.1068 -0.2395
30007W        W46268  13.592   6.960  12.840  0.0357  0.0595  0.2238
30008W        W46269   5.999   1.289   2.202 -0.0392 -0.2397 -0.0733
30009W        W46270  14.493  11.766   4.305  0.0104 -0.2421  0.1700
30010W        W46271   1.663  12.630   1.200 -0.0863 -0.0307  0.1693
30011W        W46272  10.944  10.867  13.005  0.1163  0.0041 -0.2128
30012W        W46273  17.695   4.974  15.056 -0.2009  0.0700 -0.2114
30013W        W46274   4.104  10.182  16.091  0.1023 -0.2306 -0.1370
30014W        W46275  15.957   6.994   5.112 -0.2866  0.2848 -0.2853
30015W        W46276  11.669   2.208  11.682  0.2393 -0.1518 -0.0990
30016W        W46277   5.838   0.750  15.616 -0.1780 -0.3221 -0.0201
30017W        W46278  14.881   1.157  14.587  0.0430  0.1165 -0.2384
30018W        W46279  12.392   9.946  14.105  0.3110  0.0237 -0.0901
30019W        W46280  14.722   5.819   1.208 -0.2234 -0.2077 -0.2357
30020W        W46281  15.817  14.273  13.278  0.0747 -0.0133  0.1529
30021W        W46282   0.127  18.276   4.251 -0.3374 -0.2571 -0.2525
30022W        W46283   3.350  12.993  12.475 -0.2388  0.1872  0.2172
30023W        W46284  16.777  10.372   2.587 -0.0013 -0.0573  0.0913
30024W        W46285   5.285  17.677  12.252  0.1645  0.2954 -0.2102
30025W        W46286  16.094   9.243   3.889 -0.2051 -0.1180  0.0319
30026W        W46287   8.624  14.707   0.267  0.0254 -0.2105 -0.0025
30027W        W46288  16.933   8.267   4.759  0.3247  0.0897  0.1752
30028W        W46289  10.076   2.982   2.323  0.1138 -0.0857 -0.1225
30029W        W46290   2.528  10.870   4.467 -0.2494  0.1302 -0.2667
30030W        W46291  11.701   2.940   1.791 -0.0309  0.0229 -0.1547
30031W        W46292  10.296   7.783   3.391  0.0089  0.1443  0.0231
30032W        W46293   1.145   0.057   2.216  0.3656  0.2343 -0.0101
30033W        W46294   9.724  17.435   4.242  0.0649 -0.4029  0.0515
30034W        W46295  16.742   7.257  12.395  0.2462 -0.2194 -0.1387
30035W        W46296   5.891   5.012   0.287 -0.0349  0.0252 -0.2508
30036W        W46297   4.476  13.773  13.645 -0.0177  0.0657 -0.0540
30037W        W46298  10.804   2.762   4.529  0.2259 -0.0438  0.1098
30038W        W46299  10.862   4.328   1.527  0.1179  0.1391  0.0503
30039W        W46300  17.190  15.608  15.422  0.0197  0.2652 -0.0855
30040W        W46301  12.709  17.564  12.954  0.1319  0.1176 -0.2247
30041W        W46302  16.460   1.012  10.596  0.1014  0.1541  0.0996
30042W        W46303  17.613   6.922   5.541 -0.2073  0.1493 -0.0685
30043W        W46304   2.675  18.298   0.518 -0.1426  0.3133 -0.1454
30044W        W46305   4.087  11.470   4.848 -0.0506 -0.1159 -0.0409
30045W        W46306   8.000  14.587  14.284 -0.0844 -0.1715  0.0302
30046W        W46307  16.454  15.483   1.121  0.0933  0.1028 -0.0933
30047W        W46308   3.860  14.929  11.884 -0.0892 -0.1155 -0.2097
30048W        W46309   4.590   6.113  16.083 -0.1380  0.3076  0.0791
30049W        W46310  16.215   7.279   1.770 -0.0238 -0.0656 -0.1202
30050W        W46311  15.231   0.589   5.858 -0.2341  0.0465  0.2031
30051W        W46312   1.664  11.552  12.870 -0.0053  0.2120  0.0302
30052W        W46313   2.761   1.635   0.366  0.0261 -0.1188 -0.2083
30053W        W46314  16.423  11.034  15.964  0.1634  0.0136  0.1537
30054W        W46315  10.153   2.989  15.839 -0.0722 -0.1024 -0.1439
30055W        W46316   7.138   6.553   4.327 -0.2780  0.0726  0.0868
30056W        W46317   2.500   5.467   2.499 -0.0734  0.1998 -0.2338
30057W        W46318   7.262   0.532  15.424  0.0564  0.0431  0.1064
30058W        W46319   8.050  13.044  12.774  0.1174 -0.1156  0.2531
30059W        W46320   8.297  10.993   1.977  0.1563 -0.0516 -0.1901
30060W        W46321   4.245  12.211  13.931  0.1650  0.1500 -0.1355
30061W        W46322  12.044   5.470  16.088  0.1493 -0.0641 -0.0864
30062W        W46323  11.988  14.328   3.485 -0.1437 -0.1560  0.0265
30063W        W46324   1.691  17.368  14.800  0.0725  0.3390  0.0864
30064W        W46325  12.602  17.317   3.309  0.2749  0.1628 -0.3395
30065W        W46326  18.186   4.764  16.243  0.1226  0.1559 -0.0908
30066W        W46327   8.745   3.156   2.392 -0.1493  0.0476  0.2229
30067W        W46328  16.449   8.447   1.395  0.1684 -0.0818  0.0173
30068W        W46329  12.439  15.417  13.181 -0.0365 -0.2044 -0.0570
30069W        W46330   6.876   8.554   0.136 -0.0017  0.3584 -0.0773
30070W        W46331   7.353   0.951  13.270  0.1681  0.1586 -0.1277
30071W        W46332   5.690  18.015   3.570 -0.4553 -0.0785  0.3601
30072W        W46333   5.035  17.445  13.060  0.0769  0.3931 -0.2063
30073W        W46334   9.841  14.869  12.432  0.0866 -0.1760  0.1400
30074W        W46335   7.187   1.194  15.489  0.0446  0.2139  0.1368
30075W        W46336  11.594   9.425  10.955  0.1828  0.1280  0.1059
30076W        W46337  10.128  13.559  11.810  0.1043 -0.3468 -0.0490
30077W        W46338   4.737  10.855   4.511  0.2890 -0.2672 -0.1961
30078W        W46339  11.060  12.313   1.483  0.0064 -0.0781  0.1249
30079W        W46340  12.131   0.160  13.884  0.0974  0.0019  0.0491
30080W        W46341  17.642  11.217   3.938  0.0423 -0.0092 -0.2353
30081W        W46342   9.235   4.038  10.727  0.0596 -0.0438  0.1069
30082W        W46343   0.561   4.044   3.453 -0.1269 -0.0403 -0.1168
30083W        W46344   9.345  13.567  15.676  0.1933 -0.0173 -0.1628
30084W        W46345   3.893  16.762  13.630 -0.0198  0.3066 -0.1801
30085W        W46346   4.134  16.203   0.547 -0.0015 -0.0069 -0.2529
30086W        W46347  13.908  14.733  15.285  0.1713 -0.2129  0.2781
30087W        W46348  15.343  11.041  13.292  0.0074  0.0610  0.3711
30088W        W46349  11.120   3.593  15.998  0.1282  0.1428 -0.2187
30089W        W46350  16.789  13.218   1.686  0.0868  0.0022 -0.1450
30090W        W46351   7.582   5.155  13.749 -0.2853  0.1635 -0.2797
30091W        W46352   5.255   6.355  12.823  0.0403 -0.5234 -0.1270
30092W        W46353   0.869   2.488  13.800 -0.0054  0.0906 -0.2806
30093W        W46354  16.968   8.170   0.010 -0.4191  0.0367  0.0808
30094W        W46355  13.968   0.246  15.318  0.0830  0.3353 -0.0240
30095W        W46356  17.376   6.568  12.272  0.2273 -0.0063  0.1358
30096W        W46357  15.455  13.386   3.760 -0.3280  0.3547 -0.0989
30097W        W46358  15.503   5.735   2.541  0.0789  0.0121  0.0126
30098W        W46359  13.411  11.135   0.033  0.0650  0.1721  0.1656
30099W        W46360  12.483  17.779   3.096 -0.0298 -0.1647 -0.1489
30100W        W46361  11.997  18.260  14.315 -0.0571  0.2923 -0.2409
30101W        W46362   6.918   7.915  15.365  0.1755  0.1750 -0.1669
30102W        W46363   3.371  15.501   5.322 -0.1735 -0.1416  0.1299
30103W        W46364   7.177   0.135   5.964 -0.3689  0.0358  0.0789
30104W        W46365   5.559  13.327   4.261  0.2643  0.1060 -0.1824
30105W        W46366  12.872  13.871  13.092 -0.2205 -0.0966  0.0831
30106W        W46367   6.658  18.294  12.646 -0.1454 -0.0172 -0.0285
30107W        W46368  11.059   7.090   1.295 -0.1688  0.1762  0.0366
30108W        W46369  14.083   1.044  15.776 -0.1791  0.0743  0.1385
30109W        W46370   4.444  10.637   1.755  0.0088  0.0607 -0.0641
30110W        W46371  14.676  10.235   1.620  0.0868  0.1796 -0.1537
30111W        W46372  15.013  11.266   3.128  0.0195  0.0742  0.0902
30112W        W46373  17.147  14.696  16.171  0.2145 -0.1855 -0.3093
30113W        W46374  10.490   8.566   4.654 -0.0747  0.2613 -0.3119
30114W        W46375  14.488  12.049  15.639  0.2608  0.0626 -0.5360
30115W        W46376   3.812   9.971  13.097 -0.0633 -0.0951 -0.5383
30116W        W46377  10.148   0.281  12.612 -0.0498  0.1842  0.0695
30117W        W46378   3.711   3.108   1.790 -0.0167 -0.4210  0.0241
30118W        W46379  18.315  13.010  14.957 -0.0471  0.0445 -0.2183
30119W        W46380   3.823  12.704  12.938 -0.0186 -0.1778 -0.0324
30120W        W46381   9.572   3.200  12.191  0.0144 -0.1535 -0.1344
30121W        W46382   9.084   7.829  12.798 -0.1912  0.2063  0.0178
30122W        W46383  16.622   4.213   0.268  0.1222  0.3299 -0.0623
30123W        W46384   9.503  15.776   2.844  0.2710 -0.0113 -0.3095
30124W        W46385  12.487  11.726  11.621 -0.0759 -0.0357  0.0790
30125W        W46386  18.097   7.382   3.697  0.1143 -0.1858 -0.2434
30126W        W46387   3.479  16.797   5.590  0.1483 -0.3285 -0.0783
30127W        W46388  14.432  16.769  13.721 -0.0575  0.0825  0.1309
30128W        W46389   1.768   4.460  13.974 -0.1836 -0.0374 -0.2755
30129W        W46390  13.639   6.501  12.231  0.0982 -0.1659 -0.0919
30130W        W46391   9.345  14.642  12.176 -0.2114  0.0517 -0.0862
30131W        W46392   7.154  16.582  14.465  0.0625 -0.0352  0.1635
30132W        W46393   6.872  14.129  15.127 -0.1765 -0.1138  0.3118
30133W        W46394   1.621  11.110   2.722 -0.0070  0.1123 -0.1287
30134W        W46395  12.479  17.825   5.651 -0.2219  0.1677 -0.1957
30135W        W46396   6.261  14.111  12.822  0.3344  0.2161 -0.0980
30136W        W46397  10.468  13.563  14.252  0.4538  0.0574 -0.0352
30137W        W46398   3.520   1.627   2.441  0.0348  0.2700  0.0156
30138W        W46399   2.321  11.772   2.539  0.0117 -0.4040  0.3431
30139W        W46400   3.652  17.419  15.616 -0.1362 -0.0628 -0.0064
30140W        W46401   1.019  10.965  11.020 -0.0057 -0.0786  0.0715
30141W        W46402  11.815   8.042  13.690 -0.0565  0.0460  0.0739
30142W        W46403  13.939   2.105   5.613 -0.2056 -0.2046 -0.1171
30143W        W46404   2.923  15.949  14.467 -0.0986 -0.0143 -0.1339
30144W        W46405   0.037   5.501   0.408  0.1363  0.2157  0.1136
30145W        W46406  12.539   8.152  11.688 -0.1804  0.0234  0.4429
30146W        W46407   5.724  10.968   4.402 -0.0568  0.0406 -0.2279
30147W        W46408  10.908  15.722   1.213  0.2107 -0.1175  0.2082
30148W        W46409  15.053  12.635  14.357  0.0922 -0.0968 -0.1377
30149W        W46410  16.743   4.769   1.465  0.3123  0.0923  0.0390
30150W        W46411   5.987   9.081   2.030 -0.1733  0.1003  0.1812
30151W        W46412  14.505  10.203   4.655 -0.0561 -0.3514 -0.0294
30152W        W46413  15.103  10.762  12.309 -0.0633 -0.0920  0.0730
30153W        W46414  17.324   2.801  16.189 -0.0897 -0.0960  0.0195
30154W        W46415  10.200  12.169  15.161  0.2777 -0.0480 -0.3546
30155W        W46416  16.658  13.829  13.586 -0.2357 -0.1898 -0.2199
30156W        W46417  10.775  16.799  15.731 -0.1456 -0.3085  0.0953
30157W        W46418  10.832   8.550   1.785  0.1390 -0.0234  0.1506
30158W        W46419  18.146  14.935   5.764 -0.1133  0.3591  0.3720
30159W        W46420  15.997   3.203  15.890 -0.0567  0.1751 -0.0511
30160W        W46421   5.677  16.719   1.969 -0.1848 -0.2622 -0.2115
30161W        W46422   5.347   8.693  14.686  0.5297  0.0344 -0.1474
30162W        W46423  18.083   8.316  13.693 -0.0408 -0.0022  0.1661
30163W        W46424   6.417  11.167  13.279 -0.2309  0.0087  0.1857
30164W        W46425   0.857  11.395  15.962  0.0576 -0.3639  0.0458
30165W        W46426   3.439  12.031   3.455  0.0660 -0.3030  0.1844
30166W        W46427   4.708  10.148  15.022  0.4206 -0.1007 -0.0199
30167W        W46428  14.698   6.051  12.688  0.1822  0.2136  0.2263
30168W        W46429  14.917   1.127  14.082 -0.1293  0.1023  0.1408
30169W        W46430   7.056  13.155  14.900  0.0479 -0.1824 -0.0185
30170W        W46431   9.690  11.580  11.517  0.1707  0.0263 -0.2156
30171W        W46432  11.706   0.464  13.126 -0.0797 -0.0030  0.0564
30172W        W46433  12.168   9.772   3.795  0.1612 -0.2036  0.0429
30173W        W46434   4.574  11.125   1.942 -0.0503 -0.2736  0.0583
30174W        W46435   6.792  17.312  12.780  0.0236 -0.3233  0.0307
30175W        W46436  11.156   3.354  13.991  0.3775  0.1118  0.0878
30176W        W46437  10.626  18.035   1.725  0.0375 -0.0034  0.2219
30177W        W46438  14.122   8.792   2.233  0.0610 -0.1018 -0.0146
30178W        W46439   6.089  10.433  13.658  0.3873 -0.1171 -0.0063
30179W        W46440   5.962   9.809   1.303 -0.0172  0.4433 -0.0861
30180W        W46441   2.260  12.472  15.688  0.1459  0.1041 -0.1006
30181W        W46442  16.740  13.531   1.221 -0.1408 -0.0017  0.1376
30182W        W46443   4.607   7.025  13.940  0.2559 -0.0603  0.3018
30183W        W46444   3.031  18.298   1.415  0.1421 -0.2908  0.0916
30184W        W46445   8.868   2.034   2.698 -0.2422  0.0033  0.0620
30185W        W46446   9.468  15.617   2.028  0.0626  0.1182 -0.2532
30186W        W46447  17.782  13.150  13.451  0.0314  0.1075 -0.1608
30187W        W46448   7.094  15.282   5.401 -0.0177  0.2445 -0.0654
30188W        W46449   9.340  11.409  13.392  0.1180 -0.1338  0.0210
30189W        W46450  12.129  15.275  15.146  0.0208 -0.0429  0.0736
30190W        W46451  14.317  10.320   3.502 -0.0670  0.2871 -0.1311
30191W        W46452   9.513   0.039   0.296  0.1424  0.0563  0.4309
30192W        W46453  11.841   0.715   4.104  0.4308  0.0613  0.2713
30193W        W46454   9.183  15.443   0.755  0.0588  0.3236 -0.0585
30194W        W46455  13.426   6.372  15.714 -0.0335 -0.0109 -0.1551
30195W        W46456  13.026  15.782   0.408 -0.2707  0.1061 -0.1371
30196W        W46457   5.078   9.904  15.288  0.4036 -0.1400 -0.1880
30197W        W46458   0.315  17.005  14.452  0.1859  0.0105  0.0621
30198W        W46459  10.105  11.393  12.932 -0.1772  0.0379  0.1001
30199W        W46460   9.416   3.534   2.816  0.0023 -0.0435 -0.1206
30200W        W46461   2.011  12.585  10.768  0.1288  0.1095  0.2351
30201W        W46462  17.652   7.160  15.744  0.1602 -0.0517 -0.0091
30202W        W46463   0.121   5.945  12.041  0.0443 -0.1997  0.3332
30203W        W46464   4.005   5.141  11.673  0.0313  0.2087 -0.3309
30204W        W46465   3.070   9.273   5.289 -0.3938  0.3515  0.0276
30205W        W46466  10.713   7.548  15.830  0.0376 -0.2363 -0.0306
30206W        W46467   5.626   5.860   0.707  0.1359 -0.0879 -0.0898
30207W        W46468  17.573  17.743   1.934 -0.0043 -0.0269 -0.1037
30208W        W46469  12.854   1.464   1.910  0.2271 -0.0449  0.0644
30209W        W46470   2.856  17.148  15.141  0.0527  0.3662  0.2441
30210W        W46471   9.485  14.241  15.157 -0.0596 -0.1773  0.2673
30211W        W46472  17.377   7.384   1.213  0.0389  0.1113 -0.0499
30212W        W46473  10.546  12.427   4.878 -0.1114 -0.1062  0.0213
30213W        W46474   6.544  13.346  12.728  0.0575  0.0651  0.1760
30214W        W46475  15.320   3.537  11.775 -0.0029  0.0787 -0.0793
30215W        W46476  17.688  11.382   5.660 -0.1943 -0.0515 -0.0564
30216W        W46477  11.667  11.694  11.780 -0.1760  0.0365  0.1238
30217W        W46478   4.636   6.707   0.761  0.1266  0.0212  0.0244
30218W        W46479  17.223  12.219   0.734 -0.1911 -0.1691  0.4051
30219W        W46480  12.560   5.998  10.270 -0.2613 -0.1019 -0.4047
30220W        W46481  15.305   7.515  13.068 -0.0820 -0.1419 -0.2394
30221W        W46482   5.086  18.179  12.399  0.0487  0.1195 -0.1277
30222W        W46483   4.824   9.264  16.107  0.2173 -0.2349 -0.1124
30223W        W46484   5.552   4.616   2.017 -0.0560  0.1592  0.1563
30224W        W46485   8.883   6.188   4.542 -0.1468  0.4369  0.0485
30225W        W46486  10.650   6.138   2.813  0.0589 -0.2405 -0.0825
30226W        W46487   3.267   3.961  13.791  0.1194  0.1353  0.2342
30227W        W46488  14.027   2.076  15.392  0.1293 -0.0955  0.0127
30228W        W46489   4.740   6.124  11.109 -0.1232  0.0586  0.5643
30229W        W46490   2.514   2.851  15.515 -0.1851  0.1778 -0.1969
30230W        W46491  12.638   8.855   2.588  0.1099 -0.0061  0.1562
30231W        W46492  12.802  13.989  12.172 -0.2056  0.0333  0.0456
30232W        W46493   9.547  17.799   4.465  0.1290 -0.0819  0.3125
30233W        W46494   4.833   6.494  13.079  0.0334  0.2039  0.3005
30234W        W46495  16.585  17.781   3.650 -0.1013  0.1399  0.1289
30235W        W46496   0.296   2.510  14.316 -0.2020 -0.0217  0.1282
30236W        W46497   6.262   7.911  12.548 -0.0660  0.0334 -0.0546
30237W        W46498   2.515  14.545  15.921 -0.0480  0.1302  0.1692
30238W        W46499  16.869  10.515  14.283 -0.1039 -0.0830 -0.0763
30239W        W46500   4.712  17.073  14.684  0.2519  0.3293  0.0224
30240W        W46501  14.601   0.638  12.001  0.0055 -0.1045 -0.2490
30241W        W46502  13.611   0.212   0.817  0.2691 -0.0936  0.0310
30242W        W46503  11.793  16.854   2.416  0.0451 -0.0928 -0.2376
30243W        W46504   5.709  12.843   4.343  0.0915 -0.0033  0.2351
30244W        W46505  16.689  12.644  10.855  0.0075  0.0362 -0.0315
30245W        W46506  14.163   1.721  11.561  0.3815 -0.2791  0.3481
30246W        W46507   5.301   3.292   2.241 -0.2539 -0.2829  0.0934
30247W        W46508   3.106   6.165   5.156 -0.0328 -0.3196 -0.0472
30248W        W46509  13.173  12.150   1.090  0.1450  0.3867  0.0771
30249W        W46510  16.376   6.064   0.013  0.0190  0.0745 -0.3487
30250W        W46511  12.666  10.347  13.548  0.1006 -0.1965  0.1270
30251W        W46512   4.263  13.267  15.490 -0.2145 -0.2852 -0.1565
30252W        W46513   5.746   9.906   3.249  0.0938  0.1059 -0.0919
30253W        W46514  12.565  10.334   0.743  0.0615 -0.0499  0.0382
30254W        W46515   9.034  12.827  12.010  0.0419 -0.2496  0.2855
30255W        W46516  11.891   0.843  14.530  0.0594  0.0071 -0.2151
30256W        W46517   8.814   9.700   4.765  0.1503  0.0746  0.4201
30257W        W46518   1.864   3.786  11.802 -0.0761 -0.0560 -0.3249
30258W        W46519   2.117   5.457   5.464  0.0287  0.4671  0.4439
30259W        W46520   3.148   6.179  13.818 -0.1243  0.0510  0.2304
30260W        W46521  16.085  10.924   1.488  0.1347  0.0513  0.2038
30261W        W46522   5.033  18.343  15.544  0.4124  0.0974  0.0315
30262W        W46523  15.275   1.865   5.053  0.1766 -0.0118  0.3894
30263W        W46524   6.352   4.993  12.484  0.2263  0.1198 -0.1085
30264W        W46525   9.327  10.263   3.778 -0.4381  0.0524 -0.0607
30265W        W46526  12.441  17.021  14.493  0.2026 -0.2503  0.1156
30266W        W46527  17.265  17.630   0.297 -0.1341  0.2596  0.3153
30267W        W46528  17.180  11.903  15.001 -0.3801  0.0261 -0.0651
30268W        W46529   9.728  14.404   0.259  0.2293 -0.0440 -0.2082
30269W        W46530  12.622   3.233  12.006  0.0432  0.3412 -0.1778
30270W        W46531  13.751  17.929  11.584 -0.0901 -0.1331  0.1107
30271W        W46532  13.062   2.565   5.296 -0.0426  0.0118  0.1368
30272W        W46533  14.759   3.726   2.333 -0.1688  0.1575  0.1096
30273W        W46534   3.800  12.707   1.485 -0.2731 -0.4315 -0.1117
30274W        W46535  18.078  10.852   1.812  0.0468  0.0062  0.0545
30275W        W46536   3.505  10.293  12.078 -0.2959 -0.3053 -0.1624
30276W        W46537  16.435  17.493   1.901  0.1291  0.0522  0.0220
30277W        W46538   6.438   8.839   4.446 -0.1824  0.5783  0.0061
30278W        W46539   8.709  12.443  15.987 -0.0091 -0.2081 -0.0551
30279W        W46540   0.478  14.059   3.003  0.1479  0.0161  0.2370
30280W        W46541  16.102  16.349   1.206  0.3327 -0.3839 -0.2397
30281W        W46542   4.404   5.549  13.614  0.2536  0.1519  0.1742
30282W        W46543  14.370   8.347   1.350  0.1285  0.4801 -0.0656
30283W        W46544   4.477  12.498  15.872 -0.2022 -0.3160  0.1737
30284W        W46545  11.016  14.137  12.041 -0.2761 -0.0638 -0.1629
30285W        W46546  17.393   5.084  11.755 -0.3166  0.0890 -0.2427
30286W        W46547   5.333  14.404  12.625 -0.3031  0.1613 -0.1605
30287W        W46548  13.769  14.497   4.754 -0.2881 -0.2913 -0.0688
30288W        W46549  18.309  11.902  13.117 -0.1367  0.1820 -0.0025
30289W        W46550   0.778   2.403  11.538 -0.1691  0.0470 -0.0706
30290W        W46551  11.085   8.756  15.369 -0.1669  0.1622 -0.2282
30291W        W46552   3.400   4.292  14.930  0.1314 -0.0131 -0.5828
30292W        W46553   8.332   8.024  10.919  0.1613  0.1781  0.4251
30293W        W46554   7.338   4.357   2.930 -0.3176  0.1619 -0.1927
30294W        W46555   7.022  16.438   3.843 -0.3316 -0.4230  0.0726
30295W        W46556   9.921   8.511   1.898  0.0443  0.0174  0.2557
30296W        W46557  12.522  15.684  11.735  0.2750 -0.0384  0.0069
30297W        W46558  14.592   2.049  13.538  0.1760  0.1091 -0.0539
30298W        W46559   6.341   4.789  11.947 -0.2750 -0.0390 -0.0101
30299W        W46560   7.169  14.328   3.713  0.1519 -0.0180 -0.1322
30300W        W46561   9.351   7.562  11.976  0.0445  0.2144 -0.0671
30301W        W46562   0.157   1.519   3.297  0.1890 -0.1580 -0.2251
30302W        W46563  14.184   9.029  13.193 -0.0171 -0.1092 -0.1936
30303W        W46564   4.622  14.048  15.623  0.0347 -0.0628 -0.2519
30304W        W46565   8.825  14.682   3.056 -0.0463 -0.1831 -0.0434
30305W        W46566  17.657  12.665   5.016  0.2110 -0.1500 -0.3641
30306W        W46567  11.995  12.409   5.019 -0.3240  0.0643 -0.2287
30307W        W46568  18.070   8.185  15.116 -0.2362 -0.0103  0.1601
30308W        W46569   8.158   7.640  13.462 -0.0385  0.1270  0.1442
30309W        W46570  15.234   1.440   4.168 -0.2824 -0.1989  0.3056
30310W        W46571  16.656   3.662   5.563 -0.4525  0.2255  0.1485
30311W        W46572  13.285   5.473   0.953  0.1486 -0.0694 -0.2502
30312W        W46573   3.147   0.386   5.317  0.3050 -0.0962  0.0152
30313W        W46574  14.520   5.992  15.453  0.2445 -0.2802 -0.2467
30314W        W46575   8.546  13.725   1.552  0.0198  0.0184  0.0729
30315W        W46576   4.025  12.815   2.381  0.2252  0.1599  0.1730
30316W        W46577   3.195   1.809   6.611  0.1465 -0.1725  0.4501
30317W        W46578   2.667  14.080  11.353  0.2561  0.1154  0.0299
30318W        W46579   9.722  11.656   0.421  0.0053  0.0450 -0.1032
30319W        W46580  15.772   6.333   3.854 -0.0136 -0.2412 -0.0611
30320W        W46581   5.705   0.664  12.139  0.2991 -0.3115  0.2009
30321W        W46582  15.647  18.043  14.151  0.1016 -0.2112 -0.0698
30322W        W46583  10.430   2.300  11.437 -0.0922 -0.0584 -0.0982
30323W        W46584  12.689   5.356   1.211 -0.1491  0.1745  0.0859
30324W        W46585   8.444  14.371   4.389  0.1178 -0.1099  0.0331
30325W        W46586   6.008   7.494   4.711  0.2053 -0.0332  0.0533
30326W        W46587  14.421  16.860   3.283 -0.1101 -0.0179  0.0290
30327W        W46588   9.363  15.852  13.286  0.0843  0.2321 -0.4040
30328W        W46589   0.703  13.823  13.296  0.0960  0.2004 -0.1312
30329W        W46590   8.188   9.788  16.274 -0.1679 -0.0857 -0.0581
30330W        W46591  15.121   7.217  13.432 -0.0592  0.3652  0.1832
30331W        W46592   3.159   3.593   0.053 -0.1195 -0.0713 -0.1039
30332W        W46593  14.267   7.100   2.610 -0.1199  0.5673  0.2094
30333W        W46594   9.655   7.185  13.748 -0.1427  0.0619 -0.0590
30334W        W46595   0.282  14.611  16.280 -0.0549  0.2796 -0.3320
30335W        W46596  10.033   2.173   2.519  0.1416  0.0269  0.0064
30336W        W46597   9.389   2.651  12.101 -0.1521 -0.1486  0.1131
30337W        W46598  10.877   2.068  11.280  0.2015  0.1850  0.0306
30338W        W46599   3.392   8.311  11.855  0.1055  0.1296 -0.0553
30339W        W46600  15.371   3.093  11.140  0.0621 -0.1112 -0.1697
30340W        W46601   3.215   1.308  16.056 -0.0170  0.1493 -0.1625
30341W        W46602   2.064   1.208  12.023  0.0535 -0.1814  0.2233
30342W        W46603   0.123  17.590   4.753  0.0873 -0.0749  0.2556
30343W        W46604   3.842   8.683  12.703 -0.1066 -0.0865  0.3010
30344W        W46605  17.866   8.877  11.874  0.1776  0.0928 -0.1869
30345W        W46606   5.252   6.076  13.992 -0.1416  0.1523 -0.0793
30346W        W46607   0.896  13.552  13.660  0.1549  0.1500 -0.0753
30347W        W46608  12.369  11.551  13.246  0.1653 -0.0302 -0.1394
30348W        W46609   3.707  10.014  11.302  0.0580 -0.2048  0.1347
30349W        W46610   5.852  11.307  12.410  0.1009  0.1856  0.1720
30350W        W46611  10.811   2.460   5.422 -0.1482 -0.2574  0.1388
30351W        W46612  13.068   1.394   4.405  0.1873  0.2322  0.1925
30352W        W46613   3.906  10.100   5.518  0.0395  0.2049 -0.0068
30353W        W46614  16.543   3.686  13.688 -0.1803  0.0851 -0.0298
30354W        W46615   8.518  14.723  12.578 -0.1484  0.2281 -0.2650
30355W        W46616  12.896  17.921  14.538  0.1069  0.0482 -0.4141
30356W        W46617  12.768  12.109   3.884  0.0000  0.2844  0.4111
30357W        W46618   0.427   9.822   3.211  0.1207 -0.0934  0.0218
30358W        W46619  17.214  10.213   0.883  0.2255 -0.3963 -0.1254
30359W        W46620   3.281   1.427   5.724  0.0336 -0.2070 -0.0727
30360W        W46621  14.998  18.219   2.195 -0.1211 -0.2194 -0.1445
30361W        W46622  17.998   3.184  14.026 -0.2266 -0.0114 -0.0829
30362W        W46623  11.331   5.737   5.162 -0.1250 -0.2026  0.2096
30363W        W46624   2.949  12.768  13.336  0.0321  0.2222  0.1120
30364W        W46625   1.830   6.181   3.354  0.4802  0.0867 -0.2185
30365W        W46626   3.785  10.642   3.416  0.3172  0.1176  0.1963
30366W        W46627  16.727  11.705   4.817  0.3026 -0.4634  0.1777
30367W        W46628  14.544   0.560  14.399  0.2063 -0.0818  0.1862
30368W        W46629  15.150   4.893  12.076  0.0482  0.1124  0.2050
30369W        W46630  10.960   0.080  15.283  0.0174  0.3787 -0.0155
30370W        W46631  17.366   5.763  13.043  0.0909  0.1638 -0.0158
30371W        W46632   8.387   0.960   4.917  0.2042  0.1105  0.2510
30372W        W46633  10.293   4.003   4.236  0.0240  0.2500 -0.3115
30373W        W46634  10.361   1.851  11.054 -0.1219 -0.2570 -0.0266
30374W        W46635  13.361  14.329   5.445  0.4838 -0.1348 -0.0060
30375W        W46636   0.730  17.984  16.040 -0.2933 -0.3211  0.2765
30376W        W46637   0.671  12.168  13.288  0.1043  0.3741  0.3343
30377W        W46638   6.549   6.813  11.915  0.1009 -0.1851  0.2765
30378W        W46639   2.803  15.411  15.455  0.1381 -0.0669 -0.0903
30379W        W46640  16.088  14.558   5.658  0.1221  0.0110 -0.1765
30380W        W46641  10.497   6.043   3.267 -0.2581 -0.0016  0.2511
30381W        W46642  14.641   4.419   3.270 -0.2229 -0.2138  0.2053
30382W        W46643  13.771   4.098  13.009  0.2398  0.0244  0.0157
30383W        W46644   8.580   0.196  15.412 -0.0361 -0.0042 -0.1955
30384W        W46645   2.105  12.694  13.621  0.0134  0.0579 -0.1363
30385W        W46646   0.296  11.497  16.153 -0.1894 -0.1064 -0.0533
30386W        W46647  10.900   7.736  14.464  0.2029  0.0512 -0.1848
30387W        W46648  16.452   7.631  15.181  0.0540 -0.3262 -0.0763
30388W        W46649   6.950   7.231   0.261 -0.1058  0.1336  0.0397
30389W        W46650  16.407  16.369  13.780 -0.4327 -0.1298 -0.1049
30390W        W46651  13.739   8.779  14.781 -0.1427 -0.0307 -0.0081
30391W        W46652   0.377  10.285  15.758 -0.0889 -0.1945  0.0254
30392W        W46653  14.219  16.375  13.537 -0.1313 -0.0004 -0.0152
30393W        W46654  11.346   7.749   6.260  0.4519 -0.2072 -0.3772
30394W        W46655   4.274  12.282   2.872  0.1772 -0.0996 -0.1400
30395W        W46656   6.084   2.302   3.074 -0.0390  0.2473 -0.0223
30396W        W46657   3.095   4.367  10.423 -0.1164 -0.0236 -0.0751
30397W        W46658  10.234  10.730   1.090  0.0267  0.1802  0.1107
30398W        W46659  11.972   3.243   0.120  0.0181  0.2107 -0.0877
30399W        W46660  16.317  10.803  12.957 -0.3019  0.1333 -0.0087
30400W        W46661   4.704  12.650  14.554  0.0858  0.3016  0.1184
30401W        W46662  13.285   4.215  12.853  0.0075  0.3409  0.0823
30402W        W46663  14.419  13.568  12.471 -0.1727 -0.3304 -0.0694
30403W        W46664   6.992   6.893  15.585 -0.1407 -0.1086  0.0939
30404W        W46665   1.242  15.037  12.027 -0.0737  0.0638  0.2295
30405W        W46666   5.221  11.551   0.878 -0.0157 -0.0941  0.1680
30406W        W46667  15.478   4.203  14.532  0.0418  0.2999 -0.1038
30407W        W46668  11.476   0.221   5.432  0.2328 -0.3065 -0.0205
30408W        W46669   3.158  17.270  12.973  0.1091  0.2108  0.1663
30409W        W46670   3.777   5.527  12.479  0.2000  0.3630  0.1124
30410W        W46671   4.219   8.411  14.585 -0.0379 -0.0647  0.0762
30411W        W46672   1.965  13.480  14.537  0.0042  0.2104 -0.0605
30412W        W46673   1.723  14.141  13.497 -0.4816  0.0640 -0.0454
30413W        W46674  15.699   9.542  15.665 -0.0661 -0.0323  0.1280
30414W        W46675  15.962   2.614   6.166  0.0874  0.4425  0.6016
30415W        W46676   4.052   2.649   5.844  0.1873 -0.0750 -0.0852
30416W        W46677  17.565   8.168  16.172  0.0102  0.1361 -0.0560
30417W        W46678  15.863  16.178  12.823 -0.0091 -0.2715 -0.0586
30418W        W46679  11.055   4.234   2.777  0.3372  0.1737  0.0176
30419W        W46680   7.153   0.736   3.549  0.0696  0.3038  0.2198
30420W        W46681   1.126  10.651  15.373 -0.1005 -0.3257  0.0115
30421W        W46682   4.517  14.372   4.557  0.0230  0.0888  0.3550
30422W        W46683   7.952  12.568   5.850  0.0947  0.2012 -0.0247
30423W        W46684   0.804   0.682   2.505  0.0363  0.1357  0.0182
30424W        W46685   2.169  12.328   0.547 -0.2479  0.2911  0.4428
30425W        W46686  11.321  11.555   2.755  0.0544  0.2671 -0.0082
30426W        W46687  17.271   7.456  12.257  0.0733 -0.4363 -0.0463
30427W        W46688  15.562  12.663   3.306 -0.0389 -0.0193 -0.0954
30428W        W46689  14.783  12.522  15.376 -0.0814  0.1107 -0.3558
30429W        W46690   2.082  17.126  12.758 -0.0535  0.0652  0.1469
30430W        W46691   1.304   1.555   1.586  0.0928 -0.0878  0.5257
30431W        W46692  13.657  13.257   1.677  0.0963 -0.0290 -0.1268
30432W        W46693   6.511   6.538  16.134 -0.1348 -0.2097 -0.0241
30433W        W46694  18.025  15.815   4.717  0.1746 -0.0573 -0.2422
30434W        W46695   7.522  17.653  14.801 -0.2255 -0.1774  0.0679
30435W        W46696   1.364  11.792   0.986  0.1011  0.1544 -0.2409
30436W        W46697  17.301  11.663  14.125  0.1233 -0.0041 -0.2173
30437W        W46698   6.377  15.309  13.322 -0.2359  0.2157 -0.2787
30438W        W46699   2.024  10.608   2.085 -0.0070  0.1382 -0.1371
30439W        W46700   5.604   9.764   2.322 -0.0886 -0.5465  0.2694
30440W        W46701   6.755   2.126   3.541  0.0887  0.0847 -0.2269
30441W        W46702  16.364   5.405   0.317 -0.0773 -0.1130 -0.1569
30442W        W46703   6.265  15.660   1.277 -0.1141  0.2268 -0.0056
30443W        W46704   7.459  17.349  13.266  0.0346 -0.2141 -0.0725
30444W        W46705   7.984   3.216  16.008 -0.1894  0.2344 -0.1496
30445W        W46706   6.618   3.832   0.751  0.0492 -0.2404  0.1130
30446W        W46707   6.653   4.653   0.718  0.1791 -0.0283  0.0652
30447W        W46708   2.277   3.220   1.080 -0.1152  0.1599  0.3424
30448W        W46709   8.665  14.540   1.252  0.1970  0.1132 -0.0796
30449W        W46710   4.055   3.475  12.751  0.0077 -0.0645  0.2088
30450W        W46711   8.258   3.670  14.457 -0.0346 -0.1341 -0.1547
30451W        W46712  16.595  18.312  11.628  0.2032  0.3054  0.1746
30452W        W46713  13.532   9.546   4.359  0.3207 -0.2598  0.0644
30453W        W46714  18.291  14.909   0.111 -0.1695  0.0529 -0.0318
30454W        W46715   7.757  17.866  13.967 -0.2511  0.0098 -0.0591
30455W        W46716  16.648   6.460  13.050 -0.2311 -0.1573  0.2183
30456W        W46717  11.978   8.401  11.738 -0.1071  0.0527 -0.0931
30457W        W46718   5.221  13.465   4.678 -0.4015  0.0555 -0.1577
30458W        W46719  12.695  16.241  10.772  0.1106 -0.1044 -0.3408
30459W        W46720  11.900   2.060   1.948  0.0263  0.0254 -0.0068
30460W        W46721   5.395  11.130   3.290 -0.0136 -0.1620  0.2420
30461W        W46722  14.123   0.343   3.102 -0.1548 -0.0372  0.2437
30462W        W46723  15.183  13.385   2.894 -0.0606  0.3055  0.1007
30463W        W46724  16.036   2.774  15.651  0.1918  0.1114 -0.0091
30464W        W46725  11.645   8.534   1.192 -0.0665  0.1377 -0.0743
30465W        W46726  12.497  14.764  16.004 -0.1229  0.1562 -0.1819
30466W        W46727   3.963   4.097  11.738  0.2091  0.1566  0.3209
30467W        W46728   0.145  11.695   0.637  0.2249  0.2381  0.2191
30468W        W46729   4.828  12.126  13.160  0.2064 -0.1395 -0.0525
30469W        W46730  17.972  11.403   0.050 -0.2007 -0.3319  0.0978
30470W        W46731  14.964   0.306   1.870  0.0396  0.1196  0.5039
30471W        W46732   8.294   6.348  11.738  0.1939 -0.2539 -0.1972
30472W        W46733  17.676  14.582  11.911 -0.0444  0.3914 -0.0276
30473W        W46734   2.237   6.452  11.867  0.1745  0.1260 -0.0553
30474W        W46735  17.358  14.506   1.638 -0.1051 -0.2018 -0.1687
30475W        W46736   1.495   0.565  12.779 -0.2869 -0.4594 -0.0031
30476W        W46737   7.865   7.890   0.769  0.2087 -0.0876 -0.3758
30477W        W46738   4.417   2.239   5.224  0.0889 -0.0704  0.2539
30478W        W46739  11.617  12.114  15.514 -0.1072  0.0498 -0.0158
30479W        W46740  16.508  13.013  13.307  0.3127 -0.0041 -0.0970
30480W        W46741  14.040  15.375  15.500 -0.3226 -0.2473 -0.3517
30481W        W46742   6.241   9.859  11.424 -0.3895 -0.3130 -0.0567
30482W        W46743  14.478   1.055  13.655  0.0259  0.2989 -0.0744
30483W        W46744   9.157   7.139   0.212  0.0445 -0.2364  0.2784
30484W        W46745   5.395   7.967  12.671 -0.0784  0.1311 -0.2060
30485W        W46746   2.491   1.341  14.811  0.2735 -0.1046  0.0380
30486W        W46747   7.370   5.063  14.613 -0.0154  0.2533  0.4715
30487W        W46748   2.318   4.095   5.824  0.1588  0.0264 -0.0526
30488W        W46749  10.484   9.947  13.938  0.0093  0.1737 -0.3040
30489W        W46750  14.770  13.432   0.157  0.0785  0.0443  0.0179
30490W        W46751  10.699   0.042   0.850  0.0333  0.2474 -0.0053
30491W        W46752  14.868   1.344   1.955  0.2708  0.0473 -0.2901
30492W        W46753  11.268   7.503  13.158  0.2486 -0.2709  0.0558
30493W        W46754  12.348   3.713  11.917  0.3089  0.0705 -0.3361
30494W        W46755   3.682   8.632  12.221 -0.2798 -0.4687  0.0090
30495W        W46756  11.671  14.430   2.275  0.2946 -0.0820  0.1872
30496W        W46757  13.662   9.128   2.956  0.2867 -0.0538 -0.2141
30497W        W46758   7.903  17.181   3.969  0.4587  0.0718  0.0258
30498W        W46759  17.688  12.620  11.975  0.2981  0.0490  0.0119
30499W        W46760   8.798   3.377  12.875  0.1623  0.2115 -0.0841
30500W        W46761  17.011   9.510  13.562  0.1596 -0.1247 -0.1608
30501W        W46762   5.779  13.770   3.369 -0.4664  0.0987  0.0859
30502W        W46763   4.026  16.336  13.373  0.1137 -0.1124  0.3148
30503W        W46764   7.415  16.248   4.228 -0.1494 -0.0937  0.1376
30504W        W46765   7.040   3.253  14.037  0.2471  0.4924  0.0277
30505W        W46766   6.235  17.362   4.981  0.2904  0.0097 -0.2378
30506W        W46767   9.091  16.740   1.973 -0.0580 -0.0187 -0.1393
30507W        W46768  11.162  18.203   0.050  0.1746  0.1703 -0.1210
30508W        W46769   5.270   4.920   4.459 -0.1686 -0.2098 -0.1535
30509W        W46770   8.450   6.919  15.725 -0.4463 -0.0452  0.2513
30510W        W46771   4.750  17.542   1.232 -0.1110  0.1887 -0.2150
30511W        W46772  17.198   1.124  14.589 -0.1433  0.0548  0.4765
30512W        W46773   8.688  14.269  12.703 -0.2540  0.2386  0.0927
30513W        W46774   4.992  10.938   0.157 -0.2706 -0.3123 -0.0566
30514W        W46775  15.391  17.912  11.985  0.0475 -0.1064  0.2576
30515W        W46776   3.254   6.356  16.219  0.0849  0.3322 -0.1689
30516W        W46777  17.967  17.136   4.820 -0.2066 -0.1072  0.0201
30517W        W46778  15.132  18.246   4.737  0.1168 -0.1490  0.2245
30518W        W46779   4.621   9.990  11.684 -0.4059 -0.1042 -0.4087
30519W        W46780  14.917  13.575  10.711  0.0266  0.2365  0.0815
30520W        W46781   6.370   4.962  14.387 -0.0377 -0.1244 -0.1322
30521W        W46782   2.870   1.815   1.254 -0.1999  0.0104  0.2028
30522W        W46783   0.705  18.085   3.382  0.1684 -0.4945 -0.0495
30523W        W46784   9.467   8.190  13.578  0.0151 -0.0761  0.0562
30524W        W46785   4.968   4.521   3.416  0.0575  0.2509 -0.0401
30525W        W46786  11.425   6.944  16.129  0.0185  0.0332 -0.0132
30526W        W46787   6.677  11.118  10.792 -0.1107 -0.0121  0.1128
30527W        W46788   2.565  16.146   5.123  0.0808  0.2696 -0.1552
30528W        W46789   8.232  15.601  15.618 -0.0034  0.1089  0.1837
30529W        W46790   9.626  17.327  13.127 -0.0088  0.0275 -0.2775
30530W        W46791  10.170   1.076  16.209  0.1301  0.1084 -0.1402
30531W        W46792   7.815   5.597  14.205 -0.1451 -0.1947  0.0352
30532W        W46793  14.422   8.667  12.231  0.3688 -0.0074 -0.0797
30533W        W46794  15.019   8.954   1.726 -0.0489  0.1435 -0.2368
30534W        W46795  12.699  16.900   3.022 -0.3407  0.0430 -0.1515
30535W        W46796  17.599  15.647  13.721  0.4921  0.0167 -0.0851
30536W        W46797  11.257   2.440   4.659  0.1494 -0.1359  0.2308
30537W        W46798   9.003  18.286   0.135  0.0998 -0.4355 -0.2273
30538W        W46799   9.359   3.682  11.061  0.0469  0.0723 -0.0777
30539W        W46800  16.927   4.698  13.426 -0.1736  0.1297 -0.0682
30540W        W46801  18.370   7.552   2.805 -0.1740  0.0965 -0.1447
30541W        W46802   2.732  10.095  12.406 -0.1034 -0.0466  0.0468
30542W        W46803   9.528   2.157  16.259  0.0249 -0.0180 -0.0915
30543W        W46804  17.236  17.677   2.365  0.0016  0.1887 -0.1170
30544W        W46805  13.521   5.961  14.428  0.1273 -0.0547  0.1387
30545W        W46806  10.376   5.046  13.872  0.1633 -0.0642  0.2159
30546W        W46807   7.806  12.741  12.179  0.2044  0.0113 -0.2498
30547W        W46808  17.814   3.726  13.424 -0.1853  0.0092  0.1308
30548W        W46809   5.086   2.700   3.607  0.0598 -0.1461 -0.3545
30549W        W46810  18.259  14.959  13.514  0.0309 -0.0868 -0.1403
30550W        W46811  14.590  18.273  15.898 -0.3517 -0.1048  0.0886
30551W        W46812   3.207   0.619  15.894 -0.1331 -0.0152  0.1828
30552W        W46813   2.208   9.620   2.993 -0.2163 -0.0198  0.1234
30553W        W46814  10.906   7.930  15.064 -0.0059 -0.1391 -0.0663
30554W        W46815   8.967   0.844   0.523  0.2364  0.0935  0.0796
30555W        W46816   9.145   0.255  11.930 -0.3176  0.1077  0.2841
30556W        W46817   0.015   1.062   5.237  0.1500  0.0757 -0.0569
30557W        W46818  12.617   9.045  14.339 -0.0919 -0.0330 -0.1123
30558W        W46819   5.877   2.190   4.818 -0.2677  0.0366 -0.2244
30559W        W46820  10.257  12.304   2.735  0.1917 -0.0177 -0.1316
30560W        W46821   4.293   7.697   0.752 -0.0327 -0.2128  0.3085
30561W        W46822   0.259   2.212   4.610 -0.1958  0.3675  0.1378
30562W        W46823  11.988  11.625   1.710 -0.2882  0.1770  0.1677
30563W        W46824   2.996   6.471   2.694  0.0928  0.0015  0.1025
30564W        W46825  11.004  16.455   1.907  0.0013 -0.2590 -0.1505
30565W        W46826  10.673   5.192  11.366 -0.1106 -0.3843 -0.1417
30566W        W46827  13.243  12.875  12.405 -0.1767  0.0575 -0.2230
30567W        W46828   6.985   1.453   0.407 -0.0307  0.0856 -0.1000
30568W        W46829   4.907  15.467  13.952  0.0812 -0.0733 -0.1614
30569W        W46830   8.331   0.825   3.801 -0.0491  0.1072  0.0145
30570W        W46831   8.707   6.663  14.565 -0.0828  0.0081 -0.0770
30571W        W46832  15.175  11.120  14.443 -0.1905 -0.2398  0.0869
30572W        W46833  17.838   9.169   5.199  0.1697  0.1543  0.1499
30573W        W46834   0.426   0.163  12.738 -0.3496  0.1670  0.0102
30574W        W46835   6.362  17.078   3.740  0.1803 -0.2652  0.1601
30575W        W46836   3.889  16.809   4.948 -0.1013  0.0137  0.0900
30576W        W46837   0.527  14.719   2.399  0.1290  0.3991  0.0523
30577W        W46838   6.516  11.394   3.865 -0.2340 -0.0867 -0.0309
30578W        W46839   7.757   2.721   1.465  0.2219 -0.1359  0.2281
30579W        W46840   2.515  10.429  14.157  0.0537 -0.0187  0.0225
30580W        W46841   3.859  16.935   0.850 -0.1568  0.1306 -0.0179
30581W        W46842   3.258   2.958   3.611 -0.0352 -0.1085  0.1595
30582W        W46843  17.932  14.820   2.139 -0.4901 -0.1378 -0.2638
30583W        W46844   8.355  18.333  10.293  0.1065  0.3186 -0.0461
30584W        W46845  10.139  13.025  11.517 -0.0969  0.2448 -0.2983
30585W        W46846   4.509  10.401   4.470  0.0330  0.4102  0.0156
30586W        W46847   4.699   3.681  12.557 -0.0294 -0.2042  0.4209
30587W        W46848   9.114   9.876   2.882 -0.0745 -0.2138  0.1616
30588W        W46849  11.679   1.280  14.483  0.2032 -0.0534 -0.3663
30589W        W46850  14.363  12.280   2.461 -0.0479 -0.0111  0.0969
30590W        W46851   2.344   2.502  16.212 -0.2264 -0.2234 -0.3665
30591W        W46852   8.578  12.643  14.182  0.3076  0.0455  0.2221
30592W        W46853  12.604   2.596  16.132  0.2827 -0.0079  0.0297
30593W        W46854   6.144   5.059  11.563 -0.2253  0.1516 -0.1110
30594W        W46855   1.001   5.601  15.748 -0.1961 -0.0621  0.1044
30595W        W46856  10.442  16.250   4.972  0.1578 -0.0608  0.0435
30596W        W46857  10.224  10.234  15.262  0.1136 -0.0762  0.1595
30597W        W46858   7.465   8.777  15.633  0.1572  0.0376  0.2715
30598W        W46859   1.132  13.559  13.225  0.1167 -0.1570  0.3713
30599W        W46860  11.760   5.856   1.008 -0.0074  0.1880 -0.0502
30600W        W46861   9.111   0.048   2.008  0.2948  0.3200  0.0521
30601W        W46862   9.723  14.916   2.879  0.2262 -0.1685  0.1483
30602W        W46863   9.042   3.959   1.068 -0.4529  0.2612 -0.2121
30603W        W46864   9.705   4.054  12.182 -0.1463 -0.0834  0.0818
30604W        W46865  13.225   1.203   4.839  0.0193  0.2553 -0.0891
30605W        W46866  12.830  14.234   2.443  0.1634 -0.3347 -0.2313
30606W        W46867  16.921   8.579  14.578  0.3403 -0.0719  0.0030
30607W        W46868   1.797  18.032  14.981  0.0713  0.2621 -0.1306
30608W        W46869  12.861  16.555   6.273  0.1102  0.4385 -0.1266
30609W        W46870  12.989   1.593  14.244 -0.0068  0.2280 -0.0970
30610W        W46871  14.968  13.966  14.124 -0.1957 -0.0063  0.1799
30611W        W46872   1.778  17.340  11.879 -0.4853 -0.1655  0.4286
30612W        W46873   9.784  13.450   0.803  0.3299 -0.2936  0.2167
30613W        W46874  13.920   3.369   3.633 -0.0956 -0.0601  0.0380
30614W        W46875   8.612  15.837   1.834  0.1342 -0.0901 -0.0960
30615W        W46876   4.688   0.452   2.815  0.1181  0.1305 -0.0857
30616W        W46877   8.071  18.366   1.514  0.0984 -0.2172  0.1670
30617W        W46878   3.170   4.608   1.409 -0.3296 -0.1585  0.1807
30618W        W46879   7.590  14.505  11.371  0.1767 -0.2589  0.0960
30619W        W46880   4.677   4.252   3.969 -0.2738 -0.1838 -0.1062
30620W        W46881  16.775  13.495  13.206 -0.1406  0.0353 -0.2089
30621W        W46882   9.245   9.573  12.767 -0.1189  0.0525  0.1026
30622W        W46883   5.853  15.314   5.837  0.0007  0.2459  0.3095
30623W        W46884  14.553  16.902  15.559  0.2503 -0.0613  0.1128
30624W        W46885   5.634   0.682  13.502  0.1834  0.2632 -0.0252
30625W        W46886   2.378   4.519   0.466 -0.3358  0.2076 -0.0885
30626W        W46887   9.541   2.663   0.123 -0.1644 -0.1903 -0.3684
30627W        W46888   8.671   7.988   0.047 -0.2549  0.2904 -0.4019
30628W        W46889   9.571  11.727  13.833 -0.3011  0.2601  0.0206
30629W        W46890  15.358  16.805   2.382  0.1407 -0.2993  0.2354
30630W        W46891   2.894  18.007   3.659 -0.1717 -0.1744  0.3878
30631W        W46892  15.992  17.106   5.798 -0.0137  0.1926 -0.2144
30632W        W46893  11.535  17.820  13.207 -0.1631  0.3483 -0.0268
30633W        W46894  14.295  12.089  12.353  0.1763 -0.2943 -0.1370
30634W        W46895   4.249  18.381   3.463  0.1395 -0.2698 -0.0081
30635W        W46896  12.647   5.004  14.077  0.0920 -0.4590  0.2027
30636W        W46897   5.767  10.434  15.222  0.0544 -0.0619 -0.0118
30637W        W46898  11.753  14.407  11.554 -0.2272  0.0843 -0.1859
30638W        W46899  11.280  10.415   5.258  0.2656  0.1501 -0.0150
30639W        W46900  14.965  16.754  15.825 -0.1930 -0.0967  0.0767
30640W        W46901   7.464   6.005   1.150 -0.1476 -0.4334 -0.4247
30641W        W46902  13.759   8.382   2.816 -0.0182  0.0393 -0.1241
30642W        W46903   6.157   7.800   4.382  0.1555  0.0689 -0.0999
30643W        W46904   8.528   3.080   0.829 -0.0376  0.0343  0.0378
30644W        W46905   7.964  14.703  11.598  0.0707  0.3771  0.0317
30645W        W46906  16.216  18.294  11.980 -0.0516  0.0756  0.0124
30646W        W46907   4.902   3.090  14.854  0.1188 -0.3237 -0.0525
30647W        W46908   5.347   7.201   1.626  0.0425  0.1936  0.1465
30648W        W46909   9.692  12.344   4.342  0.1269 -0.1797  0.1621
30649W        W46910   1.932   1.199   0.560 -0.0947  0.0369 -0.3182
30650W        W46911  11.832  18.335   0.215  0.3971 -0.0404 -0.0997
30651W        W46912  18.023   5.660   5.153 -0.1181 -0.1337  0.0399
30652W        W46913  14.023   8.449   0.989 -0.0660 -0.1567  0.0161
30653W        W46914   4.527   7.159   0.599  0.2762 -0.1771 -0.3153
30654W        W46915   2.026  13.699   0.448 -0.2386 -0.2110 -0.0383
30655W        W46916  13.433  13.365   0.655 -0.0607 -0.0046 -0.2586
30656W        W46917   5.006   3.147  13.137 -0.0660 -0.0479  0.1458
30657W        W46918  12.262  13.004  12.050 -0.2601  0.2011  0.0314
30658W        W46919  10.414   2.506   1.371 -0.2574  0.0680  0.1523
30659W        W46920   0.276  15.137  14.374 -0.0001  0.1621 -0.0318
30660W        W46921   9.849  10.346   0.306  0.2202  0.3233  0.2439
30661W        W46922   1.287   0.737  14.533 -0.3699 -0.1012  0.2859
30662W        W46923   4.502  13.444   0.544  0.1857 -0.0174 -0.5363
30663W        W46924   2.539  17.869   0.750 -0.3376  0.1128 -0.0638
30664W        W46925   0.036   1.140  14.182 -0.3996  0.1207 -0.0900
30665W        W46926  12.137  14.469  14.386 -0.3786 -0.2694 -0.0309
30666W        W46927   5.967   1.232  14.983  0.0966  0.2055 -0.1033
30667W        W46928  10.196  17.647  16.226  0.1780  0.0182  0.0136
30668W        W46929   8.621   2.082   0.051 -0.4923  0.1862 -0.3112
30669W        W46930  13.403  13.489   5.911 -0.1213  0.1020 -0.3154
30670W        W46931   1.578  15.424  13.432  0.0307  0.0096 -0.1811
30671W        W46932   1.770   9.994  10.840 -0.1256 -0.0812 -0.1735
30672W        W46933   5.586   6.507  12.318 -0.1017 -0.1135 -0.0642
30673W        W46934  15.373   6.248  12.059 -0.1715  0.4699 -0.1771
30674W        W46935   0.017  17.219  12.954  0.3046  0.1417 -0.0850
30675W        W46936  10.391   9.774   2.325 -0.0421  0.2453  0.0372
30676W        W46937  16.006   5.782   0.094 -0.0669 -0.0542 -0.1099
30677W        W46938  16.502   5.957  14.498  0.0549  0.2716 -0.0544
30678W        W46939  15.373  16.364  13.327  0.0008  0.2045  0.0979
30679W        W46940   1.105   9.544  12.488  0.0907  0.0074 -0.0106
30680W        W46941   5.529  14.954   0.215  0.1464 -0.2465 -0.0402
30681W        W46942   2.762  17.886  12.968 -0.4886 -0.0143 -0.1086
30682W        W46943  11.078   0.581   0.373  0.2272 -0.2676  0.0748
30683W        W46944  13.053  13.756  11.256 -0.1018 -0.0122 -0.1496
30684W        W46945   2.498   4.426  13.235  0.0552  0.2240 -0.0678
30685W        W46946  16.041   8.250  11.642 -0.1441 -0.0224  0.1477
30686W        W46947   2.958  11.659   4.658 -0.1061  0.0293  0.1033
30687W        W46948   4.915   8.237   2.315 -0.0707  0.0426  0.0881
30688W        W46949   2.553  14.933  11.844  0.0627  0.1662  0.2065
30689W        W46950   0.669   3.742   5.076 -0.1248  0.0320  0.1062
30690W        W46951  17.812  18.020  15.703  0.1282 -0.1034 -0.0053
30691W        W46952  15.175  12.892  13.350  0.1996 -0.3021 -0.0333
30692W        W46953  10.954   4.881  14.676 -0.1226  0.1746  0.2571
30693W        W46954  11.144   5.006   4.341  0.0841 -0.1325 -0.1758
30694W        W46955  14.740   0.272   3.679  0.0019  0.3966 -0.0211
30695W        W46956   8.621  14.157   3.388  0.1671 -0.2674 -0.1462
30696W        W46957  18.031   9.145  12.715 -0.3682 -0.1997  0.1949
30697W        W46958   9.478  15.037  16.142  0.0530  0.1822 -0.1139
30698W        W46959   6.998  10.213   0.540 -0.1374 -0.0371 -0.1095
30699W        W46960  18.227   4.746   1.933 -0.1400  0.0217 -0.0332
30700W        W46961  11.710   1.206   4.810  0.0322  0.0807  0.1561
30701W        W46962  10.301   0.637  15.931  0.0130  0.1883  0.1240
30702W        W46963  13.765  13.904  12.943 -0.0350  0.1558  0.3470
30703W        W46964   9.443  10.234  12.118  0.1539  0.2210  0.2264
30704W        W46965   3.191   6.156  14.353 -0.2843 -0.1173  0.0802
30705W        W46966  13.412   2.945  16.107  0.1094  0.1641 -0.1294
30706W        W46967  14.032   1.878   0.033  0.2270  0.3118 -0.1749
30707W        W46968  17.609   6.949   1.506  0.2076 -0.1960  0.2626
30708W        W46969   0.686  11.481  12.952  0.2417  0.2730 -0.1498
30709W        W46970  10.793  10.232   4.453 -0.2487 -0.0081  0.1848
30710W        W46971  12.432  17.424  11.673 -0.1906 -0.0604 -0.1729
30711W        W46972  10.912   1.769  14.891  0.0160  0.1510  0.0224
30712W        W46973  10.999  14.829  11.667  0.0077 -0.2735  0.0323
30713W        W46974   7.738  11.343  12.097  0.2906 -0.1375  0.3725
30714W        W46975   8.966   2.927   5.725  0.0402 -0.2358 -0.2600
30715W        W46976   3.134  10.848  14.661 -0.2495  0.2016  0.0442
30716W        W46977   9.263   9.399   4.234  0.0182 -0.0225  0.2302
30717W        W46978  13.072   3.861  13.229  0.3023  0.0903 -0.0102
30718W        W46979   2.928  18.281   2.763  0.1913  0.4431 -0.2395
30719W        W46980   3.029   4.071  15.279 -0.4273  0.3680  0.1337
30720W        W46981  14.394  16.154  11.509  0.0290  0.0401 -0.0222
30721W        W46982  13.388   4.959  15.635 -0.1098  0.1685 -0.0947
30722W        W46983   6.302   8.545  13.948 -0.0605 -0.0096  0.2742
30723W        W46984  15.860   7.622   1.608  0.4456  0.0934 -0.1843
30724W        W46985  12.394   4.090   1.599  0.0818 -0.1066  0.1500
30725W        W46986   0.001   0.308   1.950 -0.1697  0.2336  0.3608
30726W        W46987   0.881   1.287   1.707  0.1776 -0.3030  0.3697
30727W        W46988  16.506  10.864   1.741 -0.1767  0.4146  0.2342
30728W        W46989   3.620   8.886   2.388  0.0958  0.2597  0.2589
30729W        W46990   1.196   8.947  12.835  0.0020 -0.0239 -0.0955
30730W        W46991  15.701   6.878   3.975  0.0355 -0.1804  0.0481
30731W        W46992  10.436  11.804  12.771  0.2114  0.0262  0.1909
30732W        W46993  17.372   8.587  12.524 -0.0340 -0.0648 -0.1228
30733W        W46994  14.407   7.900   2.760 -0.4787  0.1239 -0.3263
30734W        W46995   9.714   4.011  16.191 -0.0346 -0.1573 -0.0762
30735W        W46996   9.857   8.426  14.917 -0.2771 -0.2087  0.0254
30736W        W46997  12.839   8.620  11.820 -0.1464  0.0573  0.0938
30737W        W46998   6.959  17.388   3.027 -0.1903  0.0198  0.4092
30738W        W46999   6.695  18.123  14.016 -0.3169  0.2164 -0.1853
30739W        W47000   1.235   7.010  13.198  0.1000 -0.0660  0.1868
30740W        W47001   3.326  15.629  14.609  0.0554  0.0604 -0.1791
30741W        W47002  10.679   6.915   3.551  0.1820 -0.0517 -0.0038
30742W        W47003   9.225   7.890  14.352  0.0770  0.2107  0.1075
30743W        W47004  13.013   7.333   1.368  0.0272 -0.0575 -0.0965
30744W        W47005   3.477  18.138   6.535  0.2956 -0.0588 -0.0995
30745W        W47006  15.562   5.090  11.885  0.0462  0.1670 -0.1019
30746W        W47007   7.097  16.845  10.391 -0.0470  0.1477 -0.1722
30747W        W47008  10.745  10.114   0.866  0.0975  0.0903 -0.0816
30748W        W47009  16.820   9.586   4.532  0.2085  0.2151  0.3231
30749W        W47010  10.024  18.307   2.499 -0.0351 -0.1366  0.2370
30750W        W47011  15.169  12.862   3.594  0.0091 -0.1965 -0.4104
30751W        W47012   5.725  15.078   1.370  0.1034  0.2675  0.2730
30752W        W47013   0.703   7.910   4.334  0.0239 -0.0764 -0.3157
30753W        W47014   4.784  12.826   4.536 -0.1523 -0.0762 -0.1353
30754W        W47015   7.516   1.988   5.705 -0.1466 -0.1705 -0.0084
30755W        W47016  15.015  14.521  13.048  0.2713  0.1450 -0.3149
30756W        W47017  14.788   4.487  13.814  0.2110  0.0449 -0.0715
30757W        W47018   8.913   5.657  15.417 -0.2642  0.1383 -0.1372
30758W        W47019  18.147  11.356   3.061 -0.2361  0.2179  0.0050
30759W        W47020   1.390   3.024   0.947 -0.1635 -0.1095 -0.0396
30760W        W47021   6.383   8.878  16.172 -0.1373  0.0548  0.2476
30761W        W47022   0.414  15.887   3.742 -0.1685  0.0183 -0.0577
30762W        W47023  12.885   9.142   0.603 -0.3246  0.3161  0.1841
30763W        W47024   7.369  11.139   3.723 -0.0037  0.1513 -0.2195
30764W        W47025   7.216  13.399   4.825  0.1633 -0.0267 -0.0449
30765W        W47026   7.296  12.120   0.266 -0.2549  0.1541  0.0271
30766W        W47027  17.769   0.076   2.491 -0.1076  0.6916 -0.0805
30767W        W47028  17.500   9.457  12.796 -0.2060 -0.2870  0.2587
30768W        W47029   4.816   6.367   4.903  0.0426 -0.2372  0.0484
30769W        W47030   8.751   5.710  11.326  0.2419  0.0889 -0.1961
30770W        W47031  14.217  14.302  11.936  0.2118  0.2044  0.1013
30771W        W47032   1.383   5.931   0.140 -0.1745  0.0294  0.0084
30772W        W47033  12.165   0.509   0.394  0.2090  0.3839  0.0746
30773W        W47034   3.007  15.003  12.092  0.1131 -0.0532  0.1053
30774W        W47035   1.890   6.740  16.131 -0.0225 -0.1393  0.4743
30775W        W47036   0.979   6.987   6.225  0.0048  0.1860 -0.1029
30776W        W47037   2.157  16.629   3.881  0.5069  0.2362  0.0958
30777W        W47038  12.691  15.658   2.662 -0.1035 -0.2437  0.0966
30778W        W47039   2.645   4.597  12.768 -0.0144  0.0854  0.2981
30779W        W47040  12.560  10.265  12.352 -0.0812 -0.1026  0.1319
30780W        W47041  12.594  15.088  13.614  0.0123  0.1809  0.2458
30781W        W47042  13.887   3.706   3.196 -0.0106  0.3416  0.1295
30782W        W47043   6.644   4.175  15.732 -0.0720  0.0228  0.2539
30783W        W47044  10.117   1.986  14.635  0.0621 -0.0755 -0.0245
30784W        W47045  16.821  10.152   3.484 -0.0882 -0.2004 -0.1702
30785W        W47046  14.616   4.461   1.056  0.0326  0.0108  0.0173
30786W        W47047  10.675  12.699  15.080  0.0559 -0.0292  0.1884
30787W        W47048   6.492  15.333  13.800 -0.3225  0.0429  0.1627
30788W        W47049   0.315   5.788   3.059 -0.0633  0.1175  0.2568
30789W        W47050   3.767   3.926   4.408 -0.0567 -0.0600  0.0930
30790W        W47051  10.468  18.339  12.421 -0.2092  0.1654 -0.1631
30791W        W47052   0.256  10.666  12.858  0.3601  0.1129 -0.1343
30792W        W47053   1.855  17.285  16.132 -0.1335  0.0674  0.0074
30793W        W47054   2.872   9.565   2.076 -0.1774  0.0197 -0.4160
30794W        W47055   9.089  10.892  14.294  0.0428 -0.0645  0.1364
30795W        W47056   2.647   4.280   6.231 -0.2877 -0.0475 -0.1849
30796W        W47057   8.844  11.836  11.811  0.0532 -0.0782 -0.1966
30797W        W47058  14.513   6.997  15.964  0.2932 -0.3764 -0.0064
30798W        W47059   0.110   2.889  13.493 -0.0064 -0.0953  0.1184
30799W        W47060   1.630   4.884  15.603  0.2038 -0.0391  0.1142
30800W        W47061  10.518  10.292  14.278 -0.1227  0.0370 -0.0882
30801W        W47062   1.111   7.154  14.244  0.0292 -0.4933  0.1845
30802W        W47063  15.290  17.726  13.218  0.0830 -0.1137 -0.0552
30803W        W47064   8.210  16.162   5.804 -0.0881  0.2881 -0.2465
30804W        W47065  14.094   0.331  12.919 -0.0071 -0.1867 -0.0224
30805W        W47066  17.461  10.712   6.282  0.0950  0.0089 -0.2704
30806W        W47067   9.896   9.285   3.576 -0.2039 -0.1820 -0.1114
30807W        W47068  16.703   6.984   4.194 -0.0017 -0.0470 -0.1564
30808W        W47069   3.801   4.597   4.952 -0.3941 -0.3330  0.1706
30809W        W47070  10.992   0.764  12.901 -0.0419 -0.0858 -0.1916
30810W        W47071   3.949  12.501  15.752  0.1591 -0.0963  0.1221
30811W        W47072  11.269   6.096  11.252  0.0054 -0.1457 -0.1356
30812W        W47073  17.079   2.132  14.195  0.1944 -0.2355 -0.1275
30813W        W47074   0.102  15.832  13.313  0.2725 -0.2044 -0.3099
30814W        W47075  14.647   9.055  15.986  0.0069  0.0973 -0.1713
30815W        W47076  10.950  15.777  10.674 -0.2214 -0.0474  0.2120
30816W        W47077  10.411  10.617  11.344 -0.0437 -0.0478  0.3414
30817W        W47078   9.852   4.508  12.485 -0.1298 -0.1169  0.0861
30818W        W47079  12.174   5.189  13.999  0.4268  0.2422  0.2667
30819W        W47080  13.044   9.746  14.423 -0.1260 -0.1117  0.2062
30820W        W47081  15.171   3.840  14.224 -0.1570  0.0608 -0.0604
30821W        W47082  14.194   3.427   4.975 -0.0402  0.0012 -0.0257
30822W        W47083   8.077   0.308  14.403 -0.0666 -0.0279 -0.0212
30823W        W47084  16.277  17.873   0.351 -0.2005 -0.0003  0.0762
30824W        W47085   6.574  17.683   3.774  0.1222  0.0469  0.0331
30825W        W47086   8.238   8.881  10.796  0.0300  0.1897 -0.0100
30826W        W47087   8.911  13.817   5.082  0.1036  0.2061  0.1970
30827W        W47088  15.169  12.107  16.240 -0.1120  0.1749 -0.2524
30828W        W47089   9.711   1.802  12.608 -0.1680 -0.3392  0.1256
30829W        W47090  15.563  12.690  15.463 -0.2571 -0.2523 -0.0400
30830W        W47091   2.217  14.223   1.185 -0.0240 -0.1510  0.2436
30831W        W47092  15.264  15.173   0.257  0.0260  0.3349  0.1797
30832W        W47093   0.093   1.268   4.759 -0.1045 -0.0307 -0.1033
30833W        W47094  16.834   3.570  14.091 -0.3082  0.1558  0.3150
30834W        W47095  16.331  13.803  11.885  0.0490 -0.0673  0.0748
30835W        W47096   8.515   7.610  15.443  0.0961  0.0060 -0.0162
30836W        W47097   6.335  12.090   0.728 -0.1655  0.1141 -0.2541
30837W        W47098  14.560   1.223  15.341 -0.2028  0.0846 -0.0503
30838W        W47099   7.750   8.961  13.544  0.2839 -0.0992 -0.1783
30839W        W47100   5.972   8.779   5.184  0.2146 -0.3213  0.0697
30840W        W47101   7.552  11.831  11.412  0.2712  0.0329 -0.2258
30841W        W47102   9.688   7.559  12.843  0.0599 -0.0995  0.1584
30842W        W47103   9.276  16.385  16.086  0.2930  0.0853 -0.0533
30843W        W47104  17.181   6.786   4.171 -0.0759  0.0673  0.0482
30844W        W47105  12.582  11.734  15.351  0.0937  0.1417  0.0206
30845W        W47106  11.205   8.533   2.163  0.0687 -0.0662 -0.3620
30846W        W47107   5.170  16.963   0.084 -0.2440 -0.2807 -0.0041
30847W        W47108  13.123   2.364  13.366  0.0539  0.2967  0.2693
30848W        W47109   1.308  16.567   3.441 -0.1699 -0.2102 -0.0348
30849W        W47110   3.540  14.738   2.585 -0.1040 -0.0871  0.0884
30850W        W47111  17.441   1.482   0.258 -0.0136 -0.0042  0.1256
30851W        W47112  13.615   9.692   5.311 -0.0472 -0.0008 -0.0067
30852W        W47113  15.724  10.603   4.704  0.1222 -0.0911  0.0858
30853W        W47114   1.520   8.649  14.074 -0.3185 -0.0201 -0.1888
30854W        W47115  13.897  10.520   2.158 -0.0170 -0.0349  0.2026
30855W        W47116  10.901  11.689  12.816 -0.0517  0.2213  0.0984
30856W        W47117   4.693   4.712  15.397  0.2126 -0.1946 -0.0396
30857W        W47118   1.580   0.538  15.409  0.1435 -0.3013  0.1169
30858W        W47119   0.301   8.511  16.091 -0.0699 -0.0460 -0.1195
30859W        W47120  13.789  14.441  16.110  0.1002  0.3030  0.0430
30860W        W47121  10.807   1.970   3.445  0.0006  0.3593 -0.2604
30861W        W47122  18.001   3.817   2.313  0.2178 -0.0521 -0.1715
30862W        W47123  17.287  10.446  11.824 -0.1017  0.3371  0.1154
30863W        W47124   2.730   4.787  12.301  0.2707 -0.1733  0.3145
30864W        W47125  12.697   5.443   0.402  0.0116  0.1077  0.2572
30865W        W47126  15.097   2.437   4.058  0.0372  0.0347 -0.0854
30866W        W47127  11.069   7.607  16.291 -0.1065 -0.1174  0.1560
30867W        W47128   3.074  10.988   2.252  0.2163  0.1273  0.0385
30868W        W47129   5.425  15.172  15.737 -0.0154  0.1615 -0.1209
30869W        W47130   5.032  13.888   0.399  0.1800  0.3586  0.1352
30870W        W47131  10.561  11.152   1.176 -0.0272 -0.1737  0.1376
30871W        W47132   5.946  12.995   2.479  0.3132  0.1782 -0.0684
30872W        W47133  10.808   8.457  15.866 -0.0772  0.1744 -0.1468
30873W        W47134   7.431  13.339   0.897 -0.4759  0.1906 -0.1054
30874W        W47135  10.916  10.529  12.148  0.2843  0.4858  0.1083
30875W        W47136   5.450  17.655   3.914  0.0742  0.0567 -0.2994
30876W        W47137  18.040  14.198  11.633  0.2232  0.3173  0.2728
30877W        W47138   8.965  11.358   3.186 -0.3163 -0.1268  0.0124
30878W        W47139  16.868  13.616   2.594  0.0764 -0.0961 -0.1367
30879W        W47140   4.881  12.758  11.849 -0.2061 -0.0254 -0.0544
30880W        W47141  15.444   3.034  11.637  0.3272  0.0080 -0.1708
30881W        W47142  15.474  10.018  15.991 -0.3014  0.2396  0.1433
30882W        W47143  18.152   9.777   5.528  0.3054  0.1284  0.0623
30883W        W47144   0.675  14.322  16.066  0.0381  0.0461 -0.0079
30884W        W47145   3.818   6.059  15.358 -0.0008  0.1372  0.1290
30885W        W47146   2.265  14.947  13.378  0.0095 -0.4045  0.0824
30886W        W47147  17.382   4.047  14.105  0.2605 -0.0969  0.0354
30887W        W47148   8.864   8.109  15.049 -0.1128 -0.2200 -0.0270
30888W        W47149   9.832  17.621   0.283 -0.0959 -0.0522 -0.1167
30889W        W47150  17.262  14.960   1.088  0.1414 -0.0218  0.1356
30890W        W47151   0.517  17.897   4.743  0.0616 -0.3267  0.1101
30891W        W47152  16.856  14.340   5.487  0.1640 -0.0248 -0.2761
30892W        W47153   1.765  12.255  13.742  0.1776 -0.1236 -0.0430
30893W        W47154  15.839   3.478  11.664  0.0302 -0.0229 -0.1108
30894W        W47155   0.042   6.940  13.370  0.0058  0.1598 -0.1050
30895W        W47156  14.198  17.775   5.029  0.1156 -0.0973  0.0418
30896W        W47157   1.364   5.517  12.273  0.1258  0.2891 -0.1224
30897W        W47158   5.301   2.535   4.388  0.1887  0.1482  0.2256
30898W        W47159  16.235   2.311  15.875  0.0909  0.1124 -0.1314
30899W        W47160   9.215   6.518   0.064 -0.0015 -0.0772 -0.2968
30900W        W47161   5.333   1.837  14.494  0.4513 -0.0777  0.0299
30901W        W47162   4.010  18.144  16.006 -0.1119  0.2666 -0.1046
30902W        W47163  14.420   1.304   6.130  0.1528  0.2953 -0.0775
30903W        W47164   5.188   8.938   0.622  0.2892 -0.2296  0.0243
30904W        W47165   0.183  15.035  11.550 -0.2140 -0.1338 -0.2728
30905W        W47166   9.763  10.359  15.389  0.0410 -0.0103 -0.2558
30906W        W47167  15.400   5.879   5.352 -0.0016  0.2578 -0.0954
30907W        W47168   5.753   9.931  14.849 -0.1509  0.1639 -0.1480
30908W        W47169  12.228  16.766  12.840 -0.0275 -0.0999 -0.0465
30909W        W47170  17.751  17.884   6.207  0.0944  0.1881 -0.1550
30910W        W47171  14.420  12.048  14.306  0.2466  0.2808  0.1080
30911W        W47172   3.592  14.833   1.889 -0.0311 -0.2411 -0.1061
30912W        W47173  11.036   7.981   4.344 -0.1771 -0.0554 -0.0724
30913W        W47174   0.331   3.618  12.786 -0.0382  0.1278  0.3076
30914W        W47175  16.984   5.559   0.823 -0.2114 -0.1438  0.3665
30915W        W47176   6.391   8.343   5.894  0.1305  0.0930  0.2596
30916W        W47177   8.395   3.495   4.571 -0.0303  0.0475  0.3368
30917W        W47178   0.137  10.311   3.334  0.0557 -0.1197  0.1404
30918W        W47179  11.017  14.881   0.719 -0.3007  0.1685  0.1525
30919W        W47180  16.065   2.767  15.052 -0.1227 -0.1425 -0.0727
30920W        W47181  18.367   6.004  11.530  0.1346 -0.1238 -0.0366
30921W        W47182  13.258  16.138   0.067 -0.1101  0.1058 -0.2730
30922W        W47183  16.327   6.466  15.966  0.4988 -0.5011  0.4606
30923W        W47184  10.818  12.276  15.868 -0.0654 -0.1508 -0.0037
30924W        W47185   4.306   7.930  11.377  0.0933 -0.0607  0.3295
30925W        W47186  16.376   2.529  12.872  0.0833  0.0683  0.0572
30926W        W47187  12.817   1.359  12.914  0.1468 -0.0695 -0.1765
30927W        W47188   6.632  17.231  14.126  0.1905  0.1785 -0.1613
30928W        W47189   7.015   0.077   3.833 -0.0630  0.0996  0.1304
30929W        W47190   8.011   6.289  12.503  0.2910  0.1703  0.1976
30930W        W47191   0.588  10.964  13.165  0.1011 -0.0208 -0.2860
30931W        W47192  16.728   4.163   2.386 -0.1016 -0.2354  0.1761
30932W        W47193   1.599  12.363  11.642  0.0106 -0.1960  0.0260
30933W        W47194   2.469  13.095  14.582  0.1002 -0.3965  0.0036
30934W        W47195   4.971  12.866  13.282 -0.0989 -0.1658  0.1949
30935W        W47196   2.641   9.286  11.321  0.0331  0.0155 -0.1206
30936W        W47197   1.479  16.476   2.156 -0.1526 -0.0982 -0.1157
30937W        W47198  16.780  17.002   2.649  0.2873 -0.0475 -0.3478
30938W        W47199   1.550  18.082  11.728  0.3824  0.2600  0.0158
30939W        W47200   7.257  11.170   0.113  0.1857  0.3235 -0.3208
30940W        W47201  16.045   3.767  15.980  0.4427 -0.0902  0.0656
30941W        W47202   2.340   0.909   3.914 -0.0212 -0.0523 -0.1373
30942W        W47203   7.636  14.523   5.738  0.3013 -0.0871 -0.2744
30943W        W47204   9.074   4.234  14.356 -0.0502  0.0903  0.1261
30944W        W47205   7.237  13.845  14.133 -0.1062  0.2203 -0.1500
30945W        W47206  13.790   8.547  15.200 -0.0288  0.1488  0.3067
30946W        W47207   7.184   9.825   3.107 -0.1649 -0.1954  0.2027
30947W        W47208  15.630   3.049  13.527 -0.2555 -0.1399 -0.0125
30948W        W47209  17.636   9.858   4.002 -0.0756  0.1914 -0.0661
30949W        W47210   7.378   1.477   1.718 -0.2263 -0.0509 -0.0632
30950W        W47211   2.949  11.919  15.418  0.0092  0.2315  0.3890
30951W        W47212  15.039   6.251   5.299  0.0423 -0.2508  0.2235
30952W        W47213   2.316   5.944   0.724 -0.2083  0.0106  0.0553
30953W        W47214   0.341  15.796  15.492 -0.2523  0.0670  0.2287
30954W        W47215   3.530   5.793   5.761 -0.3317  0.0291  0.4660
30955W        W47216  12.591  16.386   1.640 -0.1124  0.2191  0.0480
30956W        W47217   3.749   3.083  16.235  0.0803  0.1893  0.2043
30957W        W47218   7.724  11.964   0.464  0.2937 -0.2046 -0.2427
30958W        W47219   9.179  15.049   3.026 -0.1743  0.0060 -0.2175
30959W        W47220   6.635  10.324  15.676  0.0881  0.2265 -0.2755
30960W        W47221  15.243   1.741   0.015 -0.1398 -0.1551 -0.2648
30961W        W47222  11.249   4.478  12.903 -0.0393  0.0511  0.0227
30962W        W47223   5.104  12.030   1.768  0.2177  0.2396  0.0184
30963W        W47224  12.898   8.653  15.427  0.0216 -0.0872 -0.4941
30964W        W47225   4.465   3.739   4.790  0.0245  0.2895 -0.0438
30965W        W47226  13.884  16.614  15.909  0.0175  0.2547 -0.0104
30966W        W47227  12.978  10.806  11.204 -0.0846  0.2057 -0.2052
30967W        W47228   5.888   9.688   2.838 -0.1658  0.1242  0.1485
30968W        W47229  15.240  16.232   3.766  0.1114 -0.1645  0.2992
30969W        W47230  10.543   3.433   1.526 -0.2049 -0.0233 -0.0077
30970W        W47231  13.082   6.914   1.044  0.1366  0.2143 -0.1236
30971W        W47232  11.598  10.948   3.024  0.3049  0.1689 -0.1048
30972W        W47233  13.385   8.826  12.953  0.1542  0.0158 -0.1574
30973W        W47234   5.960  10.629   3.802 -0.2518  0.2358 -0.0055
30974W        W47235  17.686   8.402  13.441 -0.0417  0.0166  0.1647
30975W        W47236   3.553  13.551  14.426  0.2645 -0.3297  0.0523
30976W        W47237   6.050   9.017  12.407 -0.4813 -0.2424 -0.0365
30977W        W47238  17.710  10.662  13.245 -0.3344  0.0423  0.3864
30978W        W47239  16.118  15.351   3.899 -0.2949  0.0517  0.2787
30979W        W47240  10.213   1.769   2.916  0.0517  0.0208  0.2351
30980W        W47241  18.066  14.192  14.682 -0.0084  0.3075 -0.3693
30981W        W47242   8.459   9.658  11.648 -0.1424  0.0438  0.0939
30982W        W47243  10.741   8.372  13.028  0.2225  0.0888  0.0343
30983W        W47244  15.111  10.468  14.084  0.0546 -0.0713 -0.0234
30984W        W47245   5.628  10.836  12.217 -0.0287  0.2152 -0.0537
30985W        W47246  12.115   9.505  14.674  0.2874 -0.1080 -0.0033
30986W        W47247  12.928  12.820   2.837 -0.1906  0.0114 -0.0238
30987W        W47248   7.432   0.578   2.937 -0.2178  0.1612 -0.1627
30988W        W47249   9.817   7.415   4.217  0.3922  0.0055 -0.1466
30989W        W47250  10.829   7.010  10.988 -0.3298  0.0336 -0.1715
30990W        W47251   8.516   9.835   1.932  0.1270 -0.3157  0.3444
30991W        W47252   1.145   6.452   2.144 -0.1004  0.0770 -0.1816
30992W        W47253   1.750   8.040   1.026 -0.1649 -0.1043  0.0518
30993W        W47254  16.681  15.538  15.317 -0.0926  0.0001  0.3840
30994W        W47255   8.315   6.562  12.777  0.1242  0.1100  0.0523
30995W        W47256   0.653   1.850   4.818  0.0148  0.0507 -0.2973
30996W        W47257   8.809   1.014  15.788  0.1142  0.0177  0.0330
30997W        W47258  11.493  17.031  15.663  0.0093  0.0606 -0.0515
30998W        W47259   8.610  10.029  10.182 -0.1611 -0.2707 -0.0905
30999W        W47260  14.306   6.339  13.892 -0.3652 -0.1793 -0.3366
31000W        W47261  11.850  11.922   4.967  0.0113 -0.3852 -0.0279
31001W        W47262   0.703   2.948  14.091  0.4561 -0.0486 -0.3953
31002W        W47263   5.311  11.171  13.684 -0.1125 -0.1132 -0.1408
31003W        W47264  17.924   7.562   5.708  0.0101  0.0276  0.1360
31004W        W47265   2.209  14.831  14.872 -0.1491  0.5521  0.0746
31005W        W47266  14.554   8.931   3.528  0.5416 -0.3226 -0.1207
31006W        W47267   2.863  12.416  13.981  0.1414 -0.0988  0.1856
31007W        W47268  12.299  10.609   1.109  0.1464 -0.1157  0.0604
31008W        W47269   5.706   8.874   0.619  0.3724 -0.2842  0.5750
31009W        W47270   7.254   6.720   4.826 -0.0003  0.3409  0.2066
31010W        W47271  11.322   6.977  13.158 -0.0663  0.2616  0.0002
31011W        W47272  10.002   1.734   1.113 -0.0715  0.1814 -0.0282
31012W        W47273  18.097  15.012   2.614  0.0051 -0.0882 -0.0561
31013W        W47274  11.085   9.702   9.886 -0.0435  0.0149  0.1064
31014W        W47275  13.292  17.638  12.154  0.2609  0.1230 -0.1513
31015W        W47276   4.928  14.904  11.337 -0.2169 -0.0795 -0.2135
31016W        W47277   6.977   1.967   0.267  0.1901 -0.2667 -0.2577
31017W        W47278  12.588  15.465  15.428 -0.0965  0.2052 -0.1997
31018W        W47279  11.613  16.817   2.905 -0.0018 -0.2930  0.1703
31019W        W47280   8.456  15.355   1.912 -0.0864  0.1874 -0.1931
31020W        W47281   8.433  12.668  10.239  0.3425  0.1027  0.1550
31021W        W47282  13.970  18.202   5.263  0.1622 -0.1038  0.1186
31022W        W47283  14.712   1.494  15.738  0.3422 -0.0662  0.2162
31023W        W47284   8.423   2.273  14.479 -0.3559 -0.0324 -0.1688
31024W        W47285  17.688   7.011  12.388 -0.0467  0.2260  0.0909
31025W        W47286   8.196  14.011  12.869  0.0279  0.0907  0.5676
31026W        W47287  13.899  12.228   1.201  0.1251 -0.2549 -0.2685
31027W        W47288   9.892   3.825   2.773 -0.1067  0.0022  0.3264
31028W        W47289   8.882   4.425   3.120 -0.0239 -0.0014 -0.1241
31029W        W47290  14.116   6.266  15.199  0.0552  0.0863 -0.0992
31030W        W47291   8.961   2.397  12.954  0.2366  0.1023  0.2488
31031W        W47292   6.010   7.135  11.944 -0.3064 -0.0937 -0.0121
31032W        W47293  13.341  12.378   5.623 -0.2826 -0.3788 -0.2663
31033W        W47294   6.697   2.683   5.545  0.1572  0.2268  0.1182
31034W        W47295  12.874   8.190  13.482  0.0515 -0.0423  0.0400
31035W        W47296  12.894   2.805  11.730  0.0100 -0.5557 -0.2958
31036W        W47297  17.282   6.593   4.785  0.4066  0.2298  0.2258
31037W        W47298  13.821   2.268  13.923  0.0893 -0.1237  0.0678
31038W        W47299   7.156   0.677   5.509 -0.2254  0.1363  0.0676
31039W        W47300  15.331  15.365  15.666  0.2793  0.1109  0.0544
31040W        W47301   7.588   1.676  11.174 -0.0347 -0.1289  0.1245
31041W        W47302   7.221   6.534  11.246  0.1449  0.2508  0.2566
31042W        W47303  14.426  15.100  13.278  0.2795  0.0362 -0.1138
31043W        W47304   1.177  15.683   5.098 -0.0630 -0.0476  0.0230
31044W        W47305  17.771  14.475  14.383 -0.0030  0.0618  0.1497
31045W        W47306   0.721  17.175  15.553 -0.1635  0.3650  0.0430
31046W        W47307   4.305  17.615  12.149  0.2024  0.0263  0.0659
31047W        W47308   3.137   7.030  10.691  0.0183 -0.0242 -0.1217
31048W        W47309   3.660  11.104  16.014 -0.0383 -0.2643  0.2306
31049W        W47310  10.280   3.946   2.502  0.4026  0.3000  0.1522
31050W        W47311   3.813   5.508   1.679  0.1598  0.2722  0.1669
31051W        W47312   0.379  13.278  15.088 -0.0117  0.1636 -0.1070
31052W        W47313  15.276  15.805  13.459  0.1407  0.0049 -0.1973
31053W        W47314  15.948   3.981  14.304 -0.1974  0.0156  0.2248
31054W        W47315  13.798  10.634  14.991  0.3134  0.1672  0.1388
31055W        W47316   6.898   2.115  15.535 -0.1406 -0.0394 -0.1481
31056W        W47317   3.390  11.145  11.951  0.0756  0.1214 -0.2324
31057W        W47318  17.032   3.791  16.257  0.2707 -0.0440  0.1004
31058W        W47319  11.561   9.042   1.316 -0.1027 -0.4068 -0.0145
31059W        W47320   4.786   4.786  13.510  0.1852  0.0077 -0.0177
31060W        W47321  17.003   0.126  14.761 -0.1868 -0.2866  0.0626
31061W        W47322   7.913   4.026   5.345  0.4774  0.0180 -0.0665
31062W        W47323  10.325   5.070   3.449  0.0864 -0.3320  0.0717
31063W        W47324  18.197   3.746  12.649 -0.1666 -0.2215  0.0690
31064W        W47325   0.147   9.812   3.629  0.2017  0.1618  0.3420
31065W        W47326   8.071   6.416   3.249 -0.0542 -0.0142 -0.1082
31066W        W47327   3.019   5.295  13.405  0.1075  0.1947  0.0645
31067W        W47328   0.805  11.580   5.188  0.2868  0.0895 -0.0519
31068W        W47329  14.688  14.207   2.609  0.0810 -0.0230  0.1287
31069W        W47330  13.184   4.646  11.270 -0.1828  0.0290 -0.3295
31070W        W47331  15.679   5.425   0.291  0.0211 -0.0649  0.1016
31071W        W47332   8.895   4.478   1.626  0.0665 -0.0422 -0.2684
31072W        W47333   4.726   8.313  11.503  0.0142  0.1704  0.1482
31073W        W47334  14.563   8.522   4.574 -0.1928 -0.1002 -0.2011
31074W        W47335   4.128   7.807  13.414 -0.1585 -0.3181  0.0262
31075W        W47336  13.287  16.133  13.273 -0.0623  0.0545 -0.1935
31076W        W47337   9.851  11.211  12.534  0.2046  0.3055  0.0054
31077W        W47338  17.341  17.872  11.645  0.1075 -0.0175 -0.1484
31078W        W47339   0.021   7.465  14.229  0.0817 -0.1353  0.0801
31079W        W47340  13.085   9.794   5.412  0.0723  0.1600 -0.0484
31080W        W47341   3.491   3.983   5.772 -0.1197 -0.2624  0.0219
31081W        W47342   2.506  14.137   0.768 -0.1076 -0.2120  0.2921
31082W        W47343  16.332  15.182  15.125  0.1589 -0.1145  0.0052
31083W        W47344   8.163  11.185  14.797 -0.1783 -0.1126 -0.1885
31084W        W47345   7.653   6.780  12.640  0.3250 -0.0240  0.3027
31085W        W47346   4.833   4.453  14.985  0.0528 -0.2306  0.2924
31086W        W47347   4.655   5.148  12.247  0.0704  0.1587 -0.2250
31087W        W47348   8.298   1.700   6.179 -0.0933 -0.2000 -0.1771
31088W        W47349   2.573  10.004   1.436 -0.1429 -0.1712 -0.2340
31089W        W47350  11.001  16.350   3.771  0.0550 -0.1861 -0.0529
31090W        W47351   1.877  10.268  14.807  0.0072 -0.0256  0.1313
31091W        W47352   8.700  18.301   4.203 -0.0312  0.2424  0.1191
31092W        W47353   6.046   9.062  11.153  0.3063  0.1766 -0.1878
31093W        W47354   0.263   3.655   6.309 -0.2039  0.1543  0.0444
31094W        W47355   6.064  10.497  14.752  0.0888  0.0495  0.2212
31095W        W47356  13.823   1.196   4.116  0.1373  0.1491  0.1341
31096W        W47357   0.666  14.446  12.734 -0.0537 -0.1098 -0.1744
31097W        W47358  11.473   4.669  12.477  0.1038 -0.0550  0.3323
31098W        W47359  12.262   2.604   2.911 -0.0200  0.0831 -0.2126
31099W        W47360   9.084  14.522   2.081 -0.0351  0.1529 -0.3800
31100W        W47361  15.049   4.390   0.665 -0.1208 -0.3001  0.1856
31101W        W47362  13.430  17.121   2.427  0.0896 -0.1165 -0.2381
31102W        W47363  13.932  12.661  11.398  0.2355 -0.1745 -0.1426
31103W        W47364   3.978  10.172   1.830  0.0683 -0.2327  0.1091
31104W        W47365  11.470  13.428   2.018 -0.1573  0.1413  0.0711
31105W        W47366  16.293  11.666  15.370  0.1543  0.0471 -0.1166
31106W        W47367   8.244  17.310   2.682 -0.0689 -0.1633  0.1743
31107W        W47368  15.026   3.567   0.422 -0.2081 -0.2132 -0.0370
31108W        W47369  15.792  14.371  14.950 -0.1482 -0.2272  0.0663
31109W        W47370  16.405   5.205   4.496 -0.1560  0.0387 -0.1945
31110W        W47371  17.193   8.982  14.787 -0.0507 -0.2527  0.1613
31111W        W47372  10.309   7.940  10.755  0.0798  0.4386 -0.3197
31112W        W47373  11.131   0.581  14.785 -0.3975 -0.5288 -0.0804
31113W        W47374   6.869  14.679  15.259  0.1210 -0.1418 -0.0228
31114W        W47375   5.571  16.076  12.843 -0.0654  0.0733 -0.0364
31115W        W47376   7.436   5.891  16.204  0.0064 -0.2016  0.0245
31116W        W47377   1.243   5.201  15.663 -0.3834 -0.0999 -0.2084
31117W        W47378  11.085  12.399   4.608 -0.2982  0.2992  0.0021
31118W        W47379   4.982   6.910   1.122 -0.1958  0.3120  0.1662
31119W        W47380  13.068  17.815   0.636 -0.0292 -0.2591  0.1059
31120W        W47381   4.224  12.597  11.328 -0.0444 -0.0225 -0.1661
31121W        W47382   5.127   7.090  15.255  0.2055  0.2906  0.2158
31122W        W47383  15.571   1.744  13.162 -0.0208  0.1386 -0.0286
31123W        W47384   3.969   3.551   2.063  0.4656 -0.1606  0.0664
31124W        W47385   1.189  11.308   4.913 -0.1361 -0.0147 -0.0041
31125W        W47386   4.808   5.958  12.803 -0.0144 -0.1131 -0.0072
31126W        W47387   0.176   5.928   6.162 -0.2025  0.2636 -0.0797
31127W        W47388   6.052  12.223   2.206  0.2693 -0.1116  0.1273
31128W        W47389  11.164   9.099  12.567 -0.0004 -0.4050 -0.1323
31129W        W47390   0.647  17.174  11.750 -0.0163 -0.0326 -0.0563
31130W        W47391   3.240   3.916  14.647  0.4258 -0.1437  0.2007
31131W        W47392   8.785  11.330   3.671 -0.1548 -0.3005  0.1439
31132W        W47393   0.212   4.949  11.318  0.2661  0.3574  0.3098
31133W        W47394  16.119  13.741  12.376 -0.2540 -0.1548 -0.0683
31134W        W47395   2.103  17.396   3.144  0.0607  0.0285 -0.3875
31135W        W47396   7.826   0.769   2.694  0.1464  0.1595  0.0073
31136W        W47397   6.235  16.754  15.939  0.2851  0.0336  0.1138
31137W        W47398  15.011   3.345  11.415 -0.1528 -0.2628  0.2481
31138W        W47399  16.767  17.256   5.162  0.0482 -0.0291 -0.2516
31139W        W47400  16.279   6.151  13.672  0.0826  0.1581 -0.0225
31140W        W47401  11.894  10.224  13.162  0.0126  0.0269 -0.0164
31141W        W47402   8.269  11.233  11.174 -0.3765  0.2609  0.1515
31142W        W47403   3.897   7.117   3.871 -0.0084 -0.0059  0.1195
31143W        W47404   0.980   3.622   5.475  0.2434 -0.0239 -0.1063
31144W        W47405   2.852   6.768   0.741  0.2124 -0.3835 -0.0829
31145W        W47406   7.592   1.971   2.876 -0.2273 -0.1711 -0.0723
31146W        W47407   7.015   5.165  11.113 -0.0193  0.2955  0.0376
31147W        W47408   3.876   1.178   1.224 -0.1258  0.2380 -0.0875
31148W        W47409   6.295   6.408  12.837 -0.1104  0.1443 -0.4496
31149W        W47410   8.166  17.489  14.216 -0.0488  0.2254  0.0107
31150W        W47411  12.856   4.609   3.120  0.1299 -0.0502 -0.3513
31151W        W47412  10.512  12.596   3.171 -0.1110  0.2861  0.3571
31152W        W47413  12.816   1.440   3.807 -0.0819 -0.0020  0.1994
31153W        W47414   8.357   9.168   5.949 -0.1650  0.0121 -0.1086
31154W        W47415  16.813  12.300  15.308  0.1118  0.0862  0.2696
31155W        W47416   3.946   2.787   4.108  0.2844  0.1868  0.0221
31156W        W47417   4.342   3.258  12.363 -0.2650 -0.0689  0.0321
31157W        W47418  15.488  13.187  12.964 -0.0509  0.2264  0.2899
31158W        W47419   3.624   2.690   1.174  0.0479  0.0767  0.1770
31159W        W47420   7.761   6.773   4.573  0.1282  0.1229  0.1380
31160W        W47421  12.836   7.392   3.647 -0.0600 -0.0203  0.0000
31161W        W47422   4.543  17.314  16.068  0.2707  0.1804  0.2739
31162W        W47423   9.851   8.054   3.122 -0.3570 -0.2624 -0.0859
31163W        W47424   8.510   7.010  10.133  0.0555 -0.2130 -0.0385
31164W        W47425   4.763   3.467   5.749 -0.1041  0.0635 -0.4134
31165W        W47426   3.007   5.920  12.375  0.2577  0.0296  0.2773
31166W        W47427   8.379  14.395  11.776 -0.0300 -0.1770  0.0968
31167W        W47428   1.314   9.011  11.823  0.1387 -0.1777  0.2738
31168W        W47429   1.056   6.060  15.205 -0.1011 -0.0627 -0.1272
31169W        W47430   3.960   7.760   3.076 -0.1406 -0.0605 -0.1862
31170W        W47431   6.484   7.427   5.335 -0.2992 -0.1114  0.1901
31171W        W47432  15.005  11.869   4.501  0.0231 -0.1633  0.2633
31172W        W47433  13.657   1.404  12.726  0.1815  0.1058  0.0307
31173W        W47434  14.720  14.907   2.791  0.0478  0.0977 -0.1368
31174W        W47435   4.652   7.814   5.026  0.1263  0.1334  0.1791
31175W        W47436  15.728  12.417  15.064 -0.0192 -0.1103  0.1515
31176W        W47437  17.484   8.954   0.276  0.3374  0.0365  0.0332
31177W        W47438  12.280   0.137   0.101 -0.1526  0.1750  0.0983
31178W        W47439  15.211  11.769  12.742 -0.0874 -0.1815  0.1510
31179W        W47440  11.670   1.807  15.480 -0.0891  0.0307 -0.1015
31180W        W47441  16.285   3.178   3.627 -0.0171 -0.1649  0.1014
31181W        W47442  11.611   6.764  13.479 -0.0100 -0.0862  0.1214
31182W        W47443   8.418  17.171   1.318 -0.0801  0.2106 -0.4028
31183W        W47444  16.112   5.554  15.200  0.1043  0.0183 -0.1970
31184W        W47445   8.686   2.620  12.600  0.0200  0.2157  0.0584
31185W        W47446   2.271   9.123  15.686 -0.0212 -0.0118 -0.0638
31186W        W47447   2.295   0.190  15.558 -0.2959 -0.1096  0.1393
31187W        W47448  12.357   7.582   1.903  0.2007 -0.0988 -0.0429
31188W        W47449  17.957   4.251   1.603 -0.0521  0.0647  0.3181
31189W        W47450  14.542  15.819  12.415 -0.1903  0.0524 -0.0259
31190W        W47451   6.964  12.156  11.976 -0.1114 -0.0693  0.2098
31191W        W47452   5.244  13.101  12.377 -0.2271 -0.0195  0.1275
31192W        W47453  17.885   6.882  13.691  0.0718 -0.1037 -0.3552
31193W        W47454   8.258   4.890   0.213  0.1007 -0.0426  0.2155
31194W        W47455   5.184   8.151  13.130  0.0923  0.2244  0.5450
31195W        W47456   2.063  17.940   1.062 -0.1815  0.0093  0.1543
31196W        W47457  13.109  10.306  11.236  0.0605 -0.1156  0.3322
31197W        W47458  14.472  14.926   5.324 -0.1339 -0.0055 -0.1815
31198W        W47459  16.997   6.639   3.701 -0.1146  0.1328 -0.1499
31199W        W47460   9.356   9.270  16.301  0.1345  0.1121  0.0760
31200W        W47461   0.538   5.648   0.293 -0.1281  0.1014  0.0802
31201W        W47462   4.579  10.470   3.250 -0.1362  0.3027 -0.0157
31202W        W47463  16.443  13.380   4.076  0.0781 -0.1117  0.0606
31203W        W47464   1.965   4.694  15.988  0.3455  0.3741  0.0336
31204W        W47465   7.816  18.329  12.274  0.2345  0.2547 -0.1917
31205W        W47466   0.227  12.653   0.919 -0.0685 -0.1727  0.2734
31206W        W47467   1.993  16.586  12.624 -0.1491  0.0995 -0.1057
31207W        W47468  15.991  17.529   2.819 -0.1208 -0.0496  0.0658
31208W        W47469  14.630   9.150  14.089  0.1053 -0.0302  0.0501
31209W        W47470  14.462  17.183   0.770  0.2456  0.0897  0.1151
31210W        W47471   0.144  11.126  13.550 -0.0382 -0.0881 -0.1050
31211W        W47472   3.435   5.903   3.517  0.2961 -0.3970 -0.3880
31212W        W47473  15.659  11.186   4.912 -0.1722 -0.2737  0.2216
31213W        W47474  18.229   8.074   0.595  0.0282  0.0929 -0.0542
31214W        W47475   2.719  11.922   0.504  0.1263 -0.2019 -0.0726
31215W        W47476   2.444   1.985   0.431  0.0748  0.1627  0.1275
31216W        W47477  16.579  12.642   4.972 -0.1400  0.3192 -0.3201
31217W        W47478  16.269  12.065   4.927  0.0489 -0.3279  0.1891
31218W        W47479   1.304  11.679   5.320 -0.1512  0.1191 -0.0294
31219W        W47480  18.207   6.983   4.909  0.0396 -0.0863  0.3016
31220W        W47481   6.347   2.226  15.716  0.4028 -0.0491 -0.0575
31221W        W47482   0.844  16.612  12.550  0.4274 -0.0228 -0.0201
31222W        W47483   5.602  14.500   3.736  0.1317  0.0436 -0.0674
31223W        W47484   9.095   2.817   3.200 -0.0294  0.4543 -0.0085
31224W        W47485  17.479   1.156   4.479  0.1459  0.2163 -0.3272
31225W        W47486   8.280   1.684   0.050 -0.2051  0.1607  0.0184
31226W        W47487  14.584  13.073   3.411 -0.1552  0.2180  0.2685
31227W        W47488   2.403  17.579  11.276  0.0422  0.2698  0.0054
31228W        W47489   3.762   0.770  14.414 -0.4348  0.0504  0.0724
31229W        W47490   4.659  17.678   3.151  0.0892  0.0745  0.4463
31230W        W47491   6.064  18.082  15.338 -0.1638 -0.0398  0.3926
31231W        W47492  15.018  16.089  12.216  0.3590 -0.0826  0.0080
31232W        W47493   0.972  17.054  12.238 -0.1296 -0.1103 -0.1025
31233W        W47494   9.762   7.725  16.200  0.0333 -0.1674 -0.0638
31234W        W47495  14.659  13.865   5.567 -0.4455  0.1447  0.0968
31235W        W47496  14.184   1.706  13.414 -0.0137  0.3116  0.0155
31236W        W47497   6.328  15.069   4.038  0.3038 -0.1945  0.1938
31237W        W47498  13.951  16.812   4.896 -0.2068  0.1113 -0.0072
31238W        W47499  17.638  12.767  12.593 -0.0699  0.2182 -0.2694
31239W        W47500  15.207  16.937  14.162  0.2471  0.0866 -0.3766
31240W        W47501  10.541   7.582   3.007  0.0484  0.0824 -0.0290
31241W        W47502  13.039   4.704   1.626  0.0677  0.0186  0.0453
31242W        W47503   8.884  11.468  10.860 -0.0612  0.2979  0.2081
31243W        W47504   9.732  18.387   5.167  0.0833 -0.0685  0.0643
31244W        W47505   6.236  12.637   4.312  0.1516 -0.1649  0.1634
31245W        W47506   9.964   2.477   3.393  0.2759 -0.2529 -0.2145
31246W        W47507  11.072  17.617  13.476 -0.0084  0.2502  0.0955
31247W        W47508  13.034  16.869   0.488 -0.2568  0.4446 -0.1877
31248W        W47509  16.346   8.347  16.080  0.2950  0.0692 -0.5899
31249W        W47510   8.103  10.300  13.732  0.2284 -0.2108 -0.0445
31250W        W47511  12.004  15.332  14.624  0.2496  0.0244  0.0572
31251W        W47512  10.710   2.905  15.783  0.0679  0.3581 -0.2493
31252W        W47513  18.315  16.308  12.687  0.2493 -0.0830  0.1970
31253W        W47514  13.410   2.689  15.463  0.0119 -0.1303 -0.3805
31254W        W47515   8.377  17.994  16.168 -0.4112  0.2091 -0.1750
31255W        W47516   4.945  13.862   1.976  0.1479 -0.4609 -0.1366
31256W        W47517  17.559   1.728  12.101  0.1243 -0.4263  0.0852
31257W        W47518   3.613   1.773  15.321  0.2089  0.2399  0.2143
31258W        W47519   7.621  16.677   0.883 -0.0069 -0.0962  0.2159
31259W        W47520  10.601  17.956  13.989 -0.1228  0.2312  0.0595
31260W        W47521   8.969   8.688  13.038  0.1063  0.0034 -0.1288
31261W        W47522  10.793   0.533   1.029  0.0796 -0.1510 -0.0745
31262W        W47523   6.588   9.914   1.225 -0.1714  0.1318 -0.0939
31263W        W47524   0.894   1.553   1.253  0.1880 -0.1527  0.1016
31264W        W47525   7.012  15.272   1.619  0.1301 -0.0178  0.1801
31265W        W47526   0.127   8.354  13.915 -0.1424 -0.1040 -0.1544
31266W        W47527   0.558   3.765   2.063  0.3025  0.2484 -0.2339
31267W        W47528  11.545   9.571  15.465  0.0049 -0.3715  0.3138
31268W        W47529   5.413  16.598  16.031  0.1965  0.1191 -0.1720
31269W        W47530  13.371   7.452   1.683  0.1160 -0.1388 -0.0059
31270W        W47531  13.318   0.632   1.570 -0.3096  0.2672  0.1379
31271W        W47532   8.901   8.606  14.860 -0.0485  0.0550  0.0264
31272W        W47533  14.760   8.694  12.591 -0.0996 -0.0114  0.1015
31273W        W47534  15.972   4.921   4.278 -0.0313  0.2580 -0.4431
31274W        W47535   8.939  15.991  12.397 -0.1436 -0.0803 -0.1456
31275W        W47536   7.224  14.051  16.297 -0.0877  0.3559 -0.1657
31276W        W47537  16.477  10.609  13.390  0.2751 -0.3410  0.0324
31277W        W47538   4.460   5.995   0.502  0.2546 -0.1967  0.0167
31278W        W47539   8.555   8.930  12.263  0.0449 -0.1347 -0.1316
31279W        W47540   1.432  10.308  14.455  0.0939  0.1252  0.4334
31280W        W47541   2.924   1.594   2.829  0.0019 -0.1307 -0.2531
31281W        W47542   0.121  16.191   0.476 -0.0215 -0.0241 -0.2766
31282W        W47543   2.255  12.189  12.889  0.0500 -0.2429 -0.1012
31283W        W47544  16.485   7.584   5.950 -0.0174  0.0553 -0.0445
31284W        W47545   3.202   1.267  12.077 -0.4802  0.1928 -0.0122
31285W        W47546   2.780  12.752  15.656  0.0399  0.1161  0.0046
31286W        W47547  10.700   0.372  12.837  0.3288 -0.3960 -0.1896
31287W        W47548  10.423  12.341   2.097 -0.0820 -0.2904  0.2837
31288W        W47549  14.551   7.037   4.586  0.2777 -0.0290  0.0347
31289W        W47550  11.291   7.386  15.879  0.1961  0.0201  0.0929
31290W        W47551   6.857  16.215   0.324  0.0928 -0.1593  0.0922
31291W        W47552   0.774  17.072  13.266  0.2412  0.0215 -0.0779
31292W        W47553   1.984   0.180  12.599  0.0998 -0.2071  0.1016
31293W        W47554   4.099  10.750   6.088 -0.0935 -0.1555 -0.2737
31294W        W47555  16.748   1.078   3.892 -0.0369  0.0145 -0.3045
31295W        W47556  14.694   3.800   6.140  0.0767 -0.2291  0.0141
31296W        W47557   9.642  11.840   4.174  0.0419  0.0708  0.2005
31297W        W47558   5.884  12.660  13.155 -0.2495  0.1484  0.0834
31298W        W47559   1.468   0.147   3.086  0.1953 -0.3092  0.0949
31299W        W47560  14.354   1.335  11.296  0.1852  0.1993  0.0133
31300W        W47561  11.630  11.529  11.307  0.0057  0.1096  0.0976
31301W        W47562  10.758   8.958   2.019  0.1214 -0.0581  0.0498
31302W        W47563  15.175   8.635  15.297  0.0073 -0.1279  0.0378
31303W        W47564   5.997   4.695   4.849 -0.0671 -0.2977  0.2104
31304W        W47565   1.042   5.110  11.349  0.1892  0.0479 -0.0017
31305W        W47566   9.894  12.784   0.791 -0.0298  0.3039  0.0344
31306W        W47567  16.379   5.133  12.711  0.2389  0.0368  0.4126
31307W        W47568  11.697   8.530  13.714 -0.0239  0.0520  0.1011
31308W        W47569  15.733  17.346  13.578  0.2694  0.3662 -0.0416
31309W        W47570   4.315  17.147   6.100 -0.0322  0.2142  0.0903
31310W        W47571  11.587   6.665   2.353 -0.0052  0.0660 -0.2448
31311W        W47572   6.915   2.886  12.203  0.1456 -0.0009  0.2556
31312W        W47573  12.241  13.236   2.643  0.1404  0.1113  0.2184
31313W        W47574  10.393   8.513  13.852 -0.1003 -0.0989 -0.0345
31314W        W47575  12.606   7.316  13.112  0.0456  0.4053 -0.2669
31315W        W47576  17.574   1.027   0.710  0.1669  0.3217  0.1164
31316W        W47577   2.249   9.227   3.528  0.0448 -0.0351  0.1495
31317W        W47578   0.636   0.219  11.394  0.4290  0.0046 -0.0177
31318W        W47579   3.226  13.162   0.189 -0.0850  0.0276  0.0386
31319W        W47580   8.772   6.592  12.743  0.1419 -0.4212  0.3064
31320W        W47581  15.426  17.050   3.222 -0.0875  0.1975  0.0550
31321W        W47582   5.306  14.472  14.398 -0.0493  0.3207 -0.0996
31322W        W47583   5.983   3.754  12.698 -0.2438  0.0744 -0.0612
31323W        W47584  10.322   4.072   1.428  0.4095  0.1354 -0.3794
31324W        W47585   9.257   4.411   1.317 -0.1963 -0.1447 -0.0675
31325W        W47586  17.590  12.715   1.908  0.1432 -0.1713  0.2435
31326W        W47587   3.767  16.737   2.808  0.2123 -0.0881  0.1163
31327W        W47588  16.367  16.202  12.964 -0.0651  0.0835 -0.0179
31328W        W47589   4.524   2.623   0.152 -0.2978 -0.0599 -0.0489
31329W        W47590  14.014   9.274   2.029 -0.2103 -0.2750 -0.2061
31330W        W47591   5.406   3.357  11.636  0.0244  0.1878 -0.0971
31331W        W47592   8.928  12.883   4.654 -0.1407  0.1208 -0.3944
31332W        W47593   2.772   8.241   0.121 -0.3004  0.2376  0.0137
31333W        W47594   7.394  14.446  13.487  0.1123  0.0734  0.0130
31334W        W47595  14.195   5.798   1.207 -0.0714 -0.2265  0.0427
31335W        W47596  15.196   4.662  14.685  0.1068  0.3036 -0.3225
31336W        W47597   1.701   1.299   1.394  0.2531  0.2364 -0.4548
31337W        W47598  16.808   6.531  16.196 -0.0692  0.3449  0.2115
31338W        W47599   1.780   6.092   0.955 -0.0585  0.0782 -0.0930
31339W        W47600  11.859   7.666   0.293  0.0734  0.1486 -0.2897
31340W        W47601  12.749  13.167   2.262 -0.0058 -0.2849  0.3911
31341W        W47602  10.703   5.536   1.933 -0.3740  0.0152 -0.1001
31342W        W47603   9.125   3.165   6.184 -0.2162  0.0540 -0.1446
31343W        W47604  14.688   5.780   2.858 -0.4513  0.0904 -0.2125
31344W        W47605  14.205  13.416   6.275 -0.3644 -0.1480  0.4038
31345W        W47606  15.369  15.742  14.534  0.0258  0.0411  0.2105
31346W        W47607  17.463   2.482  14.931  0.4195  0.1186 -0.2154
31347W        W47608  18.176   0.641   2.220  0.0345 -0.3403 -0.0178
31348W        W47609  11.046   3.432   5.400 -0.1309  0.1865 -0.1832
31349W        W47610  17.817  16.114   1.180  0.3591  0.1437 -0.1284
31350W        W47611  16.210   7.095   4.006  0.0941 -0.0864 -0.2884
31351W        W47612  10.251   7.776   0.155  0.2938  0.0072 -0.3319
31352W        W47613  13.825   5.296  11.989 -0.2128  0.1078  0.1877
31353W        W47614   2.803   2.126  13.056  0.0460 -0.0313 -0.5164
31354W        W47615   7.708  16.260  13.940 -0.0314 -0.1978 -0.0151
31355W        W47616   4.622   1.092  15.363  0.0639 -0.2625  0.0338
31356W        W47617  12.612   1.722   0.014  0.3140  0.3550  0.2981
31357W        W47618  15.342  12.366  11.881  0.2995 -0.2964 -0.2326
31358W        W47619   1.081   8.368  13.548 -0.0889 -0.2062 -0.2191
31359W        W47620  10.479  13.474  11.356 -0.2329 -0.4448 -0.1724
31360W        W47621   3.317   8.229   0.008 -0.2801  0.0140 -0.2236
31361W        W47622  16.788   3.312   3.581  0.2681  0.1199  0.1739
31362W        W47623  14.275   4.585   4.155  0.4118  0.0285 -0.3456
31363W        W47624   8.368   1.791  12.703 -0.0586  0.2255  0.0612
31364W        W47625  16.217  15.490   6.020  0.3081  0.2039 -0.0255
31365W        W47626   1.997  15.601  15.305 -0.0077  0.0514  0.0714
31366W        W47627   1.931   5.617   0.900 -0.1846 -0.1622 -0.0043
31367W        W47628   3.224   5.131  13.857 -0.3211 -0.2014  0.3156
31368W        W47629  10.293  11.836  13.231  0.2880 -0.0559 -0.1526
31369W        W47630  18.375   2.191   2.838  0.0860 -0.3022  0.0173
31370W        W47631  12.225   1.772   3.953  0.1808 -0.4320 -0.1318
31371W        W47632   8.418   7.199  13.556  0.0682 -0.0524 -0.0840
31372W        W47633  11.008   0.072  11.308 -0.1414 -0.4025 -0.1838
31373W        W47634  16.302  15.751  15.662  0.0090 -0.3641  0.3065
31374W        W47635   5.635   7.779   4.596  0.0941  0.0031 -0.0940
31375W        W47636   5.712   8.059  13.048 -0.1145 -0.1320 -0.2773
31376W        W47637   1.210  14.519   0.413 -0.3835 -0.0001  0.1661
31377W        W47638   8.756   0.793   1.498  0.0383  0.0884 -0.2744
31378W        W47639   8.833  10.915  11.219  0.0250 -0.3858 -0.3539
31379W        W47640  10.351   9.768  15.246  0.3032  0.1171 -0.2374
31380W        W47641   8.810   5.398  13.835  0.1331  0.1892  0.2123
31381W        W47642   1.717  17.966  14.517  0.1853 -0.3781  0.1132
31382W        W47643  15.872   8.744   3.528 -0.0483 -0.3885 -0.4050
31383W        W47644  16.535   5.954  13.206  0.0972 -0.1713  0.0444
31384W        W47645   2.280  16.875   2.284 -0.0512  0.1277 -0.1355
31385W        W47646   1.626   3.686   0.734 -0.0015  0.1067  0.0303
31386W        W47647  15.655   7.423  14.124 -0.3875 -0.1451 -0.3060
31387W        W47648  12.738  11.939  16.239 -0.0763  0.0645 -0.1064
31388W        W47649   3.848  13.214   1.455 -0.0718 -0.0953  0.0387
31389W        W47650  12.840  15.298  12.795  0.0674  0.5316  0.3661
31390W        W47651  10.614  10.354  11.715  0.2548 -0.1103  0.0009
31391W        W47652   2.129  14.903   4.165 -0.0689  0.2984  0.0284
31392W        W47653   6.540  16.903  13.213 -0.4823  0.2395  0.1610
31393W        W47654  11.581   6.842  12.641  0.0495  0.1143 -0.1042
31394W        W47655  14.602   2.140   3.325  0.3072 -0.2047 -0.0083
31395W        W47656  11.452  15.813   2.147 -0.0336 -0.2244 -0.2623
31396W        W47657  10.975  15.677  13.135 -0.2338 -0.1856 -0.1549
31397W        W47658   3.375  15.501  15.439  0.0766  0.0929  0.0133
31398W        W47659   8.746   7.656   0.491 -0.2945  0.1254 -0.1835
31399W        W47660  13.592  11.190  14.975 -0.1533  0.3033  0.1283
31400W        W47661   2.417   3.565   2.665 -0.0077  0.1501  0.1641
31401W        W47662  14.693  13.519   3.209 -0.0278  0.0827  0.2865
31402W        W47663  13.206   4.874  13.397 -0.3589 -0.0347 -0.0431
31403W        W47664   8.848  10.445  14.098  0.4667 -0.1911 -0.2140
31404W        W47665  13.824  16.349   2.574  0.0491  0.0175  0.2029
31405W        W47666  15.022   9.614   5.211  0.1484  0.0088 -0.0732
31406W        W47667   0.681   4.122   0.800  0.0859 -0.2971  0.2043
31407W        W47668  11.126   4.268   4.274  0.0727  0.2296 -0.1429
31408W        W47669  18.018  16.189  15.893  0.3701 -0.2916 -0.0889
31409W        W47670  10.786   2.968   5.423 -0.0429 -0.0517 -0.4311
31410W        W47671  14.811  11.005  13.030 -0.1668  0.1149 -0.1898
31411W        W47672   3.722   7.106  15.038 -0.4722 -0.0583 -0.1006
31412W        W47673   1.597   0.511  13.614 -0.0249  0.0679 -0.3481
31413W        W47674  13.972   0.587   4.102  0.1644  0.1170 -0.4633
31414W        W47675  11.906  15.001  12.997  0.3512 -0.2004  0.0498
31415W        W47676   7.355  14.448  16.025  0.1053 -0.3051  0.0011
31416W        W47677  15.046   0.955   0.662 -0.0413 -0.0870 -0.0193
31417W        W47678   4.847   3.225   2.791  0.1128  0.2936  0.0071
31418W        W47679   6.185  17.952   0.159  0.2336  0.1746 -0.0274
31419W        W47680   5.527  13.776   2.661  0.0842  0.1501 -0.1103
31420W        W47681   7.739   3.925  15.302  0.1606  0.1422  0.2335
31421W        W47682  12.420   1.068  13.783 -0.1396  0.0567  0.2739
31422W        W47683  17.918   6.378  15.113  0.0044 -0.1974 -0.1476
31423W        W47684   7.189   5.348   1.010  0.0291 -0.0483 -0.1580
31424W        W47685   8.292   2.534   5.598 -0.4505 -0.0565  0.3277
31425W        W47686   1.778  10.051   3.387  0.2016 -0.1677  0.2583
31426W        W47687  14.953   1.852   0.469  0.0297 -0.1130 -0.2959
31427W        W47688   9.346  10.959  11.989 -0.0848 -0.0565  0.1376
31428W        W47689  13.631  11.270  14.476  0.1883 -0.2456 -0.0779
31429W        W47690   8.639   9.745  12.807 -0.1466 -0.0073 -0.1049
31430W        W47691   4.266   0.833   0.675 -0.2685 -0.3559 -0.0258
31431W        W47692  16.912  12.111  16.173 -0.1899 -0.0226 -0.0858
31432W        W47693   4.677   4.727  12.553 -0.0825 -0.1120 -0.1003
31433W        W47694   7.725  11.553  13.610  0.0752  0.3334 -0.1843
31434W        W47695   6.341   4.298   2.158 -0.1025  0.0431  0.0324
31435W        W47696  18.357   3.272   0.987  0.0892  0.1203 -0.1629
31436W        W47697  12.819  10.948   0.195  0.1739  0.0096 -0.1123
31437W        W47698   6.510   0.350  16.033 -0.1908 -0.0448 -0.1434
31438W        W47699   5.717  10.759   1.310  0.1312  0.2291  0.4582
31439W        W47700   3.922  17.673   2.988 -0.0545  0.2027  0.0166
31440W        W47701   2.835   3.287   3.780 -0.0744 -0.0132  0.2238
31441W        W47702   9.241   6.003   0.061  0.0830 -0.0078  0.0531
31442W        W47703  18.185   1.726   2.898 -0.3386  0.2651  0.0753
31443W        W47704  13.972  13.509  12.643 -0.0351 -0.0649 -0.0917
31444W        W47705  10.563  10.328   2.571  0.1133 -0.0536  0.2258
31445W        W47706  12.412   7.025   1.817  0.2990  0.2418 -0.0177
31446W        W47707   9.135   9.172   2.819 -0.0608  0.0098 -0.1472
31447W        W47708   9.656   4.985  15.731 -0.0789 -0.0994 -0.0319
31448W        W47709   1.194  10.044  15.390  0.2047  0.0162  0.0591
31449W        W47710  10.171  15.874   3.980  0.3002  0.2812 -0.1961
31450W        W47711  14.021   2.792   0.715  0.0241 -0.1103  0.2425
31451W        W47712   3.921   5.285   2.483  0.0970 -0.2882  0.0325
31452W        W47713  13.378   0.448  14.368 -0.2770  0.1044  0.0421
31453W        W47714  10.952  11.040  12.098 -0.3473  0.1346 -0.0823
31454W        W47715  13.258   8.709   0.720  0.3815 -0.0536  0.1225
31455W        W47716   6.650   5.303   2.302 -0.0625  0.2529 -0.1989
31456W        W47717  14.261   0.714   4.928 -0.0431  0.1029 -0.2666
31457W        W47718   1.766   2.434  11.731  0.2755 -0.0919 -0.2650
31458W        W47719   0.587  11.317   1.851  0.2817 -0.0157  0.4683
31459W        W47720   5.939   6.186  12.024  0.1812  0.0739  0.0274
31460W        W47721   7.516  14.327  12.871  0.2521  0.0718  0.3233
31461W        W47722   0.351  14.295  12.361  0.0207  0.0036 -0.2081
31462W        W47723  13.324   6.709   5.312  0.1210  0.2560  0.0076
31463W        W47724   7.263   2.101   4.916  0.5610 -0.0840 -0.2287
31464W        W47725   3.885  15.203   5.439  0.0958 -0.3449 -0.1490
31465W        W47726   8.834   2.626  15.759 -0.2079 -0.0285 -0.4622
31466W        W47727   1.082   9.569   3.939 -0.0422  0.0199 -0.2924
31467W        W47728   0.265  10.014  11.290 -0.1521  0.1356 -0.4090
31468W        W47729   1.869   6.207  14.266  0.0072 -0.0217  0.2880
31469W        W47730   5.727   9.691   3.964 -0.3307 -0.2415  0.1642
31470W        W47731   1.211   5.466   0.269 -0.1763 -0.1348 -0.0855
31471W        W47732   4.967   9.169   5.243 -0.0475 -0.3160 -0.1239
31472W        W47733  10.513   8.730   1.319  0.4062 -0.0077  0.0285
31473W        W47734   0.290  13.766  10.808 -0.3135 -0.0327  0.2553
31474W        W47735   7.345   6.637  12.246 -0.0152  0.2058 -0.2052
31475W        W47736  12.623   6.362   5.801  0.1706  0.3069  0.0743
31476W        W47737  14.351   5.789   1.683  0.5170  0.0561  0.2634
31477W        W47738  13.787  14.683   3.165 -0.2997  0.0841  0.0169
31478W        W47739   6.788   2.101  12.886  0.0925  0.2951  0.2058
31479W        W47740   7.021   9.928   4.075 -0.1502 -0.3480 -0.0656
31480W        W47741   9.363   2.715   0.598 -0.1247 -0.0749  0.0712
31481W        W47742  11.112   8.224  14.623 -0.0604  0.0878 -0.0975
31482W        W47743  16.780  15.941   4.530  0.1647  0.1565 -0.1444
31483W        W47744  16.137  12.687  13.395 -0.1310 -0.0829 -0.0666
31484W        W47745   0.232  10.121   4.097 -0.0138  0.0853  0.0631
31485W        W47746   6.484   8.583  13.358  0.2544 -0.2108 -0.4282
31486W        W47747  16.257   0.341   1.317 -0.1750  0.3124 -0.1345
31487W        W47748  13.271  13.984  14.320  0.1798 -0.5145  0.2746
31488W        W47749   4.712  13.345  13.397 -0.1371 -0.1111  0.0312
31489W        W47750   1.354   0.572  14.978 -0.2811 -0.0148  0.0129
31490W        W47751  14.695   0.875  13.129 -0.0083 -0.0760  0.0245
31491W        W47752   5.286   2.460   2.550  0.0771 -0.1185 -0.0024
31492W        W47753   2.763   8.499   0.544  0.0485 -0.1141 -0.1979
31493W        W47754   0.706   5.959  13.297 -0.0262  0.1314 -0.4605
31494W        W47755  11.796  15.663  14.919  0.0624 -0.1372 -0.2113
31495W        W47756   6.852  16.031   0.808  0.2209 -0.1441  0.2133
31496W        W47757   5.818   8.330  15.672  0.1835 -0.0184 -0.2170
31497W        W47758  18.220   9.824  15.009  0.3000 -0.1346  0.1668
31498W        W47759  13.956   2.312  12.983 -0.1022  0.0568 -0.0469
31499W        W47760  11.867   2.854   3.192 -0.1495 -0.1379 -0.2254
31500W        W47761  18.342   7.335  15.639 -0.1367 -0.0965 -0.0648
31501W        W47762   1.385   8.081   2.319  0.4436 -0.4433 -0.3110
31502W        W47763   9.499   0.181  16.058  0.1335 -0.1438 -0.0483
31503W        W47764   0.916   9.836   3.118 -0.2905  0.2310  0.0260
31504W        W47765   6.796   6.292  13.980  0.2994  0.1285  0.3153
31505W        W47766  17.954   7.114   5.905 -0.1248  0.2288  0.2002
31506W        W47767   9.935  11.474   0.014 -0.0624 -0.1981 -0.1953
31507W        W47768  16.540   1.032  12.460  0.1284 -0.1889 -0.2653
31508W        W47769  16.482  17.054   5.521  0.4305 -0.1114  0.0152
31509W        W47770  11.814   5.312   0.794  0.2540  0.4235 -0.1455
31510W        W47771   3.383   7.989  14.589  0.1878 -0.2824  0.1307
31511W        W47772  16.449  17.379   2.797  0.3088  0.1165 -0.3191
31512W        W47773  13.527   3.379   1.846 -0.3040 -0.3451  0.2574
31513W        W47774   6.852   7.542  10.896 -0.1398  0.0158 -0.2228
31514W        W47775   5.531   8.427  13.351 -0.1415 -0.3708  0.3985
31515W        W47776   7.443  10.397   1.825 -0.0452  0.3493 -0.1438
31516W        W47777   4.436  18.115   5.239 -0.0099 -0.2866  0.2952
31517W        W47778  10.097   0.476  13.098 -0.2138 -0.1027 -0.3747
31518W        W47779   3.836  14.415  11.934  0.1641 -0.1154  0.3450
31519W        W47780  10.217   3.032   2.892 -0.0967 -0.0396 -0.0177
31520W        W47781  10.384  18.028   2.615  0.2105  0.2938  0.3986
31521W        W47782   1.200  15.091  14.154 -0.1630  0.2069 -0.1610
31522W        W47783  17.219   2.344   0.034  0.0682 -0.2984  0.2983
31523W        W47784  16.706  12.791  16.285 -0.2375 -0.0604  0.0569
31524W        W47785  15.677  18.231   3.703  0.0122  0.1411  0.0636
31525W        W47786  11.922   5.447   1.238  0.0245 -0.0777  0.0350
31526W        W47787   8.164  15.045  14.030 -0.2059  0.1704 -0.3768
31527W        W47788   4.760   5.774   2.714 -0.1247 -0.1906  0.2914
31528W        W47789   9.959  14.154  13.136  0.0306  0.2850  0.3903
31529W        W47790   3.066   4.518   5.901  0.0036  0.0952 -0.1079
31530W        W47791   2.890  10.764   0.403  0.0519  0.1127 -0.2080
31531W        W47792  18.312   4.331   5.181 -0.0705 -0.1569  0.1428
31532W        W47793   0.767   0.382  15.511 -0.1194 -0.0218 -0.0421
31533W        W47794  13.397  12.829   2.639  0.0228  0.3309  0.0324
31534W        W47795   1.823  15.084  12.505  0.0508 -0.2171 -0.2401
31535W        W47796  15.678   5.310  15.467 -0.1579 -0.0908 -0.0935
31536W        W47797   9.597  16.020   3.277 -0.0130  0.0370 -0.0132
31537W        W47798  14.344  10.887   4.798  0.0229  0.0046 -0.1278
31538W        W47799   5.317  17.846  11.823 -0.1123 -0.0981  0.0257
31539W        W47800   1.720   5.246   1.167  0.2551  0.0669  0.2385
31540W        W47801   3.368   9.273  15.641 -0.0968 -0.0018 -0.1150
31541W        W47802   6.679  17.078  10.216  0.0920  0.1741 -0.0902
31542W        W47803  15.453   2.464   0.789 -0.1104 -0.1347  0.0359
31543W        W47804   4.318   2.283  12.594 -0.2561  0.0045  0.0778
31544W        W47805  10.644   3.130  13.931 -0.1878 -0.1202  0.1709
31545W        W47806   3.478  14.374  12.747  0.0583  0.0029 -0.0022
31546W        W47807  11.397  10.102   4.189  0.1474  0.1700 -0.0145
31547W        W47808  18.091   8.982   0.448  0.0516 -0.1236 -0.2753
31548W        W47809   2.706  13.587  12.901  0.1951  0.0457  0.2127
31549W        W47810  17.804  10.798  14.223 -0.1798 -0.1092 -0.2193
31550W        W47811  10.813  11.397   2.702  0.0758  0.1584 -0.0717
31551W        W47812   2.963   6.576   5.431  0.0511 -0.0801 -0.1217
31552W        W47813  14.708  14.152  13.313  0.0104  0.2791  0.1217
31553W        W47814  16.700  17.244  13.687  0.0115  0.3479 -0.0356
31554W        W47815   9.802   5.273   4.581 -0.0312  0.0072 -0.0606
31555W        W47816  13.068   3.336   3.333 -0.0469  0.3362  0.1002
31556W        W47817   9.680   4.777   1.569  0.1033 -0.1282  0.3527
31557W        W47818   2.316   7.189   1.943 -0.0538  0.4578  0.0314
31558W        W47819  15.578  13.434  14.567  0.3524  0.0040 -0.1077
31559W        W47820  14.075   2.545  15.780 -0.0495  0.1250 -0.0682
31560W        W47821   9.292  11.581   2.203 -0.1432  0.1070  0.3107
31561W        W47822  15.093   5.666   1.539  0.0294  0.0949 -0.1896
31562W        W47823   3.947  13.910   4.063  0.3088  0.1853  0.2164
31563W        W47824   7.459   9.300   4.929 -0.2107 -0.1595 -0.1229
31564W        W47825   7.395  12.471  13.439 -0.2154 -0.1896  0.1629
31565W        W47826   6.125   0.824   3.383 -0.0793 -0.0114 -0.1287
31566W        W47827  14.832   4.681  11.708  0.1041  0.3122  0.2376
31567W        W47828  15.094   5.292  13.558  0.1279 -0.3383 -0.0795
31568W        W47829   4.238   1.427  15.296 -0.0697  0.0036 -0.2103
31569W        W47830   0.413  14.114   1.388  0.0426  0.2102 -0.0546
31570W        W47831  17.055  10.316   5.252 -0.1522  0.0309  0.0525
31571W        W47832  11.062  15.532  14.608 -0.2050 -0.0118  0.1198
31572W        W47833   5.583  15.754  14.865 -0.0239  0.4152  0.3588
31573W        W47834  15.712   1.530  14.168  0.2832  0.0940  0.1788
31574W        W47835   6.769   1.137   3.901  0.0032 -0.0894  0.1914
31575W        W47836  10.743   5.049  16.207 -0.1141 -0.2053  0.0863
31576W        W47837   4.372   5.239   5.781 -0.1212  0.0307 -0.2026
31577W        W47838  11.351  15.890   5.425  0.0135 -0.1086  0.2268
31578W        W47839   6.138  15.022  15.280  0.1234 -0.0846  0.0594
31579W        W47840   7.336   0.859   6.377 -0.0440 -0.1647  0.0377
31580W        W47841   1.677  15.345  12.934  0.1392  0.0622 -0.0899
31581W        W47842   1.227  14.723   3.572  0.0829  0.0795  0.1337
31582W        W47843  16.672   3.753   3.137 -0.0153  0.0303 -0.2539
31583W        W47844  10.648   7.040  10.526  0.0605 -0.3197  0.2237
31584W        W47845   1.925   9.815   5.872 -0.0610  0.1762 -0.3575
31585W        W47846  10.584  12.303  12.694  0.2649 -0.0442 -0.1825
31586W        W47847   3.960   4.288  15.121  0.0764  0.3431  0.1637
31587W        W47848   3.787  10.564  13.757  0.1008 -0.2350  0.0394
31588W        W47849   6.147   7.442  15.624 -0.1043  0.0923 -0.2826
31589W        W47850  13.545  16.925  13.376 -0.2236 -0.2039 -0.3066
31590W        W47851   4.817   5.547   3.206 -0.2013  0.2701  0.0554
31591W        W47852   2.373  15.337   4.477  0.0680  0.0234 -0.0435
31592W        W47853   2.757   7.210   4.686 -0.1238 -0.3038 -0.2118
31593W        W47854   5.825  16.474  12.548  0.0988  0.1751  0.0066
31594W        W47855   6.148   6.091   5.085  0.0110  0.1363  0.0375
31595W        W47856   9.430   6.014   0.950 -0.0803  0.6557 -0.1124
31596W        W47857  13.657  17.434  11.727 -0.2140 -0.3748 -0.0595
31597W        W47858   7.698  13.339   3.533 -0.0491 -0.2384  0.1345
31598W        W47859   4.659   2.608  14.900  0.1184  0.2848 -0.3897
31599W        W47860   1.312  11.354  15.871 -0.3177 -0.2268  0.0547
31600W        W47861   9.789   1.901  14.134  0.1759  0.0392  0.0275
31601W        W47862  10.960   6.870  14.146 -0.0311 -0.1443 -0.0335
31602W        W47863  11.033   8.847   2.494  0.2432 -0.0746  0.4136
31603W        W47864   8.820   9.711   0.917 -0.1924 -0.3596  0.1225
31604W        W47865  17.774   0.390   1.998 -0.0008 -0.0392  0.0295
31605W        W47866   8.436   8.978  16.169  0.0573  0.2201  0.2593
31606W        W47867  16.284  18.332   2.442 -0.1315 -0.0361 -0.1773
31607W        W47868   7.074  14.737  13.219 -0.3215  0.1100 -0.2085
31608W        W47869  16.860  16.644  13.749  0.0886 -0.1674 -0.0905
31609W        W47870  14.121  10.018   1.598 -0.2272  0.1013  0.2802
31610W        W47871  16.175   8.258   2.935 -0.0013 -0.4490 -0.0643
31611W        W47872   2.099  10.516  11.396 -0.3805 -0.1712 -0.0817
31612W        W47873   7.573  15.510   4.851  0.0266  0.1309  0.3105
31613W        W47874  12.765  17.819  11.424 -0.1391 -0.2154  0.0964
31614W        W47875  14.142   6.343  11.312  0.2390  0.0069 -0.0501
31615W        W47876  14.800   4.051   5.578 -0.1745  0.0996 -0.0381
31616W        W47877  16.072   2.039   4.141  0.1102 -0.0861  0.0920
31617W        W47878   8.408   0.738  15.590 -0.0740 -0.0843  0.0958
31618W        W47879   6.767  10.079  15.224 -0.0971 -0.2381  0.0348
31619W        W47880   5.353  17.880   1.922 -0.0134  0.0187 -0.0737
31620W        W47881  14.784   2.562   0.195  0.0315  0.0422 -0.0751
31621W        W47882   6.069   5.673  12.383 -0.1460  0.0855 -0.0284
31622W        W47883  17.879  14.205   3.060 -0.2774  0.0432 -0.0496
31623W        W47884  11.740   4.463   1.143 -0.1840 -0.0262 -0.1369
31624W        W47885  12.415  16.241   1.109 -0.1592 -0.0003  0.1621
31625W        W47886  11.572  15.614   3.550 -0.1079  0.6034  0.1436
31626W        W47887   9.598  15.162   1.717 -0.0977 -0.2226 -0.5193
31627W        W47888  18.098   4.895  13.049  0.1687  0.0592 -0.2400
31628W        W47889  14.626  12.663   2.608 -0.1750  0.1636 -0.0208
31629W        W47890   0.682  16.752   3.713 -0.0956  0.0518 -0.1474
31630W        W47891   9.393   4.191  15.743 -0.0282 -0.1610 -0.1755
31631W        W47892   1.540   4.163  11.762 -0.0712  0.4022  0.1373
31632W        W47893  12.730   9.977   4.514  0.2320  0.2620 -0.2682
31633W        W47894   8.995  14.688  14.008  0.0712 -0.2571 -0.2839
31634W        W47895  10.639  12.263   0.442 -0.1745 -0.1726  0.1179
31635W        W47896  13.147  10.205  13.601 -0.1966 -0.4017 -0.0616
31636W        W47897   7.735   5.838  12.355  0.1745 -0.5797  0.1607
31637W        W47898  12.197  13.011   4.966 -0.0700 -0.0529 -0.1146
31638W        W47899  10.976   3.696  14.613  0.0280  0.0349 -0.2847
31639W        W47900  10.571  11.338   2.218 -0.0462  0.0614  0.2307
31640W        W47901   9.554  16.587   1.109 -0.0840  0.0724 -0.1512
31641W        W47902  17.482  15.206   4.669  0.5445 -0.0591 -0.2139
31642W        W47903   4.329  10.227   1.450 -0.0379 -0.4698  0.3605
31643W        W47904   5.177   1.767   5.425  0.1366 -0.0505 -0.2310
31644W        W47905  10.423   9.296   0.157  0.2658  0.2152 -0.2334
31645W        W47906  18.093  12.277   4.337  0.1157  0.1808  0.1537
31646W        W47907  12.453  14.598   2.483  0.2225 -0.1131  0.2338
31647W        W47908   7.585   6.261  12.051  0.2438 -0.1751  0.4545
31648W        W47909   9.527  17.132   3.360  0.0524  0.0829  0.0393
31649W        W47910  14.863   2.093  11.798  0.0727 -0.0041 -0.0822
31650W        W47911  10.691   7.274  11.943 -0.4336  0.1343  0.1624
31651W        W47912   0.659  10.581  16.097 -0.0148  0.0094 -0.0278
31652W        W47913   3.115  17.760  12.371  0.2119  0.0158  0.1728
31653W        W47914   5.319  11.244  12.241 -0.0152  0.2036  0.3322
31654W        W47915   6.145   0.548   2.498  0.2135  0.1632 -0.1887
31655W        W47916  13.718   6.470  16.133  0.3471 -0.0385 -0.1410
31656W        W47917  16.376  17.938   1.729  0.0826 -0.2153 -0.0017
31657W        W47918   7.623   0.004  15.561  0.2541 -0.0193  0.1476
31658W        W47919   8.006   2.910  15.089  0.0690 -0.0358 -0.0226
31659W        W47920   7.279  15.320   2.970 -0.0236  0.2416  0.0670
31660W        W47921   9.643   8.870  15.497 -0.2994 -0.0813 -0.0555
31661W        W47922   4.531   4.781   3.196  0.2015  0.1606  0.0012
31662W        W47923  14.175  15.503  15.074  0.2788 -0.0153 -0.2639
31663W        W47924   8.245   7.513   5.579 -0.2504 -0.1638  0.4686
31664W        W47925  14.518   6.284   5.309  0.1424  0.4114 -0.3053
31665W        W47926   6.427  13.293  11.482  0.3191  0.0605 -0.0258
31666W        W47927  10.274  12.858   4.906  0.1893 -0.1474 -0.3775
31667W        W47928  15.383   7.953  15.979  0.3148 -0.3057 -0.0777
31668W        W47929  18.175  10.935   1.034 -0.0691 -0.2494  0.2216
31669W        W47930   6.109  13.972  15.707  0.1991 -0.2144  0.2891
31670W        W47931   6.590   7.705   2.252  0.1158 -0.0337 -0.0715
31671W        W47932   1.609   2.402   5.533  0.3415 -0.2872  0.1176
31672W        W47933   1.603   8.533   6.185 -0.2149  0.3636  0.3494
31673W        W47934  12.270   9.756  15.119 -0.2236  0.0244 -0.1123
31674W        W47935   7.088   9.531  14.054 -0.2733  0.1971 -0.0888
31675W        W47936   0.757  13.359   0.198 -0.1210  0.1689  0.2521
31676W        W47937   9.872   5.191   0.415  0.3280  0.1363 -0.0448
31677W        W47938  14.685   4.107   1.932 -0.0323 -0.2554 -0.0329
31678W        W47939  16.693  14.672   3.849 -0.0394 -0.2112 -0.1026
31679W        W47940   5.934   5.296   5.688 -0.0336  0.1256  0.3148
31680W        W47941  11.460  13.479   0.285 -0.0807 -0.0919 -0.0249
31681W        W47942  14.322   2.419  13.402  0.0313 -0.1178 -0.2849
31682W        W47943  11.154   8.425   0.642  0.1004  0.1102  0.0319
31683W        W47944  17.911   4.958  14.247  0.1046 -0.2075  0.0036
31684W        W47945   8.392   8.445   4.121  0.1056 -0.0692  0.1401
31685W        W47946  11.197   4.734   1.911 -0.1431 -0.0011  0.1212
31686W        W47947   6.972   8.012   1.517 -0.0588 -0.0751  0.1409
31687W        W47948   4.581  16.166  15.336 -0.4233  0.1272 -0.2472
31688W        W47949  11.910   6.429  15.247 -0.1185  0.1986 -0.2702
31689W        W47950   3.486  10.380   1.824  0.0752 -0.0808 -0.3278
31690W        W47951  14.061   8.973   3.666  0.0530 -0.2292 -0.0206
31691W        W47952   8.839   6.318   3.628  0.0141 -0.1339  0.0505
31692W        W47953   9.486  13.189   0.435 -0.2966  0.1311  0.0600
31693W        W47954   9.024  17.784   3.279  0.1820  0.0585  0.0033
31694W        W47955   5.291   5.672  15.069 -0.0496  0.2610  0.1905
31695W        W47956   9.905  14.600   0.663  0.1077 -0.0978  0.1318
31696W        W47957  13.353   5.383  11.966  0.0720  0.1611 -0.0487
31697W        W47958   4.346  11.347   1.064 -0.0289  0.0179 -0.3113
31698W        W47959   4.516   7.900  14.331  0.0809  0.2873  0.1193
31699W        W47960   0.684   7.315  16.182 -0.2777 -0.1459  0.0463
31700W        W47961   4.084  17.256  15.739  0.0179 -0.2559 -0.0489
31701W        W47962   9.168  18.332   2.523 -0.0259 -0.2378  0.4595
31702W        W47963   1.731   2.213  14.929  0.0475 -0.0401  0.1657
31703W        W47964  10.210   9.970  12.509  0.2569  0.2618  0.0208
31704W        W47965   6.507  10.585   2.964  0.4512 -0.0506  0.0190
31705W        W47966  17.707   6.431  13.847  0.1096 -0.0002 -0.2079
31706W        W47967   3.844   9.619   0.778 -0.1595  0.0830 -0.0145
31707W        W47968   9.371  15.373  13.004  0.2657 -0.0491 -0.0828
31708W        W47969   1.880   0.384  11.499  0.0520  0.1087 -0.3023
31709W        W47970   8.162   2.430   4.225 -0.2078 -0.1142  0.0101
31710W        W47971  14.865  12.407  11.632  0.1884 -0.0759  0.1362
31711W        W47972   5.566  17.985  12.620  0.1496 -0.1621  0.1787
31712W        W47973   2.156   8.923   1.274  0.1368  0.2306 -0.1264
31713W        W47974   8.193   8.106   4.432 -0.3093  0.2071  0.2131
31714W        W47975   7.591  13.640   1.287  0.0227 -0.0627  0.0377
31715W        W47976  13.438  11.702   6.147  0.2965 -0.0619  0.0505
31716W        W47977   4.564   8.439   3.478 -0.2672 -0.0948 -0.2288
31717W        W47978  17.860  11.137  15.673  0.0723  0.2361  0.0430
31718W        W47979   8.311  14.071  12.378  0.1101  0.1064  0.0030
31719W        W47980   8.397   3.003   4.840 -0.2951  0.0974  0.1721
31720W        W47981  17.644  16.496  13.092  0.0509  0.2191 -0.1471
31721W        W47982  12.699  17.431   3.945  0.2701  0.3674  0.1674
31722W        W47983   0.059   5.217  13.930  0.1592 -0.1950  0.0104
31723W        W47984   8.550  13.195   2.862 -0.1312  0.1243  0.0628
31724W        W47985  16.596   2.105  13.074  0.0216 -0.1395 -0.1302
31725W        W47986  11.040   7.269  11.579 -0.4504 -0.1315  0.4917
31726W        W47987   2.300   6.310  14.793 -0.0612  0.1776  0.1711
31727W        W47988   6.859  12.384   3.103 -0.0136  0.0594  0.2958
31728W        W47989   0.487   1.419   4.490 -0.0990 -0.2436  0.0490
31729W        W47990   0.358   6.394   1.189  0.0927 -0.3684 -0.0160
31730W        W47991  11.727   5.329   1.746  0.1470 -0.0237  0.2452
31731W        W47992   1.480   6.518   5.128 -0.2995  0.0940 -0.4134
31732W        W47993   5.309   0.688  13.838 -0.0985 -0.0807 -0.0023
31733W        W47994   7.701   3.906   3.025 -0.0101 -0.5124 -0.0266
31734W        W47995   1.674   5.161   0.232 -0.2415 -0.2784  0.0541
31735W        W47996  18.027   6.927  11.875  0.2928 -0.0289  0.1804
31736W        W47997  14.822  12.354   2.177 -0.1373  0.0286 -0.0927
31737W        W47998   4.556   4.074  10.573 -0.0130  0.3006  0.2768
31738W        W47999  16.705   7.132   1.733  0.2039  0.1976 -0.0691
31739W        W48000  16.554  14.234  10.984  0.1638  0.0104 -0.3568
31740W        W48001  10.620   8.015   2.564  0.1895  0.3286 -0.1602
31741W        W48002  10.503  17.286  16.068 -0.1790 -0.1918 -0.1207
31742W        W48003  10.966   8.914   1.481 -0.0880 -0.2683  0.2460
31743W        W48004  13.343   3.491   5.038  0.1798 -0.1399  0.1642
31744W        W48005   3.249  13.852  15.810  0.1591  0.1868 -0.0344
31745W        W48006  15.076  14.063  16.025 -0.1249  0.5597  0.2288
31746W        W48007   4.341  16.961   5.663 -0.0780  0.6680  0.1477
31747W        W48008   8.304  14.213  14.442  0.0403  0.1010  0.0603
31748W        W48009   8.430   6.149   1.859 -0.1054  0.0900  0.0507
31749W        W48010  13.784  14.479   2.746 -0.2832  0.1865  0.1605
31750W        W48011   0.762  13.825  16.184 -0.0525  0.0908  0.2648
31751W        W48012   7.055  11.099   0.538  0.0553  0.3553  0.1154
31752W        W48013   8.894  14.823  15.393  0.2471  0.2210  0.1359
31753W        W48014   2.486  16.509   1.958  0.1416  0.1337 -0.0752
31754W        W48015  12.975  17.758   0.128 -0.4050 -0.1126 -0.0365
31755W        W48016  14.004   1.030  15.097 -0.1038  0.4781 -0.0498
31756W        W48017   6.542   9.961   0.727 -0.0883 -0.0212 -0.1151
31757W        W48018  13.447   7.265   2.139  0.0950 -0.1036  0.0195
31758W        W48019  16.146   0.885  13.787  0.0203 -0.2622 -0.3977
31759W        W48020   4.025  10.606   2.095  0.1281  0.2359  0.1228
31760W        W48021  15.323   8.829  10.453 -0.3729 -0.0838 -0.0644
31761W        W48022   2.204   6.092  12.207 -0.3086  0.0080 -0.1219
31762W        W48023  13.960   5.353   3.779  0.2157 -0.3554 -0.0537
31763W        W48024  16.116   3.936   5.668  0.0691 -0.0390 -0.3037
31764W        W48025   3.117   7.935  13.761  0.1576 -0.0016 -0.0536
31765W        W48026   4.926  14.232  12.844  0.0308 -0.0714 -0.0734
31766W        W48027  17.752  14.113  13.011  0.0885 -0.1770 -0.0983
31767W        W48028   4.869  17.726  12.588 -0.1469 -0.1435  0.0503
31768W        W48029  14.799  14.293   0.556 -0.2207 -0.2727  0.0980
31769W        W48030  13.905   4.239  11.569  0.0740  0.0494  0.1948
31770W        W48031  13.501  15.411   5.100 -0.0747  0.1240 -0.0525
31771W        W48032   7.136   5.365   4.354  0.0087  0.2214 -0.2045
31772W        W48033   9.305  10.389  14.382  0.1392  0.0795  0.0902
31773W        W48034   1.530   8.174  15.040  0.1082 -0.0481 -0.3840
31774W        W48035  11.592  15.926  13.980 -0.0094  0.2537  0.2247
31775W        W48036  16.708  17.439   0.423 -0.2645 -0.2616  0.2836
31776W        W48037   7.964   0.352  12.463 -0.0362 -0.0595  0.3663
31777W        W48038  14.648   9.542  14.862  0.0286 -0.1719  0.0463
31778W        W48039  10.740  16.017  13.544  0.1695  0.0737  0.1038
31779W        W48040  12.171  17.426   0.473 -0.1736  0.0188  0.2482
31780W        W48041   2.971  14.023   0.462 -0.1118  0.0672 -0.2840
31781W        W48042  10.910   7.074  16.117 -0.0024 -0.1920 -0.0571
31782W        W48043  16.118   4.549  13.121 -0.1934 -0.1988 -0.0610
31783W        W48044   6.373   9.211  10.740 -0.2051  0.2361  0.3573
31784W        W48045   8.686  17.796  13.082 -0.1470 -0.0858 -0.0724
31785W        W48046   5.873   5.549   1.638 -0.2393  0.1050  0.2530
31786W        W48047   1.430   1.735  14.700  0.2632 -0.1062 -0.1163
31787W        W48048   0.778   7.828  14.057 -0.1449 -0.0773  0.0299
31788W        W48049  11.246  10.014  15.343  0.2393 -0.1149  0.4897
31789W        W48050   5.655   5.538  12.719  0.1222 -0.2071  0.2713
31790W        W48051  16.741   9.990   0.895 -0.0606  0.5473  0.0601
31791W        W48052  17.532  15.997   5.933 -0.0301  0.1350 -0.0771
31792W        W48053   2.400  15.288   2.922 -0.2735  0.0782  0.0548
31793W        W48054  17.714   7.932  14.853 -0.1560 -0.0612  0.1350
31794W        W48055   4.026  11.893  13.547  0.2840 -0.1307 -0.1396
31795W        W48056   7.668   4.176   2.531  0.1544 -0.2220 -0.1193
31796W        W48057   2.639  14.283   1.938  0.1684 -0.0021  0.0573
31797W        W48058  17.753   8.798   4.208 -0.1090 -0.0891  0.0301
31798W        W48059  15.604   5.408   3.545 -0.1113 -0.0778 -0.0156
31799W        W48060   0.980  15.967   3.991 -0.0241  0.5263 -0.6617
31800W        W48061  16.376   5.483  14.220 -0.0312  0.0646  0.2241
31801W        W48062   7.062   4.072  11.072  0.0894 -0.1446 -0.0053
31802W        W48063   1.482   4.675   0.369  0.3503  0.2725  0.1341
31803W        W48064   5.730   0.218   4.780  0.0812  0.0900 -0.2809
31804W        W48065   4.831  13.775  13.082  0.2705 -0.1683  0.1585
31805W        W48066  14.596  13.655  13.074 -0.0575 -0.3833 -0.0543
31806W        W48067   5.117  10.754   4.183 -0.5730 -0.5604  0.0860
31807W        W48068   8.050  16.565  15.931  0.1771  0.0999 -0.2907
31808W        W48069   8.200  13.876  14.819 -0.0037  0.1265  0.3839
31809W        W48070   5.820  15.221  11.496 -0.0441  0.0746  0.0605
31810W        W48071  12.903  12.998  12.802 -0.3408  0.2198  0.0566
31811W        W48072   6.133  12.851   0.124  0.0179 -0.1347 -0.1853
31812W        W48073  10.821   5.110  12.878  0.1358  0.0289  0.3115
31813W        W48074   4.047  18.219   0.974 -0.0263 -0.1526  0.1586
31814W        W48075  14.902  17.766  14.370  0.0288 -0.0772  0.3856
31815W        W48076   0.325  17.895   6.243 -0.0537  0.2431  0.2021
31816W        W48077  12.940   4.314  14.587  0.2301  0.0844 -0.1812
31817W        W48078   3.784  13.656  12.904 -0.1988  0.0570 -0.2082
31818W        W48079   7.370   5.355  11.483 -0.0558 -0.1110  0.1586
31819W        W48080   3.893   9.896  14.332  0.1659  0.1190 -0.1716
31820W        W48081  13.137  17.296  13.762 -0.2315  0.0852 -0.1265
31821W        W48082  11.991  17.410   4.595 -0.3495  0.2010 -0.0282
31822W        W48083   9.051   8.509   5.986 -0.1815 -0.2006 -0.3031
31823W        W48084  12.888  10.542  12.600 -0.2740 -0.1881 -0.1045
31824W        W48085  15.846  16.169  12.228 -0.0192 -0.3994 -0.0083
31825W        W48086   9.558   4.872   9.586 -0.0217  0.1822  0.0283
31826W        W48087  10.792   8.260  10.987 -0.0085  0.1533 -0.2937
31827W        W48088  10.670   3.762   3.244 -0.0301  0.0958 -0.1300
31828W        W48089  11.144   3.211   1.539 -0.2721 -0.2960  0.2105
31829W        W48090  13.749   7.546  13.403  0.3570  0.2005  0.2088
31830W        W48091   7.243   8.520   0.489  0.0537 -0.1451  0.2149
31831W        W48092   3.701  10.042  15.760  0.5548  0.0053  0.0244
31832W        W48093   9.427   6.262  15.725  0.4542  0.0345  0.2236
31833W        W48094  11.527  14.336  12.985 -0.1789  0.0136 -0.2238
31834W        W48095  13.846  17.798  13.689 -0.3928 -0.3360  0.0180
31835W        W48096  15.479   0.541  11.841 -0.1628 -0.2250 -0.0134
31836W        W48097  17.976  17.043  14.217 -0.1193 -0.0633  0.2755
31837W        W48098   6.857  17.202  10.678 -0.0381 -0.0289  0.0382
31838W        W48099  15.561  17.834  13.661  0.0987 -0.1632 -0.2220
31839W        W48100   6.092  18.325   2.236 -0.1719  0.1224  0.0009
31840W        W48101   2.587  17.319   4.134  0.1984  0.1475 -0.1676
31841W        W48102   7.568   4.485   3.838  0.0378 -0.1598 -0.1656
31842W        W48103  10.605   4.813   2.412 -0.0485 -0.2168 -0.2261
31843W        W48104   3.122   3.066   2.526  0.1594 -0.1746 -0.0111
31844W        W48105   4.803   9.101   2.371  0.0012 -0.2070 -0.0170
31845W        W48106  10.930   4.352  15.405 -0.0181  0.2074  0.0203
31846W        W48107  12.498   8.600  15.114 -0.0262  0.1884  0.0674
31847W        W48108   3.730  10.993   2.896 -0.1679 -0.1710  0.2421
31848W        W48109  13.115  17.624  11.091  0.1168 -0.2051 -0.2819
31849W        W48110   4.041   8.596   6.299  0.1124  0.0715 -0.0411
31850W        W48111   8.910  17.538   3.793 -0.2510  0.1211 -0.2605
31851W        W48112   0.637  10.350  14.071 -0.1595  0.0574  0.1428
31852W        W48113  12.810  14.032  15.853 -0.0956 -0.0668 -0.0452
31853W        W48114  16.886  12.409  12.333 -0.0438 -0.0797 -0.1720
31854W        W48115  12.007  13.403   3.528 -0.2106  0.1484  0.1665
31855W        W48116  14.939   8.095  11.587 -0.1690 -0.0015  0.1072
31856W        W48117  15.372  10.630   2.164 -0.4953 -0.2212 -0.0149
31857W        W48118   6.612   0.041  14.471 -0.2016  0.1941  0.2687
31858W        W48119  15.382  14.920  13.433 -0.4548 -0.1634  0.2544
31859W        W48120  18.137  17.368  15.159 -0.0597 -0.2076  0.0240
31860W        W48121  14.400  13.053   1.559 -0.0206 -0.1258  0.0511
31861W        W48122   0.509  10.917  11.230  0.0192 -0.2619 -0.3782
31862W        W48123  10.421   9.157   5.442 -0.2437 -0.0510 -0.1342
31863W        W48124   0.144   4.403   5.645  0.2531  0.0819 -0.1345
31864W        W48125  18.306   2.390  13.987 -0.1329  0.1636  0.0195
31865W        W48126  15.146  10.370  15.171 -0.0017  0.0004 -0.1800
31866W        W48127  14.175   6.538   5.100 -0.0811  0.3207 -0.1327
31867W        W48128   3.097  16.717   5.095  0.0400  0.2948 -0.1106
31868W        W48129   0.970  17.210   2.484 -0.0299 -0.3167 -0.1864
31869W        W48130  16.156   9.440   1.279  0.0898 -0.1451  0.1184
31870W        W48131   0.379   8.594   4.122 -0.0952  0.0931  0.1300
31871W        W48132  14.336   2.987   5.179 -0.0196  0.0159  0.0685
31872W        W48133   2.565   8.572   2.446 -0.3100  0.0455 -0.2023
31873W        W48134  11.904  12.772   0.777 -0.1005  0.2468  0.2153
31874W        W48135   7.724  15.266  12.829  0.1706  0.0138  0.1097
31875W        W48136  15.642  10.215  14.294 -0.1772 -0.3420 -0.0314
31876W        W48137   3.428   3.850   0.484  0.1146 -0.1394 -0.2079
31877W        W48138  17.495  14.072   3.814  0.0200 -0.2097 -0.0121
31878W        W48139  16.038  13.287   2.188 -0.1062 -0.2019 -0.0197
31879W        W48140   5.052   1.234   5.604 -0.3650 -0.1712  0.6092
31880W        W48141   0.568  10.218   0.856 -0.0247  0.0158 -0.0459
31881W        W48142  11.395   4.858  15.904 -0.1597 -0.2611 -0.0347
31882W        W48143  11.781  17.154  11.237  0.3819 -0.0613 -0.3916
31883W        W48144   6.719   7.948   6.120  0.0111 -0.4208 -0.0292
31884W        W48145   1.833   8.522   2.286 -0.0421  0.1315  0.1141
31885W        W48146   6.281   0.159  13.492 -0.0518 -0.1734  0.0875
31886W        W48147  11.136  11.172  10.656 -0.1002  0.1707 -0.0391
31887W        W48148   2.083   7.425  13.412  0.0869  0.4152  0.1508
31888W        W48149  18.071  11.622   6.088  0.2822  0.4959 -0.3221
31889W        W48150   0.284  15.219   2.547  0.0061  0.1214  0.0303
31890W        W48151   2.828   7.101   5.201 -0.3962  0.0817  0.1969
31891W        W48152  16.011  12.468   3.158  0.0588  0.2319  0.1508
31892W        W48153   5.132  11.296  14.683  0.3244 -0.2435  0.0248
31893W        W48154  10.337  16.516   1.454  0.0095  0.0306 -0.1739
31894W        W48155  12.260   7.178   4.896 -0.1111 -0.1481  0.2617
31895W        W48156   8.032   6.663   1.474  0.0064  0.1235  0.0510
31896W        W48157  14.942  14.072  14.630 -0.2756 -0.2721 -0.1192
31897W        W48158   5.580   5.889   3.040  0.0316  0.0218 -0.1412
31898W        W48159  16.788   8.445   4.000  0.1300 -0.1486  0.4246
31899W        W48160   0.369   2.011  14.445 -0.0659  0.2544 -0.0242
31900W        W48161   8.494   9.582   5.637 -0.2916  0.0845  0.1301
31901W        W48162  11.851  17.739   1.470 -0.0927 -0.1426 -0.1657
31902W        W48163   2.623   3.329   6.643  0.0511  0.0769  0.1434
31903W        W48164  15.755   2.256  15.766 -0.0535  0.3301  0.0253
31904W        W48165   0.678  10.579   1.178  0.1785 -0.0880 -0.1511
31905W        W48166   2.641  11.345  13.278  0.1204 -0.2046  0.4459
31906W        W48167   9.615  13.130  15.329  0.1566  0.2541 -0.2430
31907W        W48168  14.592  18.181  13.385 -0.0914 -0.3280  0.3027
31908W        W48169  13.142  15.981  10.673  0.0505 -0.2066 -0.3195
31909W        W48170  17.834   7.139  11.440  0.2396  0.3370 -0.1259
31910W        W48171   3.641  14.262   4.925  0.0204 -0.2993 -0.0733
31911W        W48172   3.698   4.014   6.243 -0.0452  0.4517 -0.0916
31912W        W48173   1.641   3.522  12.296 -0.0692 -0.2196 -0.1535
31913W        W48174   4.357   3.679   0.098 -0.3080  0.2950  0.1040
31914W        W48175  15.393  13.747   2.630 -0.2138  0.1714  0.1253
31915W        W48176  15.538  11.050  14.952  0.1212  0.0810 -0.1980
31916W        W48177   6.052   2.535  11.014  0.0102  0.0266  0.0244
31917W        W48178   4.984   2.827   2.119 -0.1468  0.0510  0.0887
31918W        W48179   4.943   5.292  14.894 -0.1321  0.0768  0.1919
31919W        W48180   7.276  15.772   3.362  0.0658 -0.2980 -0.0069
31920W        W48181   6.285   9.117  15.278 -0.0004 -0.0060 -0.0204
31921W        W48182  12.977   4.675  14.965  0.1093  0.1725 -0.1492
31922W        W48183  17.154  12.356  13.560  0.2368 -0.0198 -0.0129
31923W        W48184  12.989  11.708  11.659  0.0895  0.1503 -0.1041
31924W        W48185   4.793   9.159  13.764 -0.1175  0.1520  0.1566
31925W        W48186   4.596  11.343  14.703 -0.0692 -0.1117  0.1102
31926W        W48187  15.493   5.031   1.331 -0.1273  0.1087 -0.0139
31927W        W48188   0.189  17.335  14.821  0.0396  0.2668 -0.0970
31928W        W48189  10.432   0.135  15.185  0.2776 -0.1462  0.0218
31929W        W48190  10.363   7.282   2.408 -0.0429  0.2609 -0.2749
31930W        W48191  16.299  14.450  13.013 -0.1668  0.1566  0.2046
31931W        W48192  16.905  16.979  15.582  0.2658  0.0337  0.2695
31932W        W48193   0.049   1.084   3.796 -0.0415 -0.0835 -0.0750
31933W        W48194  16.821   8.675   1.793 -0.0918 -0.0552  0.1539
31934W        W48195   5.933  12.968   1.737  0.0120 -0.2962 -0.0781
31935W        W48196  18.298   9.249   5.120  0.0804 -0.1015 -0.1727
31936W        W48197  14.716  10.945  15.010 -0.1574 -0.0698 -0.0893
31937W        W48198   1.308  16.855   0.620  0.2360  0.4181  0.1295
31938W        W48199   0.213  12.126  11.990  0.3775 -0.2332  0.0738
31939W        W48200  15.654  10.583  13.902 -0.0137 -0.0708 -0.6384
31940W        W48201  16.232  14.337   3.749  0.1053 -0.0309 -0.2636
31941W        W48202   9.080   7.372  14.557  0.0616  0.0056  0.0126
31942W        W48203   3.681  12.791   4.507 -0.1430  0.1479  0.1385
31943W        W48204   5.237   6.296   1.598 -0.1112  0.1429  0.1640
31944W        W48205   5.254   0.375   4.381  0.0124  0.0116 -0.2482
31945W        W48206  11.764   1.406  12.038  0.1778 -0.0792 -0.1518
31946W        W48207   3.122  11.813  15.907 -0.2888  0.0637  0.0697
31947W        W48208  13.384  17.923  16.183 -0.1388  0.0663 -0.1084
31948W        W48209  11.543   8.577   0.298  0.0314 -0.1147 -0.3206
31949W        W48210  16.210  17.783  12.604  0.1896 -0.1545  0.1454
31950W        W48211   3.342   8.710  12.550  0.0623  0.1011 -0.3807
31951W        W48212   0.427   8.186   5.223  0.1098 -0.1065 -0.2952
31952W        W48213  11.868  10.272  14.139  0.1254 -0.0757 -0.3326
31953W        W48214   9.104   5.869   5.546  0.2649  0.2899 -0.0160
31954W        W48215  15.230   3.338   3.061  0.0769 -0.0980 -0.2613
31955W        W48216   0.825  12.160   4.401 -0.1096  0.1820 -0.1057
31956W        W48217  15.925  16.522   0.333 -0.2528  0.1023  0.1805
31957W        W48218   7.179  16.104  14.713 -0.0745 -0.0727 -0.0571
31958W        W48219   5.551   3.753   0.156  0.1858 -0.1006 -0.2337
31959W        W48220   1.322  10.318   1.910  0.2010 -0.0932  0.1786
31960W        W48221  13.363  15.951   0.895  0.0561  0.1898  0.4922
31961W        W48222  15.831  11.517   5.270  0.1137  0.1149  0.1566
31962W        W48223  15.268   2.146  13.357  0.0462 -0.1078 -0.0211
31963W        W48224   7.566   6.699   4.147  0.0062  0.2259  0.0711
31964W        W48225  15.008   7.009   1.963 -0.0262 -0.0006 -0.0640
31965W        W48226   2.505   9.244   1.009  0.0133  0.0360  0.2111
31966W        W48227  11.183  12.163   0.507  0.0248  0.0935 -0.1502
31967W        W48228   8.355  16.257   3.300  0.0281  0.0295 -0.2365
31968W        W48229  15.631   4.907  14.557 -0.0509  0.1863  0.3148
31969W        W48230  13.419  16.892   0.960  0.1066  0.1864  0.3156
31970W        W48231   2.553  16.793   4.197 -0.0604 -0.0766 -0.0203
31971W        W48232   6.042  11.278  13.004 -0.0716 -0.1950 -0.1754
31972W        W48233  18.140  10.575  12.760  0.1183 -0.0463 -0.0550
31973W        W48234  11.682   0.096  11.748  0.0432  0.0906  0.0358
31974W        W48235   5.801  14.335  12.918 -0.2035  0.0304  0.1179
31975W        W48236   7.185   1.128  12.784 -0.1733 -0.2207  0.2597
31976W        W48237   9.163   4.137   5.736  0.1199  0.0214  0.2370
31977W        W48238  12.637   5.620  13.466  0.1223 -0.1879  0.0485
31978W        W48239  16.656   5.310   5.402  0.0348  0.2224  0.1356
31979W        W48240   9.967   5.427  11.821  0.1818 -0.0146  0.2045
31980W        W48241  14.077   2.765   6.131 -0.0702 -0.1437  0.1656
31981W        W48242   3.762   9.583  11.879  0.0328  0.1574 -0.0387
31982W        W48243   5.905  18.109  13.042 -0.1150  0.0737 -0.3396
31983W        W48244   3.509  14.300   4.376  0.2817 -0.1000 -0.1339
31984W        W48245  11.836   3.053  12.585 -0.1840  0.3237 -0.4441
31985W        W48246  16.204   2.347  13.313  0.2260  0.3953 -0.1825
31986W        W48247  15.686  15.563  11.457 -0.0064  0.0836  0.0363
31987W        W48248   5.978  17.784   0.619  0.1066  0.2274 -0.1106
31988W        W48249   6.683   9.887  12.880  0.1944  0.0219  0.0248
31989W        W48250  15.325  15.773   0.496  0.0991 -0.0810 -0.1285
31990W        W48251  12.821   8.710   3.049  0.2117  0.0688  0.0883
31991W        W48252  18.152   5.791  14.705  0.1078 -0.0656 -0.1846
31992W        W48253   2.105  12.851  14.944 -0.1522  0.0527  0.0714
31993W        W48254   9.170  16.481  11.389 -0.3416 -0.0031 -0.3417
31994W        W48255   3.859   0.665   0.491 -0.1651  0.0011 -0.1437
31995W        W48256  17.180   4.784   2.943  0.0312  0.0058 -0.0663
31996W        W48257   6.820   7.839  12.364  0.0038 -0.0515  0.0497
31997W        W48258  16.130  13.929  13.505 -0.2108 -0.0270  0.0512
31998W        W48259   8.765   8.856   2.483  0.2900 -0.0701 -0.1369
31999W        W48260   1.602   3.457  13.023 -0.0743 -0.0204 -0.0434
32000W        W48261   0.874   4.179   2.984 -0.1826  0.0962 -0.1630
32001W        W48262   2.163   6.506   0.179  0.2970  0.1455 -0.0838
32002W        W48263  15.947  15.281  11.922 -0.1933  0.1135  0.1304
32003W        W48264   0.192  16.682   0.174  0.1936  0.0651  0.0311
32004W        W48265   2.261   7.219   2.473 -0.0166 -0.0506  0.2360
32005W        W48266  17.272   1.622   5.901  0.0744 -0.0506  0.0701
32006W        W48267   0.515   3.387   4.724 -0.0173  0.1600 -0.0070
32007W        W48268   0.335   0.654  13.806 -0.2391 -0.0691 -0.0654
32008W        W48269   1.531  14.415   3.883 -0.0123 -0.1217  0.1087
32009W        W48270  17.831  11.983  10.456 -0.1631  0.0140  0.0032
32010W        W48271  13.206  11.216  13.141  0.1951  0.0640  0.0442
32011W        W48272  13.013  10.539   0.546  0.0143 -0.0449 -0.1035
32012W        W48273   9.641   4.115  12.703 -0.2677 -0.2132 -0.0448
32013W        W48274  14.704   6.896  13.947  0.2249 -0.0526 -0.0553
32014W        W48275   7.464  10.541  16.158 -0.0664  0.0737  0.0222
32015W        W48276   6.553  14.707  11.948  0.2122 -0.1211 -0.1585
32016W        W48277  12.948   2.984   5.555 -0.0993 -0.0998  0.0333
32017W        W48278  14.062  13.570   3.777 -0.2020  0.0737  0.0804
32018W        W48279   3.681  10.048   3.303 -0.2210 -0.0939  0.2678
32019W        W48280  14.712   7.499  11.779  0.0544 -0.3851 -0.1216
32020W        W48281  16.437   8.856  15.351  0.5517  0.1140  0.1487
32021W        W48282  15.439   5.357   0.825 -0.3153 -0.1602 -0.0080
32022W        W48283   8.721  16.665   3.237 -0.4996 -0.1556  0.0196
32023W        W48284  17.803  10.968  15.091  0.0778  0.0966 -0.0781
32024W        W48285   3.006  10.826   1.298  0.1548 -0.3218  0.2080
32025W        W48286   5.587   1.812  12.946  0.4681 -0.0305 -0.0445
32026W        W48287   7.401  12.649   0.323 -0.1328 -0.2196  0.0845
32027W        W48288  11.524   3.956  11.545  0.1449 -0.3408  0.0983
32028W        W48289   3.581   2.875   4.368  0.0098  0.1086  0.0847
32029W        W48290  11.256  17.428   2.663  0.1970  0.0493  0.1988
32030W        W48291   4.978   6.925   2.381  0.1450  0.1459 -0.3040
32031W        W48292   0.808   3.198  15.765 -0.2510 -0.0917  0.2434
32032W        W48293   5.226   5.648   2.804  0.2331 -0.1993 -0.2040
32033W        W48294  13.266  15.149   1.501 -0.2512  0.0392  0.0460
32034W        W48295  14.840   2.129  16.263 -0.2302 -0.0133 -0.0775
32035W        W48296   3.586   7.153  12.826 -0.0002  0.0151 -0.2840
32036W        W48297   5.114   5.590   1.316  0.0230 -0.0293 -0.0047
32037W        W48298   4.654   9.224  11.564  0.1671 -0.0296 -0.2456
32038W        W48299  12.717   3.804   0.660 -0.2466 -0.0939  0.1090
32039W        W48300   2.348  14.470   5.474  0.0543  0.0880  0.0436
32040W        W48301  11.647   5.388  12.503 -0.1336  0.4298  0.0352
32041W        W48302   1.468   6.924  14.533  0.3711 -0.0831  0.3587
32042W        W48303  18.221  18.122   5.522  0.0470 -0.2084  0.1217
32043W        W48304   8.246   5.836  14.427 -0.1337  0.2321  0.2426
32044W        W48305   3.165  16.132  13.525  0.5271  0.1599  0.0660
32045W        W48306  17.842   5.378   4.311 -0.1199 -0.1790  0.1260
32046W        W48307  10.640   4.288   2.547  0.2169 -0.0788  0.0628
32047W        W48308   0.524  11.825   2.125 -0.2889 -0.1126 -0.0092
32048W        W48309   0.114  11.502  12.227  0.2478 -0.0365  0.1305
32049W        W48310  18.304   3.529   0.536 -0.1359  0.0567  0.2705
32050W        W48311  13.017  16.596   0.009  0.2660 -0.4463  0.0947
32051W        W48312   4.784  16.632  12.715  0.2606  0.0579  0.3616
32052W        W48313  17.265   8.617  11.544 -0.1749  0.2876  0.0011
32053W        W48314   4.893   2.948   4.493  0.0101 -0.1011  0.1740
32054W        W48315   4.697   9.116   3.085  0.0302  0.1441 -0.1829
32055W        W48316   5.218   1.932  14.990  0.1544 -0.0799 -0.1044
32056W        W48317   9.761  13.904  15.530 -0.3529  0.1007 -0.0297
32057W        W48318   4.942  12.181   1.327 -0.2725  0.2415 -0.0771
32058W        W48319  15.279  10.635   5.469 -0.0417 -0.0800  0.0647
32059W        W48320   3.246  18.214   0.534  0.0840  0.2937  0.3758
32060W        W48321   1.466  14.346   3.216  0.0018 -0.0334  0.0440
32061W        W48322  11.014  17.754   3.753  0.0022 -0.0228 -0.0947
32062W        W48323   1.819  16.388  15.717 -0.2297 -0.1223  0.1734
32063W        W48324   9.012   8.453  13.478  0.0195 -0.1011 -0.0315
32064W        W48325   7.242   2.450  13.402  0.3625  0.0469  0.0314
32065W        W48326  16.471  13.748   0.441  0.0813 -0.1833  0.4372
32066W        W48327   7.108   9.868   5.533  0.0339  0.0020  0.0256
32067W        W48328   3.819   5.071  12.125  0.0392  0.1312 -0.0245
32068W        W48329   2.607   3.320   3.313 -0.1676  0.0438  0.1988
32069W        W48330  13.466  16.757  11.824  0.1744  0.2718  0.3277
32070W        W48331  15.056  11.449  13.150  0.3087  0.1837  0.0345
32071W        W48332   6.331  11.617   4.348 -0.0656 -0.0829  0.1673
32072W        W48333  12.556   4.366   0.435 -0.2955  0.2001  0.0818
32073W        W48334  15.061   2.724   3.521  0.3085  0.1018  0.3276
32074W        W48335   5.357  10.856  15.783  0.2422 -0.0582  0.0801
32075W        W48336  18.217  10.740  13.315  0.3974  0.1112 -0.1746
32076W        W48337  18.022   6.339  15.645  0.1048 -0.0705  0.1306
32077W        W48338   6.347   0.791   3.891  0.2545  0.0070  0.1259
32078W        W48339  17.887   0.207  13.091 -0.2537  0.0752  0.0193
32079W        W48340  11.587  15.512   4.755 -0.0059 -0.1297  0.0457
32080W        W48341   7.347   8.212  14.960 -0.2442  0.1866  0.0357
32081W        W48342  15.750  15.811   0.948 -0.1697 -0.0144 -0.2058
32082W        W48343   6.883  12.284   1.408  0.1199  0.2098 -0.0721
32083W        W48344  14.128   5.391  12.412 -0.2572  0.2574  0.2388
32084W        W48345  16.582  13.292   4.597  0.3198  0.0204 -0.0159
32085W        W48346   6.214   2.138   2.055 -0.1629 -0.2281 -0.0074
32086W        W48347  16.141   1.897   6.028  0.2807 -0.1272 -0.0191
32087W        W48348   9.002   6.764   0.434  0.0008  0.3973 -0.1072
32088W        W48349  18.362  10.069  12.740  0.1202 -0.1151  0.2158
32089W        W48350  15.046   0.586  13.293  0.0597 -0.2185 -0.1521
32090W        W48351  11.039   1.473  13.508  0.0121  0.0406 -0.1856
32091W        W48352  11.509  11.366  15.399  0.0203  0.3225  0.0437
32092W        W48353   3.269   8.133  15.073 -0.1167 -0.3486  0.1078
32093W        W48354   0.990   8.863   0.109  0.0425 -0.3292  0.3310
32094W        W48355  12.542  14.767   1.851 -0.1170  0.2968 -0.1573
32095W        W48356   5.683  16.593   4.035 -0.2337  0.0911  0.1112
32096W        W48357   1.116  10.547  12.326 -0.0433 -0.0340  0.1426
32097W        W48358   2.278   5.576   0.082  0.4490  0.0334 -0.2015
32098W        W48359   9.961  12.523   0.130 -0.0204 -0.3295 -0.1125
32099W        W48360  11.202   8.833  14.319  0.0526  0.0518  0.0467
32100W        W48361   7.762   8.780   3.256  0.1693 -0.0773  0.1034
32101W        W48362  16.413  13.538   5.001 -0.0593 -0.0668 -0.1840
32102W        W48363   0.646   6.911  14.240 -0.0842 -0.1506 -0.3425
32103W        W48364   7.035   6.922  11.964  0.2080  0.2258  0.3035
32104W        W48365  14.822  11.433  15.339  0.1426  0.0176  0.2450
32105W        W48366   3.318  16.889   2.152 -0.1098  0.1100  0.2227
32106W        W48367  14.862   0.166   4.112  0.3162  0.0632 -0.1950
32107W        W48368  14.257   3.850   0.762 -0.0823  0.2067  0.3515
32108W        W48369   2.724  12.727  11.306  0.2165  0.3176  0.0402
32109W        W48370   1.258   7.656   5.625 -0.1953 -0.0148 -0.0131
32110W        W48371   2.786   8.404  13.857 -0.0067  0.0188  0.3475
32111W        W48372  10.604  17.192   3.846 -0.1493  0.0012  0.2370
32112W        W48373   4.646   4.787   1.842 -0.1528 -0.0669 -0.0704
32113W        W48374   8.654   0.398   1.252 -0.1229  0.2178  0.1434
32114W        W48375   2.037   9.788   0.637  0.1161  0.2552 -0.0174
32115W        W48376  17.946   3.447  15.434  0.0555 -0.1694 -0.0343
32116W        W48377   1.023   9.351  13.074 -0.1452 -0.1384  0.0248
32117W        W48378  15.521   9.810  12.833 -0.1392 -0.0941 -0.0913
32118W        W48379  11.376   4.493  14.291 -0.1084 -0.1788  0.0818
32119W        W48380  10.307  13.584  10.396  0.1639 -0.1080  0.2005
32120W        W48381  12.272  11.156   1.074 -0.0324 -0.0345  0.2205
32121W        W48382   5.133   7.424  14.759 -0.0319  0.0546 -0.2081
32122W        W48383   1.521  17.906   2.336  0.0904  0.0168 -0.1580
32123W        W48384   2.123  16.682  15.286  0.1234 -0.0776  0.3214
32124W        W48385   7.171  11.233  10.658 -0.2225  0.3313  0.0791
32125W        W48386   9.866   9.783   1.451 -0.2627 -0.0659 -0.1243
32126W        W48387   2.074  11.362   5.689  0.0246 -0.1739 -0.0541
32127W        W48388  15.419   4.513  16.121  0.0430  0.2439  0.3117
32128W        W48389  11.600   2.862   4.436  0.2465 -0.0591 -0.1967
32129W        W48390  13.876   0.053  12.576  0.3812 -0.0488  0.1444
32130W        W48391  12.079   3.781  15.217  0.1219  0.2704  0.4269
32131W        W48392  14.788   6.197  14.643 -0.2029  0.3702 -0.1237
32132W        W48393   6.034   8.378  12.059 -0.2761  0.0085  0.1444
32133W        W48394  16.524  10.871  14.200  0.0910 -0.3433 -0.1017
32134W        W48395   5.574  11.499  14.850  0.1054  0.0598  0.0445
32135W        W48396  15.486   0.628  14.627 -0.2280 -0.3823 -0.0999
32136W        W48397   3.557  16.185   1.144 -0.1835 -0.1796  0.0917
32137W        W48398   8.637   0.725  12.273  0.0833  0.3013 -0.0929
32138W        W48399   9.853  11.273   2.916 -0.0409  0.0688 -0.0785
32139W        W48400   2.868   4.335  14.878 -0.2709 -0.1553 -0.2830
32140W        W48401   4.333   1.740   0.388  0.0026  0.0609  0.0329
32141W        W48402   2.745   4.258   0.304 -0.2627 -0.2547 -0.0146
32142W        W48403  17.541  14.023  15.806  0.1515 -0.0412 -0.1397
32143W        W48404   8.824  15.228   5.782 -0.2867  0.0495  0.1407
32144W        W48405   5.834   5.060   2.713 -0.2490 -0.1910 -0.0782
32145W        W48406   5.154  13.138  11.850 -0.0031 -0.4994 -0.0462
32146W        W48407  16.621  14.901  13.020  0.0687  0.0363 -0.1205
32147W        W48408   6.733   4.609  14.198 -0.1676  0.2080  0.1001
32148W        W48409  12.821   9.844  12.152 -0.0378  0.1698  0.0726
32149W        W48410   8.805  12.798   3.792 -0.2089  0.1977 -0.3220
32150W        W48411  12.047  17.588   3.423  0.1226  0.0225  0.0352
32151W        W48412  16.026  13.337   4.761  0.3690 -0.4393 -0.2030
32152W        W48413  13.303  13.495  14.592 -0.4406  0.0349  0.0774
32153W        W48414  17.964   1.263  15.076 -0.0644  0.2762 -0.0546
32154W        W48415   8.270  16.363  11.122 -0.1265  0.4452 -0.1302
32155W        W48416  12.711  16.076   5.311  0.3641  0.1203 -0.3986
32156W        W48417  12.463   0.537  13.745 -0.0546  0.1414 -0.0019
32157W        W48418  17.602  10.623   3.905 -0.1863 -0.0290 -0.3576
32158W        W48419   6.812   1.243  11.088 -0.5762  0.0178  0.1137
32159W        W48420  11.766   2.242   1.504 -0.1191 -0.1353 -0.3420
32160W        W48421  13.383  11.683   3.347  0.0210 -0.0670  0.0614
32161W        W48422   8.201  17.556  11.373  0.0332 -0.0006  0.0632
32162W        W48423  16.471   2.275   6.132 -0.1216 -0.1442 -0.0098
32163W        W48424  11.852   3.730   2.800  0.1528 -0.2854 -0.0885
32164W        W48425  11.252   0.244  13.069  0.0895 -0.2569 -0.0412
32165W        W48426  16.920   8.811  13.583 -0.0068 -0.3491  0.1094
32166W        W48427   9.075   6.234   0.582 -0.0782 -0.1308  0.1489
32167W        W48428  17.062  15.035   1.635  0.1225 -0.0265  0.1190
32168W        W48429   8.159  12.341  15.995  0.0010 -0.6246 -0.3036
32169W        W48430   5.763   9.386   3.369 -0.0625 -0.0060  0.0316
32170W        W48431  13.476  10.017  14.467 -0.1810  0.1489 -0.3771
32171W        W48432  18.149  14.696  11.630  0.0061 -0.2815  0.4070
32172W        W48433  14.981   1.190   4.536 -0.0622  0.0179 -0.0464
32173W        W48434   7.383   6.249  14.332 -0.1650  0.0099  0.0377
32174W        W48435   9.860   9.884  12.119 -0.0204 -0.0461  0.0055
32175W        W48436   4.670   1.586   0.896 -0.2303  0.0655 -0.0077
32176W        W48437   4.710   3.735  16.054 -0.2289  0.2499 -0.0545
32177W        W48438   2.265  13.331  14.998 -0.0432  0.0762  0.3490
32178W        W48439   6.005   9.517  11.142 -0.0824  0.1785 -0.2664
32179W        W48440  16.167   4.019   4.366  0.1311 -0.0585  0.0483
32180W        W48441  12.710  11.277  12.976  0.2079  0.2234 -0.0413
32181W        W48442   4.323   6.867  12.495 -0.3659 -0.1747  0.2414
32182W        W48443  17.041   6.553  11.841  0.1364 -0.0553  0.2607
32183W        W48444  17.546  17.685  13.266 -0.2206 -0.3360 -0.0966
32184W        W48445  13.700   9.838   1.708 -0.1116 -0.0036  0.1005
32185W        W48446  17.766  16.910   6.294 -0.2337 -0.3607 -0.1111
32186W        W48447  11.805  13.697  13.883 -0.3334  0.2131 -0.0733
32187W        W48448   4.736   8.688  10.706 -0.2017 -0.2428 -0.0489
32188W        W48449   0.372  10.691   5.332 -0.1717  0.0030 -0.0818
32189W        W48450  15.919   2.734   3.354  0.0978  0.0884 -0.1582
32190W        W48451   8.022  10.126  10.488 -0.1129  0.1565 -0.0431
32191W        W48452   4.445   9.648  12.385 -0.3124 -0.1453  0.0268
32192W        W48453  12.984   6.405   1.331  0.2812 -0.2798 -0.2031
32193W        W48454  12.520  14.379   3.391 -0.0268  0.2981 -0.0458
32194W        W48455  12.414  13.806  13.708  0.0520 -0.1936  0.1406
32195W        W48456   9.381   4.494  11.016 -0.1017 -0.1837  0.6003
32196W        W48457   3.704   5.448   2.964 -0.2033  0.2740  0.0041
32197W        W48458  10.336   5.073  11.835  0.1801 -0.0738 -0.1346
32198W        W48459   5.842  15.734   3.050 -0.2720 -0.0216  0.0336
32199W        W48460  16.058   4.327  12.296  0.0059  0.0747  0.0533
32200W        W48461   8.475   4.442   0.243 -0.0933  0.0749 -0.1713
32201W        W48462  13.974  15.525  14.081  0.1344 -0.3166  0.1728
32202W        W48463   0.663   3.278  14.719 -0.0935  0.1305 -0.1683
32203W        W48464   3.469  15.073   3.132 -0.2574 -0.0313  0.0544
32204W        W48465  11.357   0.792   4.757 -0.0303  0.3671  0.0703
32205W        W48466  15.574   0.614  15.150  0.0472 -0.0544 -0.0976
32206W        W48467  10.402   1.709   2.442 -0.0086  0.1120  0.3728
32207W        W48468  11.172   9.280  13.617 -0.0197  0.1938 -0.2287
32208W        W48469   5.053   5.580  11.589  0.2975 -0.0328  0.4339
32209W        W48470   7.111  14.296   1.928 -0.0820 -0.1113 -0.0579
32210W        W48471  15.945   3.915   1.826  0.2183 -0.2210 -0.0015
32211W        W48472   0.999   9.540   5.672  0.0915  0.1685 -0.0945
32212W        W48473   9.300   9.938   1.557 -0.0290  0.3549 -0.1790
32213W        W48474   9.788   0.234   2.773  0.0015 -0.3078 -0.1664
32214W        W48475   6.916  15.568   0.660 -0.1770  0.3470 -0.1784
32215W        W48476   0.460  12.716   1.373 -0.2316 -0.0951 -0.1335
32216W        W48477   8.338   4.330  10.863  0.0431  0.0856  0.0239
32217W        W48478   3.602   1.927  15.907 -0.1283  0.3708 -0.3264
32218W        W48479   7.624   7.817   5.719 -0.0278  0.1765  0.4600
32219W        W48480  17.672   1.295  15.530 -0.2599 -0.0342 -0.0612
32220W        W48481   6.690  16.892   1.640 -0.1431  0.4594 -0.0147
32221W        W48482   6.762   3.828  13.369 -0.1341  0.0334 -0.0874
32222W        W48483  10.478   4.982  10.919  0.1191 -0.3837  0.0146
32223W        W48484   3.074   7.914   1.816  0.0386 -0.0424 -0.0131
32224W        W48485   3.207  14.107  11.315  0.4289  0.0672 -0.1697
32225W        W48486  12.742  10.511   3.554  0.0819  0.2313  0.0936
32226W        W48487  10.348  11.273  12.520  0.0114  0.3634 -0.3602
32227W        W48488   0.640  14.918  12.870 -0.0843  0.2677  0.0755
32228W        W48489  10.238  16.641  12.893 -0.3129  0.1704 -0.0522
32229W        W48490   9.047  12.455   2.340 -0.1846  0.2834  0.3089
32230W        W48491  15.700  13.212  15.470  0.1594  0.1900  0.1542
32231W        W48492   1.551   0.077  14.429 -0.1572  0.0829 -0.2146
32232W        W48493   3.455   3.664   1.938 -0.1070  0.0457 -0.1925
32233W        W48494  10.881   0.171   1.401 -0.0774  0.2073  0.0991
32234W        W48495  14.221  13.148  14.648  0.3616 -0.1684 -0.2063
32235W        W48496  13.295  17.525   5.183 -0.4540  0.0056  0.3810
32236W        W48497  10.130   7.879   4.951  0.2206  0.0619  0.3711
32237W        W48498  16.075  16.222  15.799  0.0693 -0.1162  0.0326
32238W        W48499   9.570   1.752   1.384  0.3273 -0.0627 -0.3830
32239W        W48500   8.151  16.938  12.805  0.0229  0.1354  0.2011
32240W        W48501   6.404  10.860   2.532 -0.1967 -0.2297 -0.0294
32241W        W48502   8.992  14.373  15.230 -0.2699  0.0752  0.0936
32242W        W48503   1.283  12.228   3.046  0.3098 -0.0657 -0.1770
32243W        W48504  18.034   5.086   2.345 -0.2542  0.0133  0.0624
32244W        W48505   9.236   0.847  15.951  0.0636 -0.2595  0.1730
32245W        W48506   3.448  13.710  15.312 -0.4275 -0.3433 -0.0890
32246W        W48507  12.701   8.246   3.210 -0.3184  0.0460 -0.1570
32247W        W48508  15.046   9.155  13.724  0.1671 -0.0545 -0.0277
32248W        W48509   0.724  15.233   2.269  0.2289  0.1712  0.2498
32249W        W48510   5.825   5.410   0.549 -0.1313  0.2205 -0.2093
32250W        W48511  16.635   8.257   0.402  0.0157  0.0227 -0.0588
32251W        W48512   3.117  15.625  12.234 -0.1598  0.1078  0.0071
32252W        W48513  12.618   9.868   2.539 -0.0980 -0.0099  0.2114
32253W        W48514  16.834   4.620  12.138 -0.4365 -0.2167 -0.0338
32254W        W48515   2.042   7.412   0.247 -0.0732  0.0729 -0.0076
32255W        W48516   1.506  11.094   6.285  0.2594  0.2081  0.1193
32256W        W48517  12.576  10.660   2.998 -0.2654 -0.1767  0.2339
32257W        W48518   0.860   3.841   3.868  0.2977  0.0242  0.0764
32258W        W48519  17.639   6.640   4.293  0.0603  0.0631  0.0382
32259W        W48520  16.389   1.830   3.355 -0.1631 -0.2424 -0.0570
32260W        W48521   6.063  10.784   6.151 -0.0473 -0.0065  0.0330
32261W        W48522  15.950   9.773   1.598  0.2395 -0.0116  0.0913
32262W        W48523   6.168   6.735   5.741 -0.0150 -0.0385 -0.2798
32263W        W48524  12.757   2.572   0.306  0.0905 -0.0659  0.0190
32264W        W48525   3.210   5.736   0.889 -0.0089  0.3297  0.0682
32265W        W48526   5.022  15.902   2.113  0.2825  0.5254 -0.0016
32266W        W48527   8.365   6.977   2.090  0.0791 -0.1387 -0.0781
32267W        W48528   8.365  17.165  14.540  0.1175  0.0922  0.1530
32268W        W48529   0.186  11.270   0.902 -0.2364  0.0305  0.1822
32269W        W48530   8.049   7.552   2.894  0.1996  0.1226  0.2853
32270W        W48531   4.599   6.315  11.890 -0.1242  0.0770  0.1583
32271W        W48532   8.026  16.678  11.990 -0.3391 -0.0750  0.0244
32272W        W48533  14.284   0.680   3.631  0.0381 -0.1191  0.1242
32273W        W48534   1.453   0.134  13.303  0.0210  0.1575  0.1804
32274W        W48535   0.978  15.757   4.416  0.0203 -0.1409  0.1346
32275W        W48536  14.195   8.039   2.147  0.0309 -0.1962  0.1127
32276W        W48537  10.015  15.295   0.123 -0.1397  0.2437  0.2459
32277W        W48538   5.784   7.044   1.532 -0.2512 -0.0080  0.0547
32278W        W48539   9.832   7.239  10.984  0.0544 -0.2910 -0.1232
32279W        W48540  12.629  16.707   2.470  0.0885 -0.2029  0.1001
32280W        W48541   6.701  12.120  11.591  0.0980  0.2831 -0.0388
32281W        W48542  10.453  11.785   0.362 -0.2375  0.0463 -0.0177
32282W        W48543  14.986   6.359   3.139  0.2633  0.1557  0.1196
32283W        W48544  16.028   3.820   4.925 -0.3084 -0.3241  0.0765
32284W        W48545   4.302   6.482   4.832  0.0052  0.0314  0.0430
32285W        W48546  11.939   9.326  12.133  0.4351  0.1861 -0.0638
32286W        W48547  16.015   4.365   4.924 -0.4384  0.3809 -0.0628
32287W        W48548  18.361   1.541   1.116  0.1691 -0.4151 -0.1365
32288W        W48549  17.485   2.246   4.361 -0.0689 -0.1909 -0.1226
32289W        W48550   1.907   0.708   1.638 -0.2697 -0.1166 -0.2383
32290W        W48551  11.235  15.205  11.976  0.0544 -0.2718  0.1888
32291W        W48552   1.017  17.150   4.532  0.2939 -0.2956 -0.0431
32292W        W48553   2.818   2.236   4.570 -0.1018 -0.0734  0.0706
32293W        W48554  12.289  16.140  16.168  0.2154  0.0424 -0.1631
32294W        W48555  15.674  12.000  13.805 -0.3226  0.0045 -0.0744
32295W        W48556   1.377   5.041  11.742  0.2819  0.2351  0.0201
32296W        W48557   2.034   1.514   1.149  0.0473 -0.2298 -0.0994
32297W        W48558  15.361   8.253   5.041 -0.0262 -0.0947  0.1195
32298W        W48559  11.160   8.480   4.199 -0.0628  0.3348 -0.0978
32299W        W48560  15.909   5.279   1.200  0.0191 -0.0491  0.1576
32300W        W48561  10.807  12.480   2.751 -0.0846 -0.0055 -0.0670
32301W        W48562   7.089  14.332  13.939  0.1208  0.0627 -0.1499
32302W        W48563  10.812  14.291   4.534  0.2767  0.4955 -0.0002
32303W        W48564   4.312  14.143  15.206  0.3333  0.0531 -0.1563
32304W        W48565   6.356  17.768  13.665 -0.1211 -0.3291  0.0770
32305W        W48566  10.968  16.296  13.224 -0.1635  0.2727  0.2983
32306W        W48567  15.134  10.747  13.631  0.0191 -0.1707 -0.1073
32307W        W48568  13.544  13.445  16.095  0.1488 -0.1202 -0.1126
32308W        W48569  16.785   3.503  14.598  0.1163  0.4767 -0.0106
32309W        W48570   6.991  12.692  10.831 -0.0982  0.1711  0.0250
32310W        W48571   7.011  11.648  13.109  0.0738  0.1819 -0.1833
32311W        W48572  10.572   3.610   0.288  0.4910  0.1621 -0.4535
32312W        W48573  18.054   2.163   6.234  0.0745  0.0637  0.0614
32313W        W48574   4.302   4.169  13.525 -0.1992 -0.0946  0.0879
32314W        W48575  12.318   1.324  12.160 -0.1426 -0.2381  0.2005
32315W        W48576  17.067   3.260  13.697 -0.0554 -0.0098  0.0877
32316W        W48577   9.570   1.373  13.821  0.0334 -0.2276 -0.1130
32317W        W48578   9.839   4.275   1.546 -0.0923 -0.2017 -0.0598
32318W        W48579  12.555  11.660  15.861 -0.0803  0.0109 -0.1581
32319W        W48580   8.007   3.739  10.866 -0.1579  0.0971 -0.2522
32320W        W48581   4.476   2.411   5.684 -0.3135  0.0022  0.2100
32321W        W48582   3.818   8.127  11.581  0.1499  0.1292 -0.0643
32322W        W48583  16.771   0.608  12.429  0.2548  0.0197 -0.2333
32323W        W48584   3.974   6.981   1.953 -0.0350  0.0625  0.2535
32324W        W48585  17.436  16.068   5.355 -0.1775 -0.1174 -0.1098
32325W        W48586   3.210  13.621   0.427 -0.0613 -0.0916  0.1073
32326W        W48587   7.437  13.837  10.848 -0.1640 -0.0288 -0.0254
32327W        W48588  17.840   9.915  15.357 -0.2022 -0.3914 -0.0707
32328W        W48589   2.063   9.863   1.640  0.3507 -0.0544 -0.0954
32329W        W48590  17.982   9.522   2.284  0.2330  0.5550 -0.0455
32330W        W48591  16.471   1.574  13.599  0.1301  0.0877 -0.3493
32331W        W48592  17.115   3.092  13.188  0.0909 -0.1900 -0.1441
32332W        W48593   4.473   6.874  15.504  0.2181  0.2051 -0.0753
32333W        W48594  10.464   0.995  15.508 -0.0883 -0.0201  0.0752
32334W        W48595   8.314   1.772  15.886 -0.1676 -0.0481  0.0388
32335W        W48596  18.338   8.228  15.916 -0.0420 -0.1011  0.2396
32336W        W48597  12.382  10.661   4.933  0.2305 -0.4670 -0.1738
32337W        W48598   7.566  12.293  12.072 -0.0172 -0.1697 -0.1005
32338W        W48599  13.215   0.548  15.811  0.3024  0.0877  0.0231
32339W        W48600  13.320   3.158   0.235 -0.1526  0.0397 -0.1437
32340W        W48601  16.455  16.983  12.308 -0.0275  0.2113  0.0642
32341W        W48602   0.341  10.270   2.866  0.0508 -0.1693  0.3933
32342W        W48603   5.149  16.654   3.742 -0.0696  0.1833  0.0800
32343W        W48604  16.078  14.613  14.572 -0.3103  0.3399 -0.0861
32344W        W48605  16.507  17.848  11.762 -0.1451  0.4133 -0.0474
32345W        W48606   7.298  17.424   5.615 -0.1427  0.0377 -0.1513
32346W        W48607   5.841  18.349  11.537  0.2650 -0.0667  0.0795
32347W        W48608   5.904  17.100   1.337 -0.0966  0.2572 -0.0275
32348W        W48609  13.752   0.887  13.050 -0.2688  0.2375 -0.0539
32349W        W48610  14.399   0.129   4.946 -0.1020 -0.2626  0.2317
32350W        W48611   5.668  13.394   0.939  0.1034 -0.1789  0.0147
32351W        W48612   6.377  11.720  13.681  0.0373 -0.3739  0.2917
32352W        W48613   1.411  14.778  13.604  0.3523  0.2191  0.1561
32353W        W48614   1.177   0.155   5.100  0.2709 -0.1772 -0.2196
32354W        W48615  14.044  10.729   3.590 -0.2205  0.0645  0.1528
32355W        W48616   3.937   8.127  12.717 -0.1529 -0.1091  0.2948
32356W        W48617   8.565   4.523   1.986  0.2332  0.3127  0.1034
32357W        W48618   0.940   1.341   5.662 -0.4431 -0.0903 -0.1631
32358W        W48619  12.663  13.987   4.907 -0.0214  0.1992 -0.0903
32359W        W48620   3.293  12.623   2.695  0.2996  0.3457  0.3183
32360W        W48621  12.979  12.594   3.773 -0.1045 -0.0717  0.3794
32361W        W48622  16.949  14.478  15.178 -0.1283  0.2270 -0.1126
32362W        W48623   3.647   5.937   1.028  0.0890 -0.3377  0.2558
32363W        W48624   5.030   5.450   0.030  0.2449 -0.0429 -0.0387
32364W        W48625  11.328  17.617  15.597 -0.0489 -0.3024 -0.0918
32365W        W48626   2.458  15.817  12.313  0.3164  0.0747 -0.1032
32366W        W48627  14.830  15.709   0.216 -0.4074  0.1346  0.0435
32367ION     NA48628   7.621  18.112   0.535  0.3060 -0.1567 -0.0697
32368ION     NA48629  18.017   0.522  10.823  0.3875  0.2194 -0.2009
32369ION     NA48630  14.491  12.052   1.344  0.0106 -0.4394  0.1651
32370ION     NA48631   6.540  15.878   4.357  0.0322 -0.3789  0.1586
32371ION     NA48632   4.395  13.874   5.858 -0.0046 -0.0354 -0.0119
32372ION     NA48633  12.164   1.810  10.832 -0.0021 -0.0591 -0.1574
32373ION     NA48634   1.795   9.753  10.414 -0.0960 -0.2348 -0.0333
32374ION     NA48635   0.921   7.796  10.446 -0.0075  0.1619  0.0197
32375ION     NA48636  12.964   8.218   5.889  0.1730  0.0269 -0.0267
32376ION     NA48637   8.666   7.284   4.628  0.0098 -0.3022  0.0923
32377ION     NA48638   9.594   9.858   9.880  0.0028 -0.1522  0.0872
32378ION     NA48639  16.949   7.155  10.490  0.1479 -0.1893 -0.1690
32379ION     NA48640  15.227   9.920  10.246 -0.1409 -0.2981 -0.0403
32380ION     NA48641  14.669  18.186  10.982 -0.2839  0.2399 -0.0593
32381ION     NA48642   4.215   8.670   5.841  0.1712 -0.1323  0.0158
32382ION     NA48643   5.389   3.798   3.906  0.2033 -0.1077 -0.1717
32383ION     NA48644   0.708   4.757  15.206 -0.2763 -0.0239 -0.0122
32384ION     NA48645   1.634   5.130  10.795 -0.1181 -0.2258 -0.1618
32385ION     NA48646   0.379   0.958  11.060  0.0618  0.1627  0.0695
32386ION     NA48647   6.596  18.059  16.204  0.1770 -0.0803 -0.1539
32387ION     NA48648   8.588  15.300   5.304  0.0836  0.0099  0.0643
32388ION     NA48649  12.698  17.335  10.357 -0.3128  0.3248 -0.1636
32389ION     NA48650  10.382   0.304  10.693 -0.1313  0.1227 -0.2079
32390ION     NA48651  16.830  10.984  10.617 -0.2946 -0.1068  0.0310
32391ION     NA48652  10.123   7.892  14.636  0.0033  0.3482 -0.0595
32392ION     NA48653   7.199   5.217  13.412  0.0421  0.0188  0.1672
32393ION     NA48654  14.134  10.960  10.264 -0.0415 -0.1660  0.0368
32394ION     NA48655   9.000  14.855   1.028  0.2351  0.1498 -0.0019
32395ION     NA48656   5.515   2.812  10.483  0.0213 -0.2267  0.1761
32396ION     NA48657   8.089   5.518   9.950 -0.0798  0.2063  0.1643
32397ION     NA48658  17.991   8.947   2.070  0.0180  0.1950 -0.1463
32398ION     NA48659   8.095  13.417   0.891 -0.0327  0.2008 -0.0881
32399ION     NA48660   8.740   1.650   1.449 -0.0121 -0.3571  0.0739
32400ION     NA48661   4.095   6.647   3.908  0.5868 -0.0374  0.0752
32401ION     NA48662   3.769  17.197   5.817 -0.0414 -0.1402  0.0291
32402ION     NA48663  16.463  16.174   5.584 -0.0206 -0.2471  0.3537
32403ION     NA48664   4.202   4.349  11.004 -0.1214  0.0699  0.2213
32404ION     NA48665   5.789  17.092   5.777  0.0281  0.0157 -0.1298
32405ION     NA48666   4.018  14.782   2.410 -0.0006  0.0305 -0.1996
32406ION     NA48667   9.892  16.317  16.108  0.3599 -0.1629 -0.1387
32407ION     NA48668  15.016  10.921  10.347  0.1734 -0.2955 -0.3779
32408ION     NA48669  15.740  18.250  11.822  0.1663  0.3852 -0.0437
32409ION     NA48670  17.802   3.290  12.958  0.0964 -0.0539  0.1432
32410ION     NA48671   2.381   9.359  10.926 -0.3597 -0.0777 -0.1369
32411ION     NA48672  14.285  16.375  14.925  0.1767 -0.1860  0.0518
32412ION     NA48673  16.298   0.032  10.776 -0.2510  0.1296  0.2145
32413ION     NA48674  12.573  15.112  10.540  0.2085 -0.1608  0.3609
32414ION     NA48675  11.058  13.480   9.979  0.1987  0.0951 -0.3414
32415ION     NA48676   5.000   7.293   5.483  0.1120  0.0947 -0.0498
32416ION     NA48677  11.928   5.118  15.667 -0.2292  0.1268  0.0724
32417ION     NA48678  12.889  16.440  10.361  0.1195 -0.0760  0.0340
32418ION     NA48679   7.016   1.687  10.365  0.1262 -0.0881  0.1396
32419ION     NA48680   9.319   3.218  15.620 -0.1059 -0.1827 -0.2562
32420ION     NA48681  13.964   7.614  16.120  0.1431  0.1014  0.1538
32421ION     NA48682  11.467  18.024   3.786 -0.2440  0.0549  0.0634
32422ION     NA48683   9.300  13.766   0.497  0.0329 -0.1657  0.0552
32423ION     NA48684   9.973   2.048  13.564  0.1946  0.0457 -0.0067
32424ION     NA48685   8.587  11.405   9.981  0.0888  0.0312  0.0933
32425ION     NA48686   2.349  14.855  11.323 -0.1479 -0.3193  0.0206
32426ION     NA48687   0.036  13.314  10.979  0.1130  0.0286 -0.3542
32427ION     NA48688   8.026  10.894   9.836  0.2319  0.4410  0.0659
32428ION     NA48689   5.614   1.956  10.622 -0.0558 -0.0795  0.1476
32429ION     NA48690  12.385   9.780  10.210  0.2144  0.2593  0.2868
32430ION     NA48691   7.176   8.457  10.224  0.2142  0.2797  0.0691
32431ION     NA48692  13.703   5.311   0.544 -0.3646 -0.1278 -0.2387
32432ION     NA48693  15.532  11.668  10.232  0.1146  0.0515 -0.0914
32433ION     NA48694  17.131  17.665  15.050  0.0947 -0.1081  0.0520
32434ION     NA48695  15.550   3.550  10.758  0.3441 -0.2275 -0.2955
32435ION     NA48696  17.862  17.871  13.626  0.2379  0.0990 -0.0037
32436ION     NA48697   3.181   5.160  10.906 -0.0193 -0.0028 -0.2192
32437ION     NA48698   9.833  17.927   2.096 -0.0065 -0.0565 -0.1911
32438ION     NA48699   9.801   0.794   4.622  0.1302 -0.1849 -0.0938
32439ION     NA48700   4.765  16.225  10.763 -0.0212  0.0443 -0.1678
32440ION     NA48701   1.568  17.262  10.990 -0.1259 -0.1772  0.0265
32441ION     NA48702  13.046   8.521  10.485 -0.0685 -0.0661  0.0577
32442ION     NA48703  11.312  14.936   5.267  0.0946  0.1718 -0.1888
32443ION     NA48704   1.746  13.422  10.620  0.1871  0.1697 -0.0359
32444ION     NA48705  16.421   3.232   6.040 -0.0169  0.2635 -0.1976
32445ION     NA48706  14.610  12.493  14.869  0.0843  0.0968  0.1398
32446ION     NA48707  11.851  11.023   5.730 -0.1509 -0.1974 -0.1673
32447ION     NA48708  15.606   1.828  11.009 -0.0780  0.1474 -0.0707
32448ION     NA48709  11.274   8.185  10.177 -0.1071 -0.0876 -0.0545
32449ION     NA48710  16.155   2.860  14.052 -0.1059 -0.1846  0.0151
32450ION     NA48711  17.800   8.049   5.897 -0.2868 -0.1662 -0.2279
32451ION     NA48712  15.519   7.431   3.207  0.0285 -0.1220  0.3757
32452ION     NA48713  10.990  12.820  10.107 -0.0254 -0.0153 -0.0166
32453ION     NA48714   8.479   8.992  11.234  0.0436 -0.0716 -0.0399
32454ION     NA48715  12.426   4.596  10.651  0.0854 -0.0716  0.1666
32455ION     NA48716   5.938   7.578   5.528  0.0700  0.0795 -0.0417
32456ION     NA48717   9.050   7.055   5.667  0.1671  0.2052  0.0211
32457ION     NA48718  17.664  16.636  11.054 -0.1750  0.0086 -0.3439
32458ION     NA48719  17.163   8.166   4.209 -0.0623  0.0238 -0.3228
32459ION     NA48720   0.389  12.379  10.691  0.2959  0.1256 -0.0568
32460ION     NA48721   3.868  11.591  10.591 -0.0604  0.0630 -0.1583
32461ION     NA48722  16.199   6.757   1.689  0.0942 -0.1018 -0.3143
32462ION     NA48723  13.942  15.843  16.078  0.0371 -0.0446  0.0628
32463ION     NA48724   0.866  16.166  15.286 -0.0952  0.2154  0.0853
32464ION     NA48725  15.806   4.506   5.860  0.1281  0.1231 -0.2481
32465ION     NA48726   9.522  14.844   5.369  0.0493  0.2944  0.1028
32466ION     NA48727   3.311  12.923   4.797 -0.0576 -0.0062  0.1073
32467ION     NA48728   4.387   3.782  15.656 -0.3324 -0.2044  0.0411
32468ION     NA48729  15.912  15.089  11.286  0.1360  0.3508 -0.2019
32469ION     NA48730   5.868   9.734  10.285 -0.1377 -0.0653  0.0435
32470ION     NA48731  15.697   1.263  11.063  0.3219  0.0649 -0.2951
32471ION     NA48732   1.210  12.695  10.587  0.2676 -0.0564 -0.0815
32472ION     NA48733   5.480   7.044  10.357 -0.1131 -0.0062  0.3101
32473ION     NA48734   4.553   7.244  10.585  0.0653 -0.2215  0.3240
32474ION     NA48735   2.250   5.221  13.668 -0.2862 -0.0384  0.0482
32475ION     NA48736  12.715  10.456  10.409  0.1063 -0.2792 -0.0454
32476ION     NA48737  15.533   2.844  10.724 -0.3839  0.0895 -0.2277
32477ION     NA48738   8.750  16.411  16.113  0.0728  0.0139 -0.0401
32478ION     NA48739   2.156  10.220   5.706  0.1726  0.1311  0.1743
32479ION     NA48740  10.247  10.649   9.931  0.6707  0.0895  0.1629
32480ION     NA48741  14.761   1.885   2.611 -0.0418  0.2805 -0.0210
32481ION     NA48742   7.634  16.856   5.422 -0.1025 -0.0306  0.1353
32482ION     NA48743  14.622   3.531   5.671  0.0686  0.1315  0.1393
32483ION     NA48744  15.037  14.304  10.680 -0.2426  0.0440  0.0754
32484ION     NA48745   7.044   0.291  12.672 -0.3449  0.1471 -0.2171
32485ION     NA48746   5.582   5.620   5.387 -0.1743 -0.0070 -0.1502
32486ION     NA48747  15.805  18.103   5.426  0.2151 -0.1302  0.0349
32487ION     NA48748   0.880   6.248   5.434  0.0552 -0.2133 -0.2503
32488ION     NA48749   6.894  13.211  10.275  0.0295 -0.0247 -0.1580
32489ION     NA48750  15.875   0.475  12.542 -0.1088  0.1216 -0.1450
32490ION     NA48751   0.502   8.831  10.591  0.2698  0.0535  0.0894
32491ION     NA48752  16.044   3.970   0.945  0.1313 -0.0500  0.2460
32492ION     NA48753  15.508  11.954  11.731  0.3609 -0.0053  0.0600
32493ION     NA48754  12.145   5.334   3.649 -0.1143 -0.1678 -0.1067
32494ION     NA48755  13.429  10.124  10.424 -0.1944  0.3591 -0.0215
32495ION     NA48756   3.285   3.044  15.404  0.0291  0.1030 -0.0817
32496ION     NA48757   9.811  14.391   3.021  0.1282  0.0774  0.1427
32497ION     NA48758  17.597   2.342   6.079  0.0343 -0.1140  0.2316
32498ION     NA48759  10.624  15.872  10.208 -0.0406  0.1299 -0.0719
32499ION     NA48760  17.838   7.549  10.445 -0.0452 -0.1326  0.0422
32500ION     NA48761  16.966   8.623  10.548  0.1283 -0.2699  0.0304
32501ION     NA48762   4.119  18.049   0.244  0.1473 -0.0310  0.1520
32502ION     NA48763   2.428   2.464  11.162 -0.3300 -0.1812 -0.2172
32503ION     NA48764  11.424  16.009  16.115  0.2140  0.3752 -0.0707
32504ION     NA48765   1.484  14.300  13.882 -0.1051 -0.1964  0.1902
32505ION     NA48766  13.260  12.026  10.234  0.1163  0.0377 -0.0858
32506ION     NA48767  16.041   5.230  10.646  0.2006 -0.3244 -0.1051
32507ION     NA48768  10.177  13.230  10.008  0.0352 -0.0129 -0.1974
32508ION     NA48769   4.459  14.504  10.357 -0.0572  0.0217 -0.2493
32509ION     NA48770   6.409   7.823  10.064  0.0477 -0.1593  0.2113
32510ION     NA48771  15.744   5.909   5.792  0.1798  0.0185 -0.0253
32511ION     NA48772  10.182   6.590   5.653 -0.0801 -0.1403  0.0261
32512ION     NA48773  11.293   1.093   3.466  0.0690 -0.0272  0.2277
32513ION     NA48774   3.034   1.687  11.108 -0.1197  0.0204  0.3180
32514ION     NA48775  11.762  12.191  10.030  0.1967 -0.1666 -0.0427
32515ION     NA48776  13.858   6.943   5.358  0.2716  0.1539  0.0661
32516ION     NA48777  13.196   1.744   5.743  0.0944  0.1660  0.0902
32517ION     NA48778  14.141   3.677  10.906 -0.3700 -0.0844  0.0748
32518ION     NA48779   0.851   8.535   5.800  0.1249 -0.0361  0.0418
32519ION     NA48780  18.014  17.362   6.197 -0.1295  0.1070 -0.0078
32520ION     NA48781  13.370  10.940  10.320 -0.4161 -0.2168  0.0222
32521ION     NA48782   5.854  15.269  10.451 -0.1265  0.0175  0.4060
32522ION     NA48783  18.268   2.060  11.129  0.1642 -0.2447  0.0733
32523ION     NA48784   8.254  14.521  10.256 -0.1957 -0.1474 -0.0600
32524ION     NA48785  16.877   2.811  11.092 -0.2693  0.2029 -0.1434
32525ION     NA48786   8.612  13.516   3.425  0.0370 -0.1182  0.1201
32526ION     NA48787   2.058  14.132   5.682 -0.0692  0.0705  0.0372
32527ION     NA48788  15.635   9.209  10.556 -0.0220 -0.2616  0.3115
32528ION     NA48789   8.344  12.874   9.767 -0.1076 -0.4617  0.2275
32529ION     NA48790   1.340  15.092  10.611  0.1310  0.1766  0.3048
32530ION     NA48791  13.687   6.104  10.370 -0.1097  0.2910  0.0802
32531ION     NA48792   6.144  10.464   2.524  0.3371 -0.3792 -0.1530
32532ION     NA48793   5.734  17.128  10.448 -0.0776 -0.2441  0.1377
32533ION     NA48794   8.681   5.417  14.423 -0.2013  0.1397  0.3363
32534ION     NA48795   9.171  16.824  10.295  0.1291 -0.1450 -0.1279
32535ION     NA48796  13.205   2.192  10.737 -0.1349 -0.0097  0.3411
32536ION     NA48797   4.169   0.420   4.557  0.0601 -0.0476  0.2269
32537ION     NA48798   4.583   8.978   5.641  0.0311  0.0668 -0.0549
32538ION     NA48799   4.875   3.827   6.095 -0.1683  0.0319 -0.1909
32539ION     NA48800  13.872  11.793  13.659  0.0569 -0.2056  0.2023
32540ION     NA48801   0.138   0.195   3.824  0.0817 -0.0272  0.0177
32541ION     NA48802   6.828  17.616  11.035 -0.2661 -0.3819 -0.0815
32542ION     NA48803   5.005  14.267   1.428 -0.1902  0.4848  0.2203
32543ION     NA48804   9.318  18.344   4.380 -0.0394 -0.4730 -0.3278
32544ION     NA48805   9.896  16.172   4.278  0.3998 -0.0978 -0.0408
32545ION     NA48806   4.112   3.129  11.380  0.2235  0.1046 -0.4125
32546ION     NA48807   6.271  12.654   5.858  0.0144  0.0823  0.0870
32547ION     NA48808  18.168  17.362   4.328 -0.0056  0.1361 -0.0278
32548ION     NA48809   1.753  10.077  11.392 -0.0523 -0.0489  0.4751
32549ION     NA48810   5.248   8.015  10.355 -0.1037 -0.1625  0.3332
32550ION     NA48811  11.634   3.028  11.047  0.0081  0.0818 -0.0390
32551ION     NA48812  10.646   7.445   2.077 -0.1286  0.2925  0.3213
32552ION     NA48813   0.953   5.521  11.000  0.0742  0.0397  0.1837
32553ION     NA48814   3.507  16.205   4.036 -0.0993 -0.3937 -0.0742
32554ION     NA48815   2.544   5.631  10.913  0.1878 -0.2723 -0.1598
32555ION     NA48816   4.276  14.067  10.506  0.0289  0.3444  0.1581
32556ION     NA48817  10.443   4.849   5.739 -0.1256 -0.4123 -0.0535
32557ION     NA48818  17.824  16.326  12.628  0.3059 -0.5118  0.0036
32558ION     NA48819  15.531  11.117  13.973 -0.0655 -0.0921 -0.1347
32559ION     NA48820   3.854   1.248   6.025  0.0603 -0.0652  0.1407
32560ION     NA48821   0.757   1.756  10.654  0.1423  0.0649 -0.0533
32561ION     NA48822   4.533   0.629  15.239  0.2952 -0.2087 -0.1459
32562ION     NA48823   2.159   4.165   3.365 -0.0706  0.4083  0.0994
32563ION     NA48824  12.475  11.385  10.112  0.2608  0.3460 -0.0621
32564ION     NA48825  17.891   8.533  10.599  0.2254 -0.0776 -0.1477
32565ION     NA48826   5.890  12.036   5.470 -0.1907 -0.2357  0.3585
32566ION     NA48827   0.579   6.946  10.843  0.0553 -0.0181 -0.2165
32567ION     NA48828   9.650   1.026  13.105 -0.2925 -0.2692 -0.0024
32568ION     NA48829   6.678   5.910  15.457 -0.2390  0.0801 -0.1485
32569ION     NA48830   1.549   9.181   3.151  0.0368  0.0008 -0.0781
32570ION     NA48831  13.341  16.947   3.918 -0.0479  0.4589 -0.1258
32571ION     NA48832   6.095   0.283  10.468  0.1515 -0.0673  0.1354
32572ION     NA48833   2.521  12.786  10.762 -0.3887 -0.0421  0.4088
32573ION     NA48834  14.617  11.702  10.167 -0.0065 -0.0305 -0.1121
32574ION     NA48835   2.576   0.424  10.841 -0.0272  0.0190  0.0241
32575ION     NA48836  18.328  15.926  10.706 -0.1620  0.4079 -0.0126
32576ION     NA48837  12.273   1.053   6.122  0.0612  0.2395  0.2781
32577ION     NA48838  12.523  12.291  10.415 -0.1109 -0.1330 -0.1314
32578ION     NA48839  11.364   4.374   5.489 -0.1692 -0.0928  0.1823
32579ION     NA48840   3.054   7.460   1.315  0.1663  0.0810  0.0233
32580ION     NA48841   8.125   8.643  11.481 -0.2175  0.0303  0.1561
32581ION     NA48842   8.311   1.772  10.216 -0.2223 -0.1879  0.2890
32582ION     NA48843  10.864   8.747   9.983  0.1319  0.1714 -0.1456
32583ION     NA48844  14.181  15.708   2.993 -0.1588  0.0576 -0.0162
32584ION     NA48845  11.253   5.131   5.978 -0.0561 -0.1329 -0.2319
32585ION     NA48846  16.045  15.735  10.665 -0.0773  0.0557  0.0895
32586ION     NA48847   6.567  11.257   9.916 -0.0237  0.0361 -0.1395
32587ION     NA48848   6.765  12.778  12.693  0.1134  0.2742  0.0294
32588ION     NA48849   1.049  10.069  10.250 -0.1716 -0.2889  0.2083
32589ION     NA48850   7.925   4.016  10.013 -0.1147  0.5727 -0.0344
32590ION     NA48851  11.622   1.657  10.688  0.1558 -0.2859 -0.0820
32591ION     NA48852   6.864   8.719   3.111  0.1119 -0.1751  0.1156
32592ION     NA48853  13.345  17.439  10.515 -0.1911  0.0696 -0.4005
32593ION     NA48854  15.511  17.968   5.879 -0.0852 -0.1928  0.2551
32594ION     NA48855  12.440   6.902  13.351 -0.0023 -0.2124 -0.0289
32595ION     NA48856   6.880   7.537  10.159  0.1487  0.1265 -0.0065
32596ION     NA48857  15.545   4.609  12.359 -0.2696 -0.0174  0.2403
32597ION     NA48858  10.656   7.971  16.118  0.0273 -0.0606 -0.1002
32598ION     NA48859  11.377   7.917   3.974 -0.2405  0.3402  0.1997
32599ION     NA48860  15.265  10.705   0.239 -0.2228 -0.2637 -0.0817
32600ION     NA48861  16.892  11.929   0.359  0.2160 -0.0749  0.1069
32601ION     NA48862   5.531   3.781  12.413  0.2800  0.0424 -0.3168
32602ION     NA48863   6.666  14.713  10.437  0.1489  0.1104 -0.3050
32603ION     NA48864   1.628   0.346  10.961 -0.2700  0.1327 -0.5191
32604ION     NA48865   5.200  13.917  10.562 -0.0490  0.1269  0.0413
32605ION     NA48866  12.948   3.593  10.596  0.0354 -0.2205  0.1110
32606ION     NA48867  13.791   7.987  10.672 -0.1530 -0.1543  0.2472
32607ION     NA48868  14.228  14.290  10.495  0.1854 -0.3301  0.1428
32608ION     NA48869   9.835  16.392  10.455  0.1557  0.4336 -0.2338
32609ION     NA48870  14.546   6.186  10.403 -0.2988  0.2100 -0.0039
32610ION     NA48871   8.709   5.848   3.318  0.1998 -0.1327  0.3475
32611ION     NA48872   5.257  17.554  10.509  0.0295  0.1168 -0.0248
32612ION     NA48873   6.963  10.998  13.828  0.1132 -0.2269 -0.1252
32613ION     NA48874   4.124   9.672  10.198  0.2678 -0.0686  0.0346
32614ION     NA48875  12.616   2.844  11.073  0.1556 -0.0703  0.2651
32615ION     NA48876  10.510  16.111   5.742  0.1017  0.0863  0.1054
32616ION     NA48877   3.312  13.703  10.517 -0.1954  0.0731 -0.3038
32617ION     NA48878   7.678   1.110  10.119  0.1846 -0.3334 -0.0844
32618ION     NA48879   8.505  15.504  10.493 -0.1766  0.2698 -0.0423
32619ION     NA48880   3.066   4.229  10.963 -0.2282 -0.0215 -0.3320
32620ION     NA48881  16.721  16.848   0.248  0.1639 -0.0097  0.0764
32621ION     NA48882  18.357   3.280   3.744  0.1341 -0.0942 -0.2162
32622ION     NA48883  15.883  15.141   3.520  0.0941 -0.0889  0.1311
32623ION     NA48884   4.962   5.451  10.434 -0.1800  0.0394  0.3203
32624ION     NA48885   3.463   2.639  10.931 -0.1383  0.1919  0.2862
32625ION     NA48886   3.264  13.099  10.425  0.2839 -0.2823  0.0164
32626ION     NA48887  10.790  10.642  10.030 -0.4268  0.2205  0.1165
32627ION     NA48888  10.592  10.679  15.172  0.3570 -0.0532  0.0033
32628ION     NA48889  13.977   3.368   5.984  0.0625 -0.1369 -0.0777
32629ION     NA48890  17.797   2.048  10.777 -0.0741  0.4224  0.1998
32630ION     NA48891   0.838  16.390  10.568  0.0777  0.1784 -0.0555
32631ION     NA48892  16.031   9.204  15.374 -0.3450  0.4066  0.1028
32632ION     NA48893   8.111  10.048  10.014 -0.2537 -0.0107  0.2433
32633ION     NA48894  14.147  12.493  10.315  0.0246 -0.0468 -0.2312
32634ION     NA48895   2.772   8.360  10.433 -0.2426 -0.3887 -0.1598
32635ION     NA48896   7.365   1.771  11.665 -0.0832 -0.0682 -0.0853
32636ION     NA48897  12.971  18.190  10.615  0.0090  0.1407 -0.3004
32637ION     NA48898  10.577   7.009  12.836 -0.0807 -0.1001  0.2461
32638ION     NA48899   6.046  16.355  10.403 -0.0394  0.1840 -0.1711
32639ION     NA48900   6.973   7.315  15.266  0.2948  0.0189 -0.0145
32640ION     NA48901  11.493  11.381  10.343  0.1565  0.2092 -0.0391
32641ION     NA48902   1.828   7.153   5.673 -0.2336 -0.0074  0.3122
32642ION     NA48903  15.198   7.524  10.393 -0.1015  0.0979 -0.0455
32643ION     NA48904   0.168   2.287   2.100  0.0800 -0.1581 -0.1259
32644ION     NA48905   7.737  11.693  10.056  0.0950 -0.0035  0.2317
32645ION     NA48906   3.887   7.793  10.639 -0.1322 -0.1900  0.2277
32646ION     NA48907  14.889   1.536   3.669 -0.0395 -0.0130  0.4089
32647ION     NA48908  12.271  13.149  15.027  0.3481  0.0209 -0.3160
32648ION     NA48909   1.031  15.048   5.789 -0.0320  0.0491 -0.1621
32649ION     NA48910  13.991   1.125  10.882 -0.0121  0.0736  0.0697
32650ION     NA48911  11.044   2.864  10.421 -0.1365 -0.0613 -0.1788
32651ION     NA48912   0.669   2.128  11.113  0.0164  0.2777  0.1886
32652ION     NA48913   6.641   9.201  10.302  0.0841 -0.2346 -0.2562
32653ION     NA48914   7.821   7.861   9.796  0.1187  0.0369  0.0232
32654ION     NA48915  15.993  12.420   5.741  0.1470 -0.0156 -0.1220
32655ION     NA48916  18.180  10.721   4.638 -0.0610 -0.4368  0.0744
32656ION     NA48917  17.490  10.570  15.946  0.5520  0.3046 -0.2736
32657ION     NA48918   7.799  13.616  10.015 -0.0892  0.2798 -0.1848
32658ION     NA48919   3.561   6.900   2.611 -0.0202  0.0761 -0.1383
32659ION     NA48920   4.204  12.173  10.524  0.1983 -0.0424 -0.0648
32660ION     NA48921   5.303  18.303   5.926  0.4078  0.1267  0.2530
32661ION     NA48922   7.465   4.829  10.147  0.0678 -0.1301 -0.0529
32662ION     NA48923   2.389   2.545   1.104  0.1451  0.4677  0.0795
32663ION     NA48924  13.658  15.257   6.151 -0.3295  0.3516 -0.2743
32664ION     NA48925  11.181   9.195  10.011  0.0116  0.2757  0.1019
32665ION     NA48926   5.844  10.863  12.765  0.0837 -0.2566 -0.0448
32666ION     NA48927   8.257  15.390   1.001 -0.2283 -0.1107 -0.2880
32667ION     NA48928   1.306  11.684  10.638  0.0186  0.0266  0.2447
32668ION     NA48929   2.128   8.536   5.326 -0.1731  0.2463  0.0265
32669ION     NA48930   4.207   4.740  15.292  0.2538  0.1688 -0.1785
32670ION     NA48931   6.128  13.889  10.480  0.2700 -0.1628 -0.0507
32671ION     NA48932   0.508   5.818   1.485 -0.0227  0.1330  0.2650
32672ION     NA48933  15.102  12.437  10.416 -0.2641 -0.0752 -0.4788
32673ION     NA48934  10.283  11.953   4.827 -0.2209  0.2499  0.2254
32674ION     NA48935   5.857   6.753  10.214 -0.3415  0.2085 -0.0810
32675ION     NA48936  17.313  11.886  10.400 -0.1604 -0.1860  0.0950
32676ION     NA48937  17.859  13.865   0.444 -0.3291  0.0259  0.4424
32677ION     NA48938  13.510   7.165  10.598  0.0246  0.0777  0.1382
32678ION     NA48939   1.822  17.031   6.243 -0.1244 -0.2028 -0.0295
32679ION     NA48940  13.142  13.413  10.836 -0.1906  0.0097 -0.0859
32680ION     NA48941  14.793   5.265  10.498 -0.0782  0.1363 -0.1777
32681ION     NA48942  17.306  14.903  10.722 -0.0228 -0.2208  0.3532
32682ION     NA48943   9.966  16.594   0.520  0.2448 -0.3693  0.2218
32683ION     NA48944  15.871  14.666  10.888  0.1627 -0.0145 -0.0409
32684ION     NA48945  13.553  10.783  15.892  0.1966  0.1371  0.0047
32685ION     NA48946  11.368  15.517  10.539 -0.1846 -0.2466  0.0487
32686ION     NA48947   6.899   1.974   5.856  0.0115 -0.0763 -0.1995
32687ION     NA48948   6.650  13.912  10.518 -0.0773 -0.3905  0.0774
32688ION     NA48949  13.354   9.512   5.696 -0.0873  0.2969  0.1462
32689ION     NA48950  13.822   8.164  11.911  0.2120 -0.3627 -0.0687
32690ION     NA48951   6.459   2.331  10.312 -0.0917  0.0375  0.2170
32691ION     NA48952   6.145  11.499  10.148 -0.0395 -0.1632  0.1139
32692ION     NA48953   3.143   0.654   5.888 -0.0042  0.2868  0.1133
32693ION     NA48954  11.213   0.872  10.807  0.1478 -0.1342 -0.0182
32694ION     NA48955  16.742  13.104   2.530 -0.2622  0.0307 -0.1173
32695ION     NA48956   7.940  16.597  10.355  0.0631 -0.2903  0.0377
32696ION     NA48957  16.868   4.747  10.802  0.1467 -0.2039 -0.2852
32697ION     NA48958   3.203   0.265   2.493 -0.3332 -0.0328  0.0469
32698ION     NA48959   4.477   2.943   4.092 -0.2069 -0.0301 -0.0078
32699ION     NA48960  11.949  16.981  10.380 -0.0095  0.1557  0.2387
32700ION     NA48961   7.661  15.629  10.456 -0.0328  0.3059 -0.5560
32701ION     NA48962  14.327  14.995  15.269  0.0658 -0.2143 -0.2079
32702ION     NA48963  15.420   8.172   2.487  0.2636 -0.1464  0.1809
32703ION     NA48964   8.745   3.371  10.250 -0.0881  0.1346 -0.1675
32704ION     NA48965  15.388   9.586   2.868  0.1139  0.0915 -0.3185
32705ION     NA48966   4.166   1.642   6.095  0.1058 -0.3822 -0.2127
32706ION     NA48967   7.198  15.705   2.580 -0.3533 -0.0290 -0.0727
32707ION     NA48968   3.323  10.462   3.257  0.4207 -0.2796  0.3936
32708ION     NA48969  14.133  12.202   6.017  0.0670  0.2802 -0.2036
32709ION     NA48970   2.074  14.318  10.497 -0.0688  0.0886 -0.2433
32710ION     NA48971   9.855   5.572   9.992  0.0162  0.2700  0.0107
32711ION     NA48972   1.889   2.301   4.282  0.3334 -0.0308 -0.0097
32712ION     NA48973   9.036   5.604   9.952 -0.2691 -0.0934  0.2389
32713ION     NA48974   6.402   2.117   1.510  0.0717  0.1298 -0.3794
32714ION     NA48975  16.382  16.498   1.640 -0.1636 -0.3747  0.1152
32715ION     NA48976  15.769  13.455  12.524  0.0906 -0.0233 -0.1140
32716ION     NA48977   0.465  11.590  10.508 -0.3473  0.2249  0.1207
32717ION     NA48978   2.784  15.135  10.496  0.4218  0.1019 -0.0742
32718ION     NA48979  14.579   2.367  10.845 -0.2170  0.0268 -0.2614
32719ION     NA48980  16.018   6.835  10.437 -0.1939 -0.0362  0.1900
32720ION     NA48981   4.183  10.326  14.404 -0.1349  0.0036  0.1439
32721ION     NA48982   0.141   5.185  10.909 -0.2453 -0.1108 -0.0927
32722ION     NA48983  14.522  12.187  12.809  0.2822  0.0186 -0.0815
32723ION     NA48984  11.951   8.944   1.914  0.2755 -0.1096  0.0472
32724ION     NA48985  14.845  15.644  14.536  0.0671 -0.0176  0.2008
32725ION     NA48986   1.550  14.981   3.860 -0.2397  0.1681 -0.0422
32726ION     NA48987  11.391   1.324   6.324  0.1416  0.2197 -0.1560
32727ION     NA48988   0.983   1.480  11.668  0.0055  0.0447 -0.0993
32728ION     NA48989   1.040   0.704   0.401  0.3759  0.0355  0.0102
32729ION     NA48990  12.194   7.936  10.466  0.3722  0.0073  0.0851
32730ION     NA48991  17.743  10.906  10.431  0.0390  0.0271  0.3958
32731ION     NA48992   8.359   3.743   3.631  0.1215  0.3965 -0.0644
32732ION     NA48993  10.085   5.346  13.015  0.0775 -0.0837  0.4036
32733ION     NA48994   5.712   6.974  11.386  0.0567  0.0152  0.2344
32734ION     NA48995   1.393  17.502   4.507 -0.1157 -0.0082  0.1394
32735ION     NA48996  12.464  16.047  14.322  0.0049  0.1896 -0.1589
32736ION     NA48997  17.723   3.045  10.878  0.2100 -0.1203 -0.1257
32737ION     NA48998   5.558  12.579   4.718  0.1392  0.1660 -0.0959
32738ION     NA48999  12.476   5.559  10.553 -0.0449 -0.0583 -0.2033
32739ION     NA49000   3.558   4.256  15.919  0.1337 -0.1319  0.1607
32740ION     NA49001  13.006  15.488  10.437  0.1192  0.0130  0.0871
32741ION     NA49002   2.252   9.138   1.706 -0.2873 -0.0238  0.2341
32742ION     NA49003  16.678  15.210  10.645  0.1744 -0.1212 -0.4529
32743ION     NA49004   6.119   5.445   2.443 -0.2085 -0.0060  0.1132
32744ION     NA49005   7.053  13.688  13.624  0.3293 -0.1653  0.1074
32745ION     NA49006  11.088   3.244   5.881 -0.1139  0.1899 -0.0211
32746ION     NA49007  13.851  16.279   6.085 -0.1068  0.0149  0.0067
32747ION     NA49008  13.828   2.693  11.946  0.3137  0.1433 -0.0263
32748ION     NA49009  12.267   6.822   1.350  0.1757 -0.2275 -0.1758
32749ION     NA49010  15.310   0.184   2.378 -0.4760  0.3301 -0.1549
32750ION     NA49011  13.011   9.345  10.074  0.0415  0.0856 -0.3482
32751ION     NA49012  13.816  10.506   1.251  0.1517  0.0198  0.0029
32752ION     NA49013  16.829   2.372   0.544  0.0386  0.2544  0.1643
32753ION     NA49014   8.581   8.449  12.137 -0.0328 -0.2933 -0.1416
32754ION     NA49015  15.902  12.499  10.520 -0.1797 -0.1170 -0.4876
32755ION     NA49016  17.925  14.209  10.747  0.0597  0.0743 -0.0049
32756ION     NA49017  10.351  13.156  13.840  0.1001  0.0328 -0.1999
32757ION     NA49018  17.446   6.520   1.388 -0.0847 -0.0918  0.3660
32758ION     NA49019   3.915   1.211  11.087  0.2962 -0.0138  0.1453
32759ION     NA49020  11.917   2.992   5.287 -0.2191  0.0281 -0.0073
32760ION     NA49021   7.531   9.203   9.918  0.0091  0.1280 -0.0369
32761ION     NA49022   3.683   3.585  10.664 -0.0202 -0.0174  0.0519
32762ION     NA49023  15.835  13.671  10.641  0.0055  0.0188  0.0050
32763ION     NA49024   0.992   3.148  10.946  0.0975 -0.3206 -0.0825
32764ION     NA49025  12.966  11.740   3.663  0.0187  0.1359  0.1265
32765ION     NA49026  12.544   3.403  16.134  0.0007 -0.2056  0.0876
32766ION     NA49027  13.836  11.179   6.009  0.0026 -0.1533  0.1144
32767ION     NA49028  16.283   1.184  11.002  0.2015 -0.2405  0.0363
32768ION     NA49029  10.867  14.845  10.173  0.3274  0.0413  0.1959
32769ION     NA49030   1.960   6.012  10.846  0.1136 -0.0346 -0.1211
32770ION     NA49031  13.272   9.975  15.426 -0.0617 -0.3004 -0.0585
32771ION     NA49032  15.716   3.011   1.649 -0.1099  0.1826 -0.2065
32772ION     NA49033   7.141  16.101  12.624 -0.0312  0.0590 -0.0576
32773ION     NA49034   9.816  12.484  11.319  0.2984  0.1268 -0.3328
32774ION     NA49035  12.038  13.544  10.199 -0.3662  0.0314 -0.1459
32775ION     NA49036  12.199  13.811   5.023  0.0159 -0.0444 -0.0101
32776ION     NA49037   1.702   1.595  11.281  0.0078 -0.1473  0.0632
32777ION     NA49038  14.895   0.776  10.972 -0.0575  0.0534  0.1827
32778ION     NA49039   8.181   0.708   5.559 -0.2452 -0.3895  0.2527
32779ION     NA49040  13.988   2.777  10.824 -0.0606  0.1621 -0.0491
32780ION     NA49041   3.849   2.134  11.027 -0.1692 -0.1291 -0.1517
32781ION     NA49042   0.453   4.767  10.891  0.0566  0.1315  0.2357
32782ION     NA49043   9.436   9.037   9.840 -0.0164  0.2710  0.0535
32783ION     NA49044   1.150   9.852   2.214 -0.1155 -0.1200 -0.0842
32784ION     NA49045   7.567   6.881  10.137 -0.0814 -0.2180  0.1638
32785ION     NA49046  14.980  17.246  10.894  0.0464 -0.0942 -0.1120
32786ION     NA49047   9.182  12.446   9.953 -0.0618 -0.2552  0.1268
32787ION     NA49048   3.088  15.546  14.054 -0.2017 -0.1024 -0.1118
32788ION     NA49049  10.909   7.672  10.046  0.2744 -0.3297  0.0277
32789ION     NA49050   2.161   6.958  10.816  0.0270 -0.1165 -0.0802
32790ION     NA49051  11.696   2.507  10.882  0.2349  0.1961  0.2401
32791ION     NA49052   6.891   9.876  12.205 -0.1439  0.1243  0.0351
32792ION     NA49053   8.468   4.882   5.438  0.1387  0.1117 -0.0624
32793ION     NA49054  18.252   9.680  10.437  0.2853 -0.2057 -0.2872
32794ION     NA49055  13.140   6.642   5.806 -0.2327 -0.3254 -0.0813
32795ION     NA49056  16.634  16.282  10.855 -0.3290  0.0383 -0.3858
32796ION     NA49057   6.548   4.182  10.312 -0.0548  0.0567  0.1096
32797ION     NA49058   0.173   2.593   0.532  0.0322 -0.2321 -0.0658
32798ION     NA49059  13.082  17.184   3.165 -0.0052 -0.1980 -0.0737
32799ION     NA49060   0.930   6.377   3.693 -0.1343  0.0595 -0.1824
32800ION     NA49061  15.703   6.130   1.913 -0.3116 -0.2089 -0.2569
32801ION     NA49062   3.804  10.256  10.354 -0.0150  0.0397  0.1467
32802ION     NA49063   7.669  13.219   5.687  0.0590  0.2203 -0.0039
32803ION     NA49064  16.992  17.747  10.588  0.0677 -0.1412  0.0578
32804ION     NA49065   8.412   4.894  10.190 -0.0710 -0.0715  0.1501
32805ION     NA49066  12.450  12.432   5.658  0.1674 -0.4755  0.2028
32806ION     NA49067  10.563   5.771  10.386 -0.0151 -0.1422  0.0237
32807ION     NA49068  10.225  10.679   3.625  0.3068 -0.1297 -0.0644
32808ION     NA49069   3.649  14.537  10.596  0.3419  0.0793  0.1703
32809ION     NA49070  16.760   5.767   0.293 -0.0349  0.2402  0.1726
32810ION     NA49071  17.433   5.631   1.260  0.0561 -0.0508  0.2561
32811ION     NA49072  11.011   3.870  10.746  0.2449 -0.0058 -0.1552
32812ION     NA49073  10.773  16.007   4.491  0.0075 -0.1191 -0.2355
32813ION     NA49074  17.208   3.725  10.991 -0.0144  0.1177 -0.2932
32814ION     NA49075   8.750   2.623   0.429 -0.1463 -0.1214  0.1907
32815ION     NA49076  14.670   3.594  10.703  0.0723 -0.0407  0.0981
32816ION     NA49077  12.046   3.762  10.597  0.1100 -0.1088  0.0140
32817ION     NA49078   7.798  16.168   5.524 -0.2254  0.4095 -0.4036
32818ION     NA49079   0.413   6.151  10.704 -0.0586 -0.0826  0.1060
32819ION     NA49080   6.665   2.120   2.270  0.0861 -0.0332 -0.0863
32820ION     NA49081  11.187  12.349  15.323  0.3165  0.0029  0.0963
32821ION     NA49082   0.338  15.074  10.735  0.0212 -0.1510 -0.0324
32822ION     NA49083   9.759  12.350  13.277  0.0568  0.1308  0.0587
32823ION     NA49084  18.254  17.902   6.006 -0.2659  0.0627  0.0002
32824ION     NA49085   9.716  13.750  12.940 -0.0418  0.1266  0.0105
32825ION     NA49086  10.134   7.585  13.541 -0.1102  0.2739 -0.2233
32826ION     NA49087   8.987  14.696  10.184  0.0279 -0.1327  0.1870
32827ION     NA49088   9.216  13.400  10.299  0.0748 -0.1594  0.0786
32828ION     NA49089   4.967  15.263  10.417 -0.0228  0.3015 -0.2696
32829ION     NA49090  14.599  16.292   5.996  0.1362 -0.0808  0.3188
32830ION     NA49091  17.483  15.849  10.616  0.0640  0.4940  0.0366
32831ION     NA49092   1.922   2.989   6.357 -0.1763 -0.0513 -0.1117
32832ION     NA49093  17.792  11.747  13.227 -0.0189 -0.2339  0.2814
32833ION     NA49094  17.629   6.028   5.972  0.0404 -0.0046 -0.0728
32834ION     NA49095   9.331   7.458  16.042  0.1114  0.0942  0.0050
32835ION     NA49096  10.920   1.013   2.480 -0.1124  0.1093 -0.1375
32836ION     NA49097   5.972   7.715  10.274  0.1604  0.2083  0.3834
32837ION     NA49098  14.252   3.429   3.998 -0.0082  0.0333 -0.1077
32838ION     NA49099   5.889  11.152   5.878  0.0755 -0.2566  0.0916
32839ION     NA49100   3.760   6.136   5.537 -0.1256  0.0292 -0.1920
32840ION     NA49101  16.530   1.395   0.362 -0.1710  0.0074  0.1207
32841ION     NA49102  15.245  17.846  15.432  0.0301  0.2234  0.0645
32842ION     NA49103   7.902   0.080  10.364  0.1098  0.1714 -0.1815
32843ION     NA49104   6.676  15.576  10.510  0.0710  0.2552  0.0675
32844ION     NA49105   9.918  15.329   1.350  0.0506 -0.1219 -0.3213
32845ION     NA49106   4.794   2.341  10.879 -0.2200  0.0621  0.0915
32846ION     NA49107   0.169  10.539  10.369  0.1060 -0.1639 -0.4294
32847ION     NA49108  11.567  14.217  10.657 -0.1933  0.2971  0.0816
32848ION     NA49109  18.269  12.490   5.862 -0.0539 -0.1024 -0.1400
32849ION     NA49110   4.800  18.215  14.495 -0.0485 -0.3298  0.3927
32850ION     NA49111   3.671   6.949  10.905  0.0988  0.0024 -0.1115
32851ION     NA49112   0.204   8.171  10.347 -0.1894  0.2393  0.3564
32852ION     NA49113   9.243  15.787  10.306  0.2321  0.1075  0.1422
32853ION     NA49114   9.011   7.206  10.026 -0.3506  0.0699  0.0557
32854ION     NA49115   5.313   1.370  10.643 -0.1371  0.0089  0.0007
32855ION     NA49116  14.310   4.040   3.289 -0.3082  0.2532  0.1069
32856ION     NA49117  12.986  17.307   1.793 -0.0846 -0.1836 -0.3953
32857ION     NA49118  17.265   0.126  10.638 -0.1448  0.5280 -0.1560
32858ION     NA49119  14.337   1.676   3.107  0.0044  0.1447  0.0198
32859ION     NA49120  14.880   5.514   5.659  0.2867  0.2047  0.1823
32860ION     NA49121  14.046   7.946   5.623 -0.0096 -0.1761 -0.0637
32861ION     NA49122   8.452  14.852   5.894  0.0964  0.0220  0.1992
32862ION     NA49123  17.599   6.035  12.260  0.2019 -0.1403 -0.1252
32863ION     NA49124   6.856   6.364  10.488 -0.2836  0.1917  0.0161
32864ION     NA49125   6.604  16.860   5.594  0.0343 -0.1639 -0.1026
32865ION     NA49126  14.465  10.164  10.297 -0.0634 -0.2010 -0.0874
32866ION     NA49127   2.494   7.671  10.834 -0.1924 -0.3723 -0.1985
32867ION     NA49128   2.604   1.408  10.906 -0.3080 -0.2557 -0.0328
32868ION     NA49129   9.794  17.182  10.819 -0.1345 -0.2106 -0.0770
32869ION     NA49130  11.541   0.098  10.811 -0.0119  0.1331  0.3239
32870ION     NA49131   4.289   5.770  11.083 -0.2486  0.3826  0.2086
32871ION     NA49132   5.593  13.210  10.544 -0.4388  0.2009  0.0659
32872ION     NA49133   4.127   4.969  10.436 -0.0021  0.0828 -0.0587
32873ION     NA49134   8.211  13.803   2.628  0.0292  0.0865 -0.0641
32874ION     NA49135  13.257   7.513   5.751 -0.0012 -0.2063  0.0632
32875ION     NA49136  14.643  15.239   5.924 -0.4820  0.0118 -0.5254
32876ION     NA49137  16.376   3.475  10.877  0.0502 -0.0854  0.4148
32877ION     NA49138   9.559  11.521   9.991  0.0460 -0.0031 -0.0710
32878ION     NA49139   1.289   9.311  10.636  0.1750  0.0630 -0.1860
32879ION     NA49140   4.711  13.197  10.462  0.1993  0.1905  0.1132
32880ION     NA49141   2.114  16.628  10.981  0.0726  0.3069 -0.3236
32881ION     NA49142  15.069  17.510  16.201  0.0247 -0.4040 -0.2431
32882ION     NA49143  11.799   7.592  10.400  0.1440  0.0272 -0.0920
32883ION     NA49144   4.285  12.800   1.583  0.0022  0.0545 -0.1759
32884ION     NA49145   2.890  16.665  10.646 -0.1167 -0.0202  0.1853
32885ION     NA49146  13.780   0.391  13.340  0.1277  0.0955 -0.1316
32886ION     NA49147  12.302   1.060   0.439 -0.1257  0.0547 -0.2464
32887ION     NA49148  13.540  15.106  10.455 -0.0055 -0.0375  0.1671
32888ION     NA49149   5.120  12.446   2.626  0.0688  0.0362 -0.2144
32889ION     NA49150   4.978  15.851  15.384  0.2626 -0.0460  0.0708
32890ION     NA49151   2.093   4.220  10.906 -0.0127 -0.2727 -0.2707
32891ION     NA49152  10.988   4.566  10.225 -0.1936  0.1848  0.0572
32892ION     NA49153  15.578   0.409  10.952  0.2253  0.0064  0.2443
32893ION     NA49154  17.803   1.254  11.209  0.4976  0.1253 -0.0252
32894ION     NA49155   2.870   3.340  11.010 -0.0909  0.1325 -0.0283
32895ION     NA49156   4.228  17.453  11.005 -0.1602 -0.1390 -0.0482
32896ION     NA49157  15.925   7.490  11.212  0.0508 -0.2713 -0.1891
32897ION     NA49158   3.462  13.082  13.094 -0.2447 -0.0188  0.0960
32898ION     NA49159  11.641   2.319  15.472  0.0587  0.0896  0.2559
32899ION     NA49160   5.472   9.419   4.943 -0.3094  0.0461  0.1900
32900ION     NA49161   2.305   4.521  11.475  0.1496 -0.1650 -0.0175
32901ION     NA49162  14.772  10.313   5.596 -0.3416 -0.3391  0.1330
32902ION     NA49163   8.693   4.036  12.167  0.3968  0.2898  0.4147
32903ION     NA49164  17.762   4.774  10.862  0.1446 -0.1973  0.1666
32904ION     NA49165   2.341  11.819  10.277  0.3480 -0.1184 -0.3034
32905ION     NA49166   1.735   9.400   6.263 -0.4142 -0.1497  0.1001
32906ION     NA49167   9.458   0.275   5.564  0.1114  0.0115 -0.1482
32907ION     NA49168  15.977  10.882  10.257  0.1660  0.0262  0.0205
32908ION     NA49169  18.229  14.410  11.171 -0.1112 -0.0750  0.0514
32909ION     NA49170   4.070   7.407  14.735 -0.1870 -0.1178  0.0956
32910ION     NA49171   3.483   4.093  13.346  0.0270  0.3936  0.0318
32911ION     NA49172   7.279  12.399   9.822 -0.1706  0.2605  0.2044
32912ION     NA49173  11.532   1.933   6.230  0.4233 -0.0222 -0.0297
32913ION     NA49174   7.583  17.812   3.471  0.0406 -0.2323 -0.0173
32914ION     NA49175   1.803  16.318  10.758 -0.2011  0.0877  0.1794
32915ION     NA49176   2.373   0.429  12.748  0.1795 -0.1868 -0.1773
32916ION     NA49177  18.058  11.781   1.977  0.1763  0.3437 -0.1287
32917ION     NA49178  11.353   9.222   5.618 -0.0408  0.2113 -0.0933
32918ION     NA49179   7.116  10.002   9.975  0.2866 -0.0016  0.1943
32919ION     NA49180   8.794   2.591   9.964  0.0773  0.0389 -0.1531
32920ION     NA49181   4.510   1.059   1.035  0.2229  0.0581  0.0249
32921ION     NA49182   8.912   8.204   9.924 -0.1368  0.4413 -0.0367
32922ION     NA49183   8.516  17.350  10.315  0.1698 -0.0497 -0.1186
32923ION     NA49184   5.295  10.394  10.159 -0.0029 -0.0940  0.1815
32924ION     NA49185  17.587   3.854  15.008  0.2638  0.1797 -0.0213
32925ION     NA49186  16.322  11.180  15.311  0.0593  0.1232  0.0591
32926ION     NA49187   2.815   2.570   6.335  0.2556  0.1383 -0.2474
32927ION     NA49188   4.850  11.494  10.354  0.1119 -0.3133  0.1146
32928ION     NA49189  11.429  17.024   3.697 -0.1566 -0.0200  0.0514
32929ION     NA49190   9.607  11.932  12.425  0.0762 -0.1552  0.0279
32930ION     NA49191   4.935   4.480  10.467 -0.2843  0.0729 -0.3016
32931ION     NA49192   3.679  15.588  10.732 -0.1044 -0.0968 -0.2673
32932ION     NA49193   2.149   4.054   4.346 -0.1265 -0.0855 -0.1257
32933ION     NA49194   5.573  13.814  11.406 -0.3021  0.3427 -0.1712
32934ION     NA49195   2.833  13.926  10.572  0.0350  0.0975  0.3669
32935ION     NA49196  10.254   9.333  10.027 -0.0147  0.0757  0.0106
32936ION     NA49197   7.468  10.730  15.288 -0.2620  0.2954  0.2045
32937ION     NA49198  10.141   4.519   4.517  0.1519 -0.1842 -0.1902
32938ION     NA49199   0.631   8.641   5.384 -0.0871 -0.1358  0.0839
32939ION     NA49200  13.418   2.976  10.735 -0.0878 -0.0458 -0.0024
32940ION     NA49201  16.443  11.927  10.217 -0.1633  0.0211  0.1397
32941ION     NA49202   3.430  10.710  10.355  0.2226  0.0218  0.4306
32942ION     NA49203   8.874   9.995   5.808  0.2031 -0.2101 -0.1971
32943ION     NA49204   8.127   4.781  13.580  0.0087 -0.1950 -0.0155
32944ION     NA49205   2.786   4.778   1.155  0.2999  0.0426  0.1114
32945ION     NA49206   4.766  18.224  12.813 -0.2212 -0.0159  0.0669
32946ION     NA49207  12.103   0.754  10.918 -0.0208 -0.2816 -0.2160
32947ION     NA49208   7.349  18.208  10.321  0.1845 -0.0490  0.1068
32948ION     NA49209   1.201   5.752  14.485 -0.2270 -0.0258  0.0179
32949ION     NA49210   9.746   7.594   9.752  0.0548 -0.1560  0.1373
32950ION     NA49211   3.538  16.392  12.642  0.0480  0.2134 -0.2454
32951ION     NA49212   2.472   4.797  16.231  0.1019 -0.2474  0.2146
32952ION     NA49213   5.031   2.985   0.570  0.2458  0.1855 -0.0148
32953ION     NA49214   9.567   9.387   5.561  0.0137  0.0141 -0.1558
32954ION     NA49215  17.455  10.285   5.848  0.1389  0.0377  0.0252
32955ION     NA49216   4.462  17.868  10.711 -0.0807 -0.2759  0.0912
32956ION     NA49217  17.699  13.385  10.694  0.1577  0.3536  0.0653
32957ION     NA49218   5.306   9.837   1.887  0.3277 -0.1039  0.2460
32958ION     NA49219  12.212  18.069  10.564  0.1293 -0.1582  0.2003
32959ION     NA49220   3.796   4.834  14.480 -0.2807  0.0851  0.0381
32960ION     NA49221   9.972  15.493  14.986  0.0152  0.0143 -0.0665
32961ION     NA49222   5.178   0.107  10.556  0.0374 -0.1035 -0.1200
32962ION     NA49223  17.926  16.630  10.523  0.3561  0.3820 -0.0607
32963ION     NA49224  17.016   1.632  10.908  0.2479  0.0258  0.0469
32964ION     NA49225   6.993  13.930   5.539  0.1923  0.1558  0.1495
32965ION     NA49226   8.531  13.882   9.920 -0.0391  0.1919  0.1083
32966ION     NA49227  13.527  18.239   6.223  0.0112  0.0163 -0.1855
32967ION     NA49228  10.136  16.790  10.317 -0.1661 -0.2339 -0.1148
32968ION     NA49229   4.621   8.689  10.236  0.1689 -0.0751 -0.0991
32969ION     NA49230   0.755  17.133  11.201 -0.0004  0.1845  0.0541
32970ION     NA49231  11.218  10.816  12.465 -0.3159  0.5365 -0.0817
32971ION     NA49232  10.155   3.078  10.288 -0.1043  0.1312 -0.1568
32972ION     NA49233  18.301   7.404  10.447  0.0125 -0.2161 -0.1176
32973ION     NA49234   7.922  17.519  10.293  0.0689 -0.0916 -0.2333
32974ION     NA49235   5.467   2.073   5.696  0.3244 -0.0559  0.4148
32975ION     NA49236  16.434   6.288  10.687  0.4227  0.2183  0.0701
32976ION     NA49237  12.210   6.902  10.150 -0.2302  0.3173  0.0021
32977ION     NA49238   2.903  11.675  10.562  0.0151  0.0857  0.2814
32978ION     NA49239  15.193   6.723  10.270  0.0048  0.0611  0.2865
32979ION     NA49240   0.897   2.507  15.052  0.0678 -0.2265  0.0506
32980ION     NA49241  13.355   3.723  14.517  0.0855 -0.2522 -0.0202
32981ION     NA49242  16.374   9.162  10.451 -0.0446  0.0625  0.1413
32982ION     NA49243  12.683  17.277  13.373  0.0321 -0.0654 -0.1182
32983ION     NA49244   4.378  10.637  10.468  0.0908 -0.0883 -0.0536
32984ION     NA49245  11.443  15.820  13.009 -0.0707 -0.1780 -0.0307
32985ION     NA49246   2.952   5.437  14.157  0.0340  0.1676 -0.1774
32986ION     NA49247  13.199  14.110  10.579 -0.2051  0.4133  0.1599
32987ION     NA49248  14.457  13.505  10.509 -0.1932 -0.3589  0.0677
32988ION     NA49249  13.665  15.986  10.501 -0.0716 -0.2024  0.1128
32989ION     NA49250  14.123  17.524  10.872  0.0727  0.0928 -0.2574
32990ION     NA49251   1.940  17.788  12.052 -0.0796  0.0310  0.1587
32991ION     NA49252   9.128   1.566   3.771 -0.1513 -0.0361 -0.0494
32992ION     NA49253   1.439   8.455  10.409  0.0735 -0.1298  0.3909
32993ION     NA49254   8.116   8.651   9.758  0.1862 -0.1034 -0.1675
32994ION     NA49255   6.360   3.163  10.345 -0.1794  0.1876 -0.3756
32995ION     NA49256  11.201   0.242   0.882  0.0668 -0.2087 -0.0935
32996ION     NA49257  11.853  11.521  12.275  0.0692  0.1031 -0.0445
32997ION     NA49258   2.456  10.367  10.696  0.1255 -0.0676 -0.1118
32998ION     NA49259  11.182  13.513  12.748  0.1008 -0.4069  0.2071
32999ION     NA49260  16.729   9.923   5.426  0.1551 -0.2792  0.0013
33000ION     NA49261  16.879   5.566  13.080 -0.1440 -0.0100  0.0628
33001ION     NA49262  15.907   2.588  10.937  0.0243  0.1940 -0.0428
33002ION     NA49263  15.337  16.491  10.657  0.1648 -0.0389  0.1282
33003ION     NA49264  15.543   6.018  10.585 -0.0020  0.2488  0.2555
33004ION     NA49265   2.798  16.003  10.670 -0.0270 -0.0733 -0.2435
33005ION     NA49266   3.342   7.254   5.907  0.2724 -0.0212 -0.1687
33006ION     NA49267   8.715   0.350  10.505 -0.0154  0.2095 -0.0061
33007ION     NA49268   0.452   8.367  10.809 -0.1316  0.1739  0.3097
33008ION     NA49269   1.633  10.669  10.235 -0.1963 -0.1016 -0.1294
33009ION     NA49270  14.381  16.629  10.586 -0.0950  0.2031 -0.1325
33010ION     NA49271   5.956   8.649  10.048 -0.0140 -0.0931  0.1077
33011ION     NA49272  16.264   0.860  14.666 -0.0569 -0.0737  0.1583
33012ION     NA49273  11.563   3.067   1.312 -0.1446 -0.0291 -0.1247
33013ION     NA49274  14.138  15.895  11.865 -0.0576  0.0052  0.2432
33014ION     NA49275  17.329  17.734   5.861  0.0160  0.1455  0.0821
33015ION     NA49276   3.131   1.987   0.436 -0.1903 -0.1038  0.0402
33016ION     NA49277  17.949   4.325   4.777 -0.0058  0.0844  0.2429
33017ION     NA49278   9.208   4.731   9.968  0.3060  0.2378 -0.1225
33018ION     NA49279   9.659  17.456  10.465 -0.0342  0.2620  0.1075
33019ION     NA49280  11.899   7.496   6.183  0.0501  0.0201 -0.4849
33020ION     NA49281   5.820   5.147  10.475  0.3162  0.0334 -0.1686
33021ION     NA49282   3.206  12.092  10.543  0.2264  0.0500 -0.1937
33022ION     NA49283   9.063   1.137  10.433 -0.1134 -0.2622 -0.3024
33023ION     NA49284   3.170  18.176  10.768 -0.4058 -0.0141  0.3023
33024ION     NA49285  15.275   2.036   6.266  0.0693  0.3681  0.2780
33025ION     NA49286  14.850   8.297  10.542  0.3631 -0.0565  0.0501
33026ION     NA49287  17.240  16.587   5.153  0.0130  0.2379 -0.2371
33027ION     NA49288   9.239  15.973   5.757  0.2013  0.2102  0.0556
33028ION     NA49289   5.074   0.291   5.650  0.0159 -0.2833  0.0009
33029ION     NA49290   3.653  16.084  10.823 -0.1213  0.1177 -0.1205
33030ION     NA49291   3.077  10.807  12.113 -0.0322  0.0709 -0.0247
33031ION     NA49292   6.693   5.256  10.341 -0.1039 -0.3152  0.3285
33032ION     NA49293   3.158  17.597  10.721 -0.1664 -0.3213 -0.0357
33033ION     NA49294  10.688   3.702  10.397 -0.0491  0.0114  0.3135
33034ION     NA49295   8.384   6.492   9.947 -0.0148 -0.0881  0.0579
33035ION     NA49296  16.980  15.181  16.172  0.3879 -0.3191 -0.1257
33036ION     NA49297   4.662   3.515  10.678  0.2026 -0.0014  0.0423
33037ION     NA49298   5.044  10.240  10.766  0.3504 -0.0615  0.1975
33038ION     NA49299  10.394   1.679   3.383 -0.0065  0.0895  0.1082
33039ION     NA49300   8.450   9.500   3.621  0.3569 -0.0021  0.4261
33040ION     NA49301  12.112   9.625   5.762 -0.0147 -0.0979 -0.0595
33041ION     NA49302   9.477   3.850   9.953  0.2732  0.1304 -0.1020
33042ION     NA49303  16.815  13.663  10.733 -0.1908 -0.0014  0.0948
33043ION     NA49304   3.389  12.278  11.043  0.0958 -0.4241 -0.1657
33044ION     NA49305   3.312   6.084  10.992  0.1768 -0.1117  0.0017
33045ION     NA49306  14.660   4.589  10.730 -0.3492 -0.1722  0.3088
33046ION     NA49307  15.003  12.857  15.750  0.1722  0.1054 -0.0195
33047ION     NA49308   7.375   3.346  10.312 -0.0425 -0.0427 -0.0793
33048ION     NA49309   5.019   9.336   2.819  0.0935 -0.1749 -0.1143
33049ION     NA49310   8.296   8.842  14.168  0.1607 -0.1130  0.0382
33050ION     NA49311   0.431  11.289   6.283 -0.0197  0.1748  0.1791
33051ION     NA49312   4.870   9.974  14.030 -0.0634  0.0659  0.2032
33052ION     NA49313   7.640   3.972   0.157  0.4291  0.3147  0.0136
33053ION     NA49314   0.740  10.994   5.996  0.0044  0.1433 -0.0336
33054ION     NA49315   8.259  15.110   4.008 -0.1266 -0.0440 -0.2034
33055ION     NA49316   2.504  17.412  10.773 -0.3166 -0.5366  0.0431
33056ION     NA49317  11.564   4.551  10.489  0.0524 -0.2240  0.0233
33057ION     NA49318   6.751   5.970   4.965  0.1899 -0.0650 -0.0388
33058ION     NA49319  17.753  13.078  12.046  0.0407  0.2239 -0.2076
33059ION     NA49320   2.973  11.133   2.751 -0.1075 -0.1209 -0.0610
33060ION     NA49321   6.451  11.676  15.379  0.1851  0.0829  0.1684
33061ION     NA49322  16.546  11.764  10.840  0.1307  0.0652 -0.0101
33062ION     NA49323   3.093  14.588   5.830 -0.0010  0.2140  0.0529
33063ION     NA49324  10.446   7.034  10.070 -0.1108 -0.0217 -0.0929
33064ION     NA49325  16.105  15.779   1.318 -0.2083  0.0481  0.0084
33065ION     NA49326   5.346  14.484  10.589 -0.0108  0.0718  0.2660
33066ION     NA49327   5.841   3.847   5.854  0.1249  0.2240  0.0091
33067ION     NA49328  17.136  12.553  10.604  0.0150  0.3429  0.4593
33068ION     NA49329   2.798   1.287  12.447 -0.2653 -0.0024 -0.1056
33069ION     NA49330   0.243   9.731   5.367  0.0356  0.0931 -0.3025
33070ION     NA49331   4.210  18.285  10.504 -0.4767 -0.0083  0.2211
33071ION     NA49332   3.094  13.902  14.890 -0.3904  0.5770  0.0875
33072ION     NA49333  17.173   1.585   3.594  0.1064  0.3159  0.3020
33073ION     NA49334   4.090  11.034  12.844 -0.0136  0.1753 -0.0944
33074ION     NA49335   2.467   2.338   5.776  0.0899 -0.0282 -0.1498
33075ION     NA49336   5.509   3.813  10.326  0.1854  0.3747  0.1140
33076ION     NA49337  14.195  14.931  10.675 -0.1415 -0.0143 -0.2583
33077ION     NA49338   9.952  12.211   9.818 -0.4261 -0.0804  0.0830
33078ION     NA49339   9.602   5.828   5.250  0.0447  0.0738  0.0376
33079ION     NA49340   9.628  18.227  10.478  0.3415 -0.3551 -0.1128
33080ION     NA49341  16.344  14.432  10.489  0.1630  0.0297  0.0724
33081ION     NA49342  14.339   7.182   3.843  0.0335 -0.2376  0.0911
33082ION     NA49343   7.821  16.051  11.191 -0.1591 -0.1918  0.0804
33083ION     NA49344   5.100  12.388  10.518 -0.2906  0.2732  0.0308
33084ION     NA49345   5.064  10.623   0.632  0.0132 -0.1904  0.0502
33085ION     NA49346  12.755  10.959   5.880 -0.1309 -0.3129  0.2182
33086ION     NA49347  10.136   8.462  10.117 -0.0124 -0.0227  0.5183
33087ION     NA49348   2.625   6.471  10.950 -0.3080  0.0221  0.0908
33088ION     NA49349   7.114  11.086   9.813  0.0912 -0.0220 -0.0804
33089ION     NA49350   9.399  16.495   5.504  0.1240 -0.0910  0.2269
33090ION     NA49351  10.486   2.225  10.434 -0.0871  0.3195 -0.1510
33091ION     NA49352  12.794   6.418  10.383 -0.0630  0.2820  0.1168
33092ION     NA49353  10.560  17.622  10.521 -0.0978  0.0806  0.0302
33093ION     NA49354  11.208   6.697  10.132 -0.0253  0.0110 -0.0953
33094ION     NA49355  14.755   9.320  10.609  0.0281 -0.0928  0.1516
33095ION     NA49356   6.820   1.765   4.952  0.2265  0.1091 -0.2478
33096ION     NA49357   0.302   3.821  10.984  0.1963  0.1267 -0.1826
33097ION     NA49358   6.854   6.673   3.925  0.1136  0.0371 -0.1331
33098ION     NA49359   1.185   8.279   6.210 -0.0872  0.1909 -0.2526
33099ION     NA49360   7.950   7.359   3.429 -0.2028  0.0239 -0.0258
33100ION     NA49361   5.858  10.363   0.512 -0.0165 -0.0742  0.1579
33101ION     NA49362  12.248  16.390   2.521 -0.1242 -0.0710  0.2980
33102ION     NA49363   5.853   7.464  13.335  0.1558 -0.3321  0.2586
33103ION     NA49364   9.086   9.854  10.215  0.0599 -0.1200  0.0688
33104ION     NA49365   1.832  18.126  10.818  0.2082  0.0152  0.0503
33105ION     NA49366   8.821  12.575   5.520  0.2152 -0.2415  0.1068
33106ION     NA49367   0.327   0.063  10.975 -0.1240 -0.1512  0.3071
33107ION     NA49368  11.454  17.678  10.544  0.2364 -0.2270  0.0630
33108ION     NA49369   2.788   0.257   1.732 -0.2159  0.1129 -0.0302
33109ION     NA49370  18.006  12.719  10.584 -0.1359 -0.0120  0.0289
33110ION     NA49371  11.428   9.979  10.201  0.1090  0.0575 -0.3689
33111ION     NA49372  16.797  11.685   4.131  0.1413 -0.2761 -0.1905
33112ION     NA49373  11.550   5.957  10.201 -0.2351  0.0402 -0.1683
33113ION     NA49374   1.388  12.293   6.109  0.2277 -0.1051 -0.1086
33114ION     NA49375   9.625   3.039  10.142 -0.1166  0.1485 -0.0704
33115ION     NA49376  13.133   5.268  10.433 -0.0246 -0.1483 -0.2149
33116ION     NA49377   0.485   5.585  15.291 -0.0446  0.1185  0.2911
33117ION     NA49378  17.316   9.659  10.647  0.1000 -0.2673  0.5549
33118ION     NA49379   5.707  13.753  16.015 -0.2215 -0.0347 -0.1217
33119ION     NA49380   5.600   6.127  10.662  0.1046 -0.1952  0.1853
33120ION     NA49381   6.336  17.748  10.319  0.1050  0.3775 -0.4079
33121ION     NA49382   6.275   1.213   1.788  0.0290  0.1697 -0.1151
33122ION     NA49383   3.782   7.590   6.047 -0.0685  0.1772  0.1537
33123ION     NA49384  15.871  17.107  10.864 -0.0516  0.0920 -0.0108
33124ION     NA49385  11.072  16.760  10.319 -0.1629  0.1085 -0.1451
33125ION     NA49386  17.875  17.952  10.857  0.0856 -0.0387 -0.2979
33126ION     NA49387  10.720   5.425  10.071  0.0962  0.1333 -0.0497
33127ION     NA49388   9.873   7.509   3.287  0.2167  0.4559  0.0871
33128ION     NA49389   8.136   2.280   0.895 -0.0606 -0.0002  0.0402
33129ION     NA49390  13.648   9.540   2.244 -0.1367  0.0925  0.4026
33130ION     NA49391   0.732   6.463  12.505  0.0400 -0.0424  0.4684
33131ION     NA49392   0.220  15.212   5.739 -0.0361 -0.2327 -0.0306
33132ION     NA49393   2.535   8.676  15.946 -0.2598  0.2541 -0.1391
33133ION     NA49394  18.182   6.601  10.609 -0.2219 -0.0216  0.0470
33134ION     NA49395   3.710   8.730  10.374 -0.2253  0.0519 -0.0805
33135ION     NA49396  14.386   7.238  10.568 -0.0578  0.1462 -0.2226
33136ION     NA49397   4.887   6.303  10.656  0.2155  0.1853  0.1711
33137ION     NA49398   7.032  16.306  10.428 -0.1903  0.0462 -0.1226
33138ION     NA49399  12.773  11.256   2.797  0.0636 -0.0450 -0.0313
33139ION     NA49400  18.233   4.980   6.298  0.0287  0.2087 -0.0694
33140ION     NA49401   1.439   0.832  11.058 -0.0654  0.3207 -0.2504
33141ION     NA49402   8.237   0.939  10.306  0.2749 -0.1107  0.1238
33142ION     NA49403   4.746  14.149   5.684  0.1733 -0.1411  0.0678
33143ION     NA49404   7.810   9.531   1.426  0.0338 -0.0413  0.0990
33144ION     NA49405  13.588  16.812  10.941 -0.4325  0.3916  0.0791
33145ION     NA49406  15.461  18.002  10.905 -0.1390 -0.1811  0.2045
33146ION     NA49407  10.709   4.819   1.844  0.0895 -0.0861  0.3403
33147ION     NA49408  16.483  17.053  10.744 -0.1585  0.0679  0.0752
33148ION     NA49409   7.864   2.591  10.129 -0.2195 -0.2241  0.0463
33149ION     NA49410   9.319  10.179  15.506 -0.0544 -0.0291 -0.1869
33150ION     NA49411  11.381   5.781  16.258 -0.0173 -0.0548  0.0106
33151ION     NA49412  10.606   2.048  15.978  0.0441  0.1169  0.3307
33152ION     NA49413   9.552   9.598  15.932  0.3141  0.0346  0.2306
33153ION     NA49414  17.478   6.118  10.762 -0.1525  0.3499  0.1102
33154ION     NA49415  16.591   7.920  10.153 -0.0519  0.0436 -0.0781
33155ION     NA49416   2.322  11.623   1.951  0.1917  0.3683  0.0529
33156ION     NA49417   6.684   9.292  14.556 -0.2117 -0.0345 -0.1985
33157ION     NA49418  17.597   2.034  13.027  0.0486  0.1120  0.2433
33158ION     NA49419   5.099   8.745  13.660  0.1093  0.1318  0.4542
33159ION     NA49420  10.393  12.729   5.427  0.2376 -0.0672  0.1047
33160ION     NA49421  10.321  14.183  10.028 -0.0535 -0.3121 -0.2889
33161ION     NA49422  14.487  14.360   4.208  0.1866  0.0709  0.0031
33162ION     NA49423   3.107   9.677  10.451  0.0524 -0.1413 -0.1140
33163ION     NA49424  12.196  17.375  14.250  0.2713  0.4028  0.1041
33164ION     NA49425  12.035  11.446   4.788  0.0262 -0.0091 -0.1189
33165ION     NA49426  13.033   1.189  10.930  0.2354 -0.1881  0.0594
33166ION     NA49427   8.713  13.558   5.818  0.0507  0.3404  0.5070
33167ION     NA49428  13.764   9.455  10.450 -0.0479  0.1233  0.0241
  18.38869  18.38869  16.30218
